 Entering Gaussian System, Link 0=g09
 Input=Mol07.gjf
 Output=Mol07.log
 Initial command:
 /opt/gaussian/l1.exe /home/scr/lqcapf-6/Gau-541696.inp -scrdir=/home/scr/lqcapf-6/
 Entering Link 1 = /opt/gaussian/l1.exe PID=    541698.
  
 Copyright (c) 1988,1990,1992,1993,1995,1998,2003,2009,2011,
            Gaussian, Inc.  All Rights Reserved.
  
 This is part of the Gaussian(R) 09 program.  It is based on
 the Gaussian(R) 03 system (copyright 2003, Gaussian, Inc.),
 the Gaussian(R) 98 system (copyright 1998, Gaussian, Inc.),
 the Gaussian(R) 94 system (copyright 1995, Gaussian, Inc.),
 the Gaussian 92(TM) system (copyright 1992, Gaussian, Inc.),
 the Gaussian 90(TM) system (copyright 1990, Gaussian, Inc.),
 the Gaussian 88(TM) system (copyright 1988, Gaussian, Inc.),
 the Gaussian 86(TM) system (copyright 1986, Carnegie Mellon
 University), and the Gaussian 82(TM) system (copyright 1983,
 Carnegie Mellon University). Gaussian is a federally registered
 trademark of Gaussian, Inc.
  
 This software contains proprietary and confidential information,
 including trade secrets, belonging to Gaussian, Inc.
  
 This software is provided under written license and may be
 used, copied, transmitted, or stored only in accord with that
 written license.
  
 The following legend is applicable only to US Government
 contracts under FAR:
  
                    RESTRICTED RIGHTS LEGEND
  
 Use, reproduction and disclosure by the US Government is
 subject to restrictions as set forth in subparagraphs (a)
 and (c) of the Commercial Computer Software - Restricted
 Rights clause in FAR 52.227-19.
  
 Gaussian, Inc.
 340 Quinnipiac St., Bldg. 40, Wallingford CT 06492
  
  
 ---------------------------------------------------------------
 Warning -- This program may not be used in any manner that
 competes with the business of Gaussian, Inc. or will provide
 assistance to any competitor of Gaussian, Inc.  The licensee
 of this program is prohibited from giving any competitor of
 Gaussian, Inc. access to this program.  By using this program,
 the user acknowledges that Gaussian, Inc. is engaged in the
 business of creating and licensing software in the field of
 computational chemistry and represents and warrants to the
 licensee that it is not a competitor of Gaussian, Inc. and that
 it will not use this program in any manner prohibited above.
 ---------------------------------------------------------------
  

 Cite this work as:
 Gaussian 09, Revision C.01,
 M. J. Frisch, G. W. Trucks, H. B. Schlegel, G. E. Scuseria, 
 M. A. Robb, J. R. Cheeseman, G. Scalmani, V. Barone, B. Mennucci, 
 G. A. Petersson, H. Nakatsuji, M. Caricato, X. Li, H. P. Hratchian, 
 A. F. Izmaylov, J. Bloino, G. Zheng, J. L. Sonnenberg, M. Hada, 
 M. Ehara, K. Toyota, R. Fukuda, J. Hasegawa, M. Ishida, T. Nakajima, 
 Y. Honda, O. Kitao, H. Nakai, T. Vreven, J. A. Montgomery, Jr., 
 J. E. Peralta, F. Ogliaro, M. Bearpark, J. J. Heyd, E. Brothers, 
 K. N. Kudin, V. N. Staroverov, T. Keith, R. Kobayashi, J. Normand, 
 K. Raghavachari, A. Rendell, J. C. Burant, S. S. Iyengar, J. Tomasi, 
 M. Cossi, N. Rega, J. M. Millam, M. Klene, J. E. Knox, J. B. Cross, 
 V. Bakken, C. Adamo, J. Jaramillo, R. Gomperts, R. E. Stratmann, 
 O. Yazyev, A. J. Austin, R. Cammi, C. Pomelli, J. W. Ochterski, 
 R. L. Martin, K. Morokuma, V. G. Zakrzewski, G. A. Voth, 
 P. Salvador, J. J. Dannenberg, S. Dapprich, A. D. Daniels, 
 O. Farkas, J. B. Foresman, J. V. Ortiz, J. Cioslowski, 
 and D. J. Fox, Gaussian, Inc., Wallingford CT, 2010.
 
 ******************************************
 Gaussian 09:  EM64L-G09RevC.01 23-Sep-2011
                10-Sep-2022 
 ******************************************
 %nprocshared=8
 Will use up to    8 processors via shared memory.
 %mem=1600MB
 ---------------------------------------
 #p b3lyp/cc-pvdz pop=(chelpg,readradii)
 ---------------------------------------
 1/38=1/1;
 2/12=2,17=6,18=5,40=1/2;
 3/5=16,11=2,16=1,25=1,30=1,74=-5/1,2,3;
 4//1;
 5/5=2,38=5/2;
 6/7=2,8=2,9=2,10=2,15=8,20=103,28=1/1,2;
 99/5=1,9=1/99;
 Leave Link    1 at Sat Sep 10 07:05:10 2022, MaxMem=  209715200 cpu:       0.2
 (Enter /opt/gaussian/l101.exe)
 ---------
 Mol07.log
 ---------
 Charge =  0 Multiplicity = 1
 Symbolic Z-Matrix:
 O                    -3.28351  -2.45347   0.27187 
 C                    -2.19354  -1.89736   0.23451 
 C                    -1.02737  -2.48523   1.04932 
 N                     0.15135  -2.79717   0.25853 
 N                     0.01967  -3.29731  -1.00407 
 N                     1.18753  -3.56078  -1.48897 
 C                     2.13513  -3.25072  -0.53352 
 C                     1.47417  -2.75548   0.61107 
 C                     2.17261  -2.35405   1.76256 
 C                     3.5568   -2.46496   1.71533 
 C                     4.23276  -2.95891   0.57012 
 C                     3.5372   -3.35633  -0.56336 
 N                    -1.96821  -0.75863  -0.49664 
 C                    -3.07988  -0.26768  -1.3422 
 C                    -4.02376   0.67794  -0.63413 
 C                    -5.03003   0.2642    0.20781 
 S                    -5.92266   1.60231   0.85879 
 C                    -4.93848   2.74227  -0.00973 
 C                    -3.97836   2.10774  -0.75286 
 C                    -0.78806   0.04926  -0.39138 
 C                    -0.60301   0.89671   0.70873 
 C                     0.53523   1.70068   0.79473 
 C                     1.50824   1.6945   -0.22089 
 C                     1.29793   0.85055  -1.32859 
 C                     0.16901   0.03784  -1.41502 
 C                     2.72108   2.54966  -0.12712 
 C                     2.64947   3.85243   0.40049 
 C                     3.78911   4.65418   0.4891 
 C                     5.02621   4.17092   0.05267 
 C                     5.11279   2.87845  -0.47314 
 C                     3.97326   2.07657  -0.56223 
 H                    -1.42926  -3.39394   1.51895 
 H                    -0.72215  -1.78298   1.83814 
 H                     1.66373  -1.97431   2.64974 
 H                     4.1435   -2.16462   2.5862 
 H                     5.32227  -3.02796   0.58926 
 H                     4.04365  -3.74082  -1.44996 
 H                    -2.62751   0.23208  -2.20987 
 H                    -3.6224   -1.15496  -1.69116 
 H                    -5.27421  -0.75979   0.48179 
 H                    -5.13219   3.80948   0.07563 
 H                    -3.25715   2.63749  -1.37722 
 H                    -1.35823   0.92319   1.49679 
 H                     0.67663   2.33268   1.67363 
 H                     2.02544   0.83841  -2.14217 
 H                     0.02958  -0.62657  -2.26925 
 H                     1.68464   4.25152   0.72091 
 H                     3.70802   5.66579   0.89357 
 H                     5.91764   4.79828   0.12161 
 H                     6.07588   2.48739  -0.80934 
 H                     4.05937   1.05872  -0.9484 
 
 NAtoms=     51 NQM=        0 NQMF=       0 NMMI=     51 NMMIF=      0
                NMic=       0 NMicF=      0.
                    Isotopes and Nuclear Properties:
 (Nuclear quadrupole moments (NQMom) in fm**2, nuclear magnetic moments (NMagM)
  in nuclear magnetons)

  Atom         1           2           3           4           5           6           7           8           9          10
 IAtWgt=          16          12          12          14          14          14          12          12          12          12
 AtmWgt=  15.9949146  12.0000000  12.0000000  14.0030740  14.0030740  14.0030740  12.0000000  12.0000000  12.0000000  12.0000000
 NucSpn=           0           0           0           2           2           2           0           0           0           0
 AtZEff=   0.0000000   0.0000000   0.0000000   0.0000000   0.0000000   0.0000000   0.0000000   0.0000000   0.0000000   0.0000000
 NQMom=    0.0000000   0.0000000   0.0000000   2.0440000   2.0440000   2.0440000   0.0000000   0.0000000   0.0000000   0.0000000
 NMagM=    0.0000000   0.0000000   0.0000000   0.4037610   0.4037610   0.4037610   0.0000000   0.0000000   0.0000000   0.0000000

  Atom        11          12          13          14          15          16          17          18          19          20
 IAtWgt=          12          12          14          12          12          12          32          12          12          12
 AtmWgt=  12.0000000  12.0000000  14.0030740  12.0000000  12.0000000  12.0000000  31.9720718  12.0000000  12.0000000  12.0000000
 NucSpn=           0           0           2           0           0           0           0           0           0           0
 AtZEff=   0.0000000   0.0000000   0.0000000   0.0000000   0.0000000   0.0000000   0.0000000   0.0000000   0.0000000   0.0000000
 NQMom=    0.0000000   0.0000000   2.0440000   0.0000000   0.0000000   0.0000000   0.0000000   0.0000000   0.0000000   0.0000000
 NMagM=    0.0000000   0.0000000   0.4037610   0.0000000   0.0000000   0.0000000   0.0000000   0.0000000   0.0000000   0.0000000

  Atom        21          22          23          24          25          26          27          28          29          30
 IAtWgt=          12          12          12          12          12          12          12          12          12          12
 AtmWgt=  12.0000000  12.0000000  12.0000000  12.0000000  12.0000000  12.0000000  12.0000000  12.0000000  12.0000000  12.0000000
 NucSpn=           0           0           0           0           0           0           0           0           0           0
 AtZEff=   0.0000000   0.0000000   0.0000000   0.0000000   0.0000000   0.0000000   0.0000000   0.0000000   0.0000000   0.0000000
 NQMom=    0.0000000   0.0000000   0.0000000   0.0000000   0.0000000   0.0000000   0.0000000   0.0000000   0.0000000   0.0000000
 NMagM=    0.0000000   0.0000000   0.0000000   0.0000000   0.0000000   0.0000000   0.0000000   0.0000000   0.0000000   0.0000000

  Atom        31          32          33          34          35          36          37          38          39          40
 IAtWgt=          12           1           1           1           1           1           1           1           1           1
 AtmWgt=  12.0000000   1.0078250   1.0078250   1.0078250   1.0078250   1.0078250   1.0078250   1.0078250   1.0078250   1.0078250
 NucSpn=           0           1           1           1           1           1           1           1           1           1
 AtZEff=   0.0000000   0.0000000   0.0000000   0.0000000   0.0000000   0.0000000   0.0000000   0.0000000   0.0000000   0.0000000
 NQMom=    0.0000000   0.0000000   0.0000000   0.0000000   0.0000000   0.0000000   0.0000000   0.0000000   0.0000000   0.0000000
 NMagM=    0.0000000   2.7928460   2.7928460   2.7928460   2.7928460   2.7928460   2.7928460   2.7928460   2.7928460   2.7928460

  Atom        41          42          43          44          45          46          47          48          49          50
 IAtWgt=           1           1           1           1           1           1           1           1           1           1
 AtmWgt=   1.0078250   1.0078250   1.0078250   1.0078250   1.0078250   1.0078250   1.0078250   1.0078250   1.0078250   1.0078250
 NucSpn=           1           1           1           1           1           1           1           1           1           1
 AtZEff=   0.0000000   0.0000000   0.0000000   0.0000000   0.0000000   0.0000000   0.0000000   0.0000000   0.0000000   0.0000000
 NQMom=    0.0000000   0.0000000   0.0000000   0.0000000   0.0000000   0.0000000   0.0000000   0.0000000   0.0000000   0.0000000
 NMagM=    2.7928460   2.7928460   2.7928460   2.7928460   2.7928460   2.7928460   2.7928460   2.7928460   2.7928460   2.7928460

  Atom        51
 IAtWgt=           1
 AtmWgt=   1.0078250
 NucSpn=           1
 AtZEff=   0.0000000
 NQMom=    0.0000000
 NMagM=    2.7928460
 Leave Link  101 at Sat Sep 10 07:05:10 2022, MaxMem=  209715200 cpu:       0.6
 (Enter /opt/gaussian/l202.exe)
 Stoichiometry    C25H20N4OS
 Framework group  C1[X(C25H20N4OS)]
 Deg. of freedom   147
 Full point group                 C1      NOp   1
 Largest Abelian subgroup         C1      NOp   1
 Largest concise Abelian subgroup C1      NOp   1
                         Standard orientation:                         
 ---------------------------------------------------------------------
 Center     Atomic      Atomic             Coordinates (Angstroms)
 Number     Number       Type             X           Y           Z
 ---------------------------------------------------------------------
      1          8           0       -3.283508   -2.453473    0.271870
      2          6           0       -2.193539   -1.897362    0.234510
      3          6           0       -1.027368   -2.485231    1.049320
      4          7           0        0.151352   -2.797170    0.258530
      5          7           0        0.019672   -3.297311   -1.004070
      6          7           0        1.187532   -3.560780   -1.488970
      7          6           0        2.135132   -3.250719   -0.533520
      8          6           0        1.474172   -2.755480    0.611070
      9          6           0        2.172611   -2.354049    1.762560
     10          6           0        3.556802   -2.464958    1.715330
     11          6           0        4.232762   -2.958908    0.570120
     12          6           0        3.537202   -3.356328   -0.563360
     13          7           0       -1.968210   -0.758632   -0.496640
     14          6           0       -3.079880   -0.267683   -1.342200
     15          6           0       -4.023761    0.677937   -0.634130
     16          6           0       -5.030030    0.264196    0.207810
     17         16           0       -5.922661    1.602305    0.858790
     18          6           0       -4.938482    2.742266   -0.009730
     19          6           0       -3.978362    2.107737   -0.752860
     20          6           0       -0.788060    0.049259   -0.391380
     21          6           0       -0.603011    0.896709    0.708730
     22          6           0        0.535229    1.700680    0.794730
     23          6           0        1.508239    1.694500   -0.220890
     24          6           0        1.297929    0.850550   -1.328590
     25          6           0        0.169010    0.037840   -1.415020
     26          6           0        2.721078    2.549661   -0.127120
     27          6           0        2.649467    3.852431    0.400490
     28          6           0        3.789106    4.654182    0.489100
     29          6           0        5.026207    4.170923    0.052670
     30          6           0        5.112788    2.878453   -0.473140
     31          6           0        3.973258    2.076572   -0.562230
     32          1           0       -1.429258   -3.393942    1.518950
     33          1           0       -0.722149   -1.782981    1.838140
     34          1           0        1.663731   -1.974309    2.649740
     35          1           0        4.143501   -2.164618    2.586200
     36          1           0        5.322272   -3.027957    0.589260
     37          1           0        4.043652   -3.740818   -1.449960
     38          1           0       -2.627510    0.232078   -2.209870
     39          1           0       -3.622399   -1.154963   -1.691160
     40          1           0       -5.274210   -0.759794    0.481790
     41          1           0       -5.132193    3.809476    0.075630
     42          1           0       -3.257152    2.637487   -1.377220
     43          1           0       -1.358231    0.923188    1.496790
     44          1           0        0.676628    2.332680    1.673630
     45          1           0        2.025439    0.838411   -2.142170
     46          1           0        0.029580   -0.626571   -2.269250
     47          1           0        1.684637    4.251521    0.720910
     48          1           0        3.708016    5.665792    0.893570
     49          1           0        5.917636    4.798284    0.121610
     50          1           0        6.075878    2.487394   -0.809340
     51          1           0        4.059369    1.058722   -0.948400
 ---------------------------------------------------------------------
 Rotational constants (GHZ):      0.1715409      0.1010790      0.0694129
 Leave Link  202 at Sat Sep 10 07:05:10 2022, MaxMem=  209715200 cpu:       0.0
 (Enter /opt/gaussian/l301.exe)
 Standard basis: CC-pVDZ (5D, 7F)
 Ernie: Thresh=  0.10000D-02 Tol=  0.10000D-05 Strict=F.
 Ernie:  70 primitive shells out of 810 were deleted.
 There are   538 symmetry adapted basis functions of A   symmetry.
 Integral buffers will be    131072 words long.
 Raffenetti 2 integral format.
 Two-electron integral symmetry is turned on.
   538 basis functions,  1201 primitive gaussians,   569 cartesian basis functions
   111 alpha electrons      111 beta electrons
       nuclear repulsion energy      3016.0564460470 Hartrees.
 IExCor=  402 DFT=T Ex+Corr=B3LYP ExCW=0 ScaHFX=  0.200000
 ScaDFX=  0.800000  0.720000  1.000000  0.810000 ScalE2=  1.000000  1.000000
 IRadAn=      0 IRanWt=     -1 IRanGd=            0 ICorTp=0
 NAtoms=   51 NActive=   51 NUniq=   51 SFac= 1.00D+00 NAtFMM=   60 NAOKFM=F Big=F
 Leave Link  301 at Sat Sep 10 07:05:10 2022, MaxMem=  209715200 cpu:       0.3
 (Enter /opt/gaussian/l302.exe)
 NPDir=0 NMtPBC=     1 NCelOv=     1 NCel=       1 NClECP=     1 NCelD=      1
         NCelK=      1 NCelE2=     1 NClLst=     1 CellRange=     0.0.
 One-electron integrals computed using PRISM.
 NBasis=   538 RedAO= T  NBF=   538
 NBsUse=   538 1.00D-06 NBFU=   538
 Precomputing XC quadrature grid using
 IXCGrd= 2 IRadAn=           0 IRanWt=          -1 IRanGd=           0 AccXCQ= 0.00D+00.
 NRdTot=    3270 NPtTot=      417360 NUsed=      440926 NTot=      440958
 NSgBfM=   557   558   558   559   559 NAtAll=    51    51.
 Leave Link  302 at Sat Sep 10 07:05:12 2022, MaxMem=  209715200 cpu:       8.4
 (Enter /opt/gaussian/l303.exe)
 DipDrv:  MaxL=1.
 Leave Link  303 at Sat Sep 10 07:05:12 2022, MaxMem=  209715200 cpu:       1.2
 (Enter /opt/gaussian/l401.exe)
 Harris functional with IExCor=  402 diagonalized for initial guess.
 ExpMin= 1.22D-01 ExpMax= 1.11D+05 ExpMxC= 1.07D+03 IAcc=2 IRadAn=         4 AccDes= 0.00D+00
 HarFok:  IExCor=  402 AccDes= 0.00D+00 IRadAn=         4 IDoV= 1
 ScaDFX=  1.000000  1.000000  1.000000  1.000000
 FoFCou: FMM=F IPFlag=           0 FMFlag=      100000 FMFlg1=           0
         NFxFlg=           0 DoJE=T BraDBF=F KetDBF=T FulRan=T
         Omega=  0.000000  0.000000  1.000000  0.000000  0.000000 ICntrl=     500 IOpCl=  0
         NMat0=    1 NMatS0=    1 NMatT0=    0 NMatD0=    1 NMtDS0=    0 NMtDT0=    0
         I1Cent=           4 NGrid=           0.
 Petite list used in FoFCou.
 Harris En= -1656.98948424832    
 Initial guess orbital symmetries:
       Occupied  (A) (A) (A) (A) (A) (A) (A) (A) (A) (A) (A) (A)
                 (A) (A) (A) (A) (A) (A) (A) (A) (A) (A) (A) (A)
                 (A) (A) (A) (A) (A) (A) (A) (A) (A) (A) (A) (A)
                 (A) (A) (A) (A) (A) (A) (A) (A) (A) (A) (A) (A)
                 (A) (A) (A) (A) (A) (A) (A) (A) (A) (A) (A) (A)
                 (A) (A) (A) (A) (A) (A) (A) (A) (A) (A) (A) (A)
                 (A) (A) (A) (A) (A) (A) (A) (A) (A) (A) (A) (A)
                 (A) (A) (A) (A) (A) (A) (A) (A) (A) (A) (A) (A)
                 (A) (A) (A) (A) (A) (A) (A) (A) (A) (A) (A) (A)
                 (A) (A) (A)
       Virtual   (A) (A) (A) (A) (A) (A) (A) (A) (A) (A) (A) (A)
                 (A) (A) (A) (A) (A) (A) (A) (A) (A) (A) (A) (A)
                 (A) (A) (A) (A) (A) (A) (A) (A) (A) (A) (A) (A)
                 (A) (A) (A) (A) (A) (A) (A) (A) (A) (A) (A) (A)
                 (A) (A) (A) (A) (A) (A) (A) (A) (A) (A) (A) (A)
                 (A) (A) (A) (A) (A) (A) (A) (A) (A) (A) (A) (A)
                 (A) (A) (A) (A) (A) (A) (A) (A) (A) (A) (A) (A)
                 (A) (A) (A) (A) (A) (A) (A) (A) (A) (A) (A) (A)
                 (A) (A) (A) (A) (A) (A) (A) (A) (A) (A) (A) (A)
                 (A) (A) (A) (A) (A) (A) (A) (A) (A) (A) (A) (A)
                 (A) (A) (A) (A) (A) (A) (A) (A) (A) (A) (A) (A)
                 (A) (A) (A) (A) (A) (A) (A) (A) (A) (A) (A) (A)
                 (A) (A) (A) (A) (A) (A) (A) (A) (A) (A) (A) (A)
                 (A) (A) (A) (A) (A) (A) (A) (A) (A) (A) (A) (A)
                 (A) (A) (A) (A) (A) (A) (A) (A) (A) (A) (A) (A)
                 (A) (A) (A) (A) (A) (A) (A) (A) (A) (A) (A) (A)
                 (A) (A) (A) (A) (A) (A) (A) (A) (A) (A) (A) (A)
                 (A) (A) (A) (A) (A) (A) (A) (A) (A) (A) (A) (A)
                 (A) (A) (A) (A) (A) (A) (A) (A) (A) (A) (A) (A)
                 (A) (A) (A) (A) (A) (A) (A) (A) (A) (A) (A) (A)
                 (A) (A) (A) (A) (A) (A) (A) (A) (A) (A) (A) (A)
                 (A) (A) (A) (A) (A) (A) (A) (A) (A) (A) (A) (A)
                 (A) (A) (A) (A) (A) (A) (A) (A) (A) (A) (A) (A)
                 (A) (A) (A) (A) (A) (A) (A) (A) (A) (A) (A) (A)
                 (A) (A) (A) (A) (A) (A) (A) (A) (A) (A) (A) (A)
                 (A) (A) (A) (A) (A) (A) (A) (A) (A) (A) (A) (A)
                 (A) (A) (A) (A) (A) (A) (A) (A) (A) (A) (A) (A)
                 (A) (A) (A) (A) (A) (A) (A) (A) (A) (A) (A) (A)
                 (A) (A) (A) (A) (A) (A) (A) (A) (A) (A) (A) (A)
                 (A) (A) (A) (A) (A) (A) (A) (A) (A) (A) (A) (A)
                 (A) (A) (A) (A) (A) (A) (A) (A) (A) (A) (A) (A)
                 (A) (A) (A) (A) (A) (A) (A) (A) (A) (A) (A) (A)
                 (A) (A) (A) (A) (A) (A) (A) (A) (A) (A) (A) (A)
                 (A) (A) (A) (A) (A) (A) (A) (A) (A) (A) (A) (A)
                 (A) (A) (A) (A) (A) (A) (A) (A) (A) (A) (A) (A)
                 (A) (A) (A) (A) (A) (A) (A)
 The electronic state of the initial guess is 1-A.
 Leave Link  401 at Sat Sep 10 07:05:15 2022, MaxMem=  209715200 cpu:      28.5
 (Enter /opt/gaussian/l502.exe)
 Closed shell SCF:
 Requested convergence on RMS density matrix=1.00D-08 within 128 cycles.
 Requested convergence on MAX density matrix=1.00D-06.
 Requested convergence on             energy=1.00D-06.
 No special actions if energy rises.
 Using DIIS extrapolation, IDIIS=  1040.
 Integral symmetry usage will be decided dynamically.
       440454 words used for storage of precomputed grid.
 IEnd=     1438737 IEndB=     1438737 NGot=   209715200 MDV=   208617434
 LenX=   208617434 LenY=   208293104
 Fock matrices will be formed incrementally for  20 cycles.
 Integral accuracy reduced to 1.0D-05 until final iterations.

 Cycle   1  Pass 0  IDiag  1:
 FoFCou: FMM=F IPFlag=           0 FMFlag=      100000 FMFlg1=           0
         NFxFlg=           0 DoJE=F BraDBF=F KetDBF=F FulRan=T
         Omega=  0.000000  0.000000  1.000000  0.000000  0.000000 ICntrl=       0 IOpCl=  0
         NMat0=    1 NMatS0=    1 NMatT0=    0 NMatD0=    1 NMtDS0=    0 NMtDT0=    0
         I1Cent=           0 NGrid=           0.
 Symmetry not used in FoFCou.
 E= -1656.50515864267    
 DIIS: error= 3.10D-02 at cycle   1 NSaved=   1.
 NSaved= 1 IEnMin= 1 EnMin= -1656.50515864267     IErMin= 1 ErrMin= 3.10D-02
 ErrMax= 3.10D-02 EMaxC= 1.00D-01 BMatC= 6.14D-01 BMatP= 6.14D-01
 IDIUse=3 WtCom= 6.90D-01 WtEn= 3.10D-01
 Coeff-Com:  0.100D+01
 Coeff-En:   0.100D+01
 Coeff:      0.100D+01
 Gap=     0.286 Goal=   None    Shift=    0.000
 GapD=    0.286 DampG=1.000 DampE=0.500 DampFc=0.5000 IDamp=-1.
 Damping current iteration by 5.00D-01
 RMSDP=4.23D-03 MaxDP=2.05D-01              OVMax= 3.26D-01

 Cycle   2  Pass 0  IDiag  1:
 RMSU=  1.47D-03    CP:  9.75D-01
 E= -1656.66218485102     Delta-E=       -0.157026208346 Rises=F Damp=T
 DIIS: error= 9.24D-03 at cycle   2 NSaved=   2.
 NSaved= 2 IEnMin= 2 EnMin= -1656.66218485102     IErMin= 2 ErrMin= 9.24D-03
 ErrMax= 9.24D-03 EMaxC= 1.00D-01 BMatC= 1.29D-01 BMatP= 6.14D-01
 IDIUse=3 WtCom= 9.08D-01 WtEn= 9.24D-02
 Coeff-Com:  0.254D+00 0.746D+00
 Coeff-En:   0.379D+00 0.621D+00
 Coeff:      0.266D+00 0.734D+00
 Gap=     0.217 Goal=   None    Shift=    0.000
 RMSDP=1.51D-03 MaxDP=6.95D-02 DE=-1.57D-01 OVMax= 2.92D-01

 Cycle   3  Pass 0  IDiag  1:
 RMSU=  1.00D-03    CP:  9.59D-01  7.76D-01
 E= -1657.08503209506     Delta-E=       -0.422847244041 Rises=F Damp=F
 DIIS: error= 1.19D-02 at cycle   3 NSaved=   3.
 NSaved= 3 IEnMin= 3 EnMin= -1657.08503209506     IErMin= 2 ErrMin= 9.24D-03
 ErrMax= 1.19D-02 EMaxC= 1.00D-01 BMatC= 1.12D-01 BMatP= 1.29D-01
 IDIUse=3 WtCom= 8.81D-01 WtEn= 1.19D-01
 Coeff-Com:  0.859D-01 0.471D+00 0.443D+00
 Coeff-En:   0.000D+00 0.000D+00 0.100D+01
 Coeff:      0.757D-01 0.416D+00 0.509D+00
 Gap=     0.192 Goal=   None    Shift=    0.000
 RMSDP=8.80D-04 MaxDP=5.63D-02 DE=-4.23D-01 OVMax= 1.01D-01

 Cycle   4  Pass 0  IDiag  1:
 RMSU=  4.57D-04    CP:  9.64D-01  8.58D-01  5.98D-01
 E= -1657.16189100401     Delta-E=       -0.076858908955 Rises=F Damp=F
 DIIS: error= 5.60D-03 at cycle   4 NSaved=   4.
 NSaved= 4 IEnMin= 4 EnMin= -1657.16189100401     IErMin= 4 ErrMin= 5.60D-03
 ErrMax= 5.60D-03 EMaxC= 1.00D-01 BMatC= 3.13D-02 BMatP= 1.12D-01
 IDIUse=3 WtCom= 9.44D-01 WtEn= 5.60D-02
 Coeff-Com:  0.255D-01 0.146D+00 0.347D+00 0.481D+00
 Coeff-En:   0.000D+00 0.000D+00 0.258D+00 0.742D+00
 Coeff:      0.240D-01 0.138D+00 0.342D+00 0.496D+00
 Gap=     0.180 Goal=   None    Shift=    0.000
 RMSDP=4.03D-04 MaxDP=2.21D-02 DE=-7.69D-02 OVMax= 4.50D-02

 Cycle   5  Pass 0  IDiag  1:
 RMSU=  1.58D-04    CP:  9.63D-01  8.34D-01  6.90D-01  5.29D-01
 E= -1657.18760862492     Delta-E=       -0.025717620904 Rises=F Damp=F
 DIIS: error= 1.93D-03 at cycle   5 NSaved=   5.
 NSaved= 5 IEnMin= 5 EnMin= -1657.18760862492     IErMin= 5 ErrMin= 1.93D-03
 ErrMax= 1.93D-03 EMaxC= 1.00D-01 BMatC= 3.23D-03 BMatP= 3.13D-02
 IDIUse=3 WtCom= 9.81D-01 WtEn= 1.93D-02
 Coeff-Com:  0.589D-02 0.254D-01 0.161D+00 0.336D+00 0.472D+00
 Coeff-En:   0.000D+00 0.000D+00 0.000D+00 0.937D-01 0.906D+00
 Coeff:      0.578D-02 0.249D-01 0.158D+00 0.331D+00 0.481D+00
 Gap=     0.180 Goal=   None    Shift=    0.000
 RMSDP=1.36D-04 MaxDP=7.84D-03 DE=-2.57D-02 OVMax= 1.91D-02

 Cycle   6  Pass 0  IDiag  1:
 RMSU=  4.16D-05    CP:  9.62D-01  8.32D-01  7.04D-01  6.19D-01  5.26D-01
 E= -1657.19097047501     Delta-E=       -0.003361850094 Rises=F Damp=F
 DIIS: error= 6.38D-04 at cycle   6 NSaved=   6.
 NSaved= 6 IEnMin= 6 EnMin= -1657.19097047501     IErMin= 6 ErrMin= 6.38D-04
 ErrMax= 6.38D-04 EMaxC= 1.00D-01 BMatC= 2.18D-04 BMatP= 3.23D-03
 IDIUse=3 WtCom= 9.94D-01 WtEn= 6.38D-03
 Coeff-Com:  0.713D-03-0.559D-02 0.436D-01 0.121D+00 0.270D+00 0.570D+00
 Coeff-En:   0.000D+00 0.000D+00 0.000D+00 0.000D+00 0.963D-02 0.990D+00
 Coeff:      0.708D-03-0.556D-02 0.433D-01 0.120D+00 0.268D+00 0.573D+00
 Gap=     0.180 Goal=   None    Shift=    0.000
 RMSDP=3.18D-05 MaxDP=2.17D-03 DE=-3.36D-03 OVMax= 4.14D-03

 Cycle   7  Pass 0  IDiag  1:
 RMSU=  1.47D-05    CP:  9.62D-01  8.32D-01  7.07D-01  6.15D-01  5.74D-01
                    CP:  6.46D-01
 E= -1657.19118002287     Delta-E=       -0.000209547861 Rises=F Damp=F
 DIIS: error= 1.78D-04 at cycle   7 NSaved=   7.
 NSaved= 7 IEnMin= 7 EnMin= -1657.19118002287     IErMin= 7 ErrMin= 1.78D-04
 ErrMax= 1.78D-04 EMaxC= 1.00D-01 BMatC= 2.42D-05 BMatP= 2.18D-04
 IDIUse=3 WtCom= 9.98D-01 WtEn= 1.78D-03
 Coeff-Com:  0.147D-03-0.510D-02 0.117D-01 0.403D-01 0.113D+00 0.329D+00
 Coeff-Com:  0.511D+00
 Coeff-En:   0.000D+00 0.000D+00 0.000D+00 0.000D+00 0.000D+00 0.324D-01
 Coeff-En:   0.968D+00
 Coeff:      0.147D-03-0.509D-02 0.117D-01 0.402D-01 0.112D+00 0.329D+00
 Coeff:      0.512D+00
 Gap=     0.180 Goal=   None    Shift=    0.000
 RMSDP=1.04D-05 MaxDP=6.72D-04 DE=-2.10D-04 OVMax= 1.15D-03

 Cycle   8  Pass 0  IDiag  1:
 RMSU=  3.97D-06    CP:  9.62D-01  8.32D-01  7.06D-01  6.18D-01  5.79D-01
                    CP:  6.99D-01  6.23D-01
 E= -1657.19120768511     Delta-E=       -0.000027662241 Rises=F Damp=F
 DIIS: error= 4.88D-05 at cycle   8 NSaved=   8.
 NSaved= 8 IEnMin= 8 EnMin= -1657.19120768511     IErMin= 8 ErrMin= 4.88D-05
 ErrMax= 4.88D-05 EMaxC= 1.00D-01 BMatC= 1.70D-06 BMatP= 2.42D-05
 IDIUse=1 WtCom= 1.00D+00 WtEn= 0.00D+00
 Coeff-Com:  0.149D-03-0.246D-02 0.363D-02 0.134D-01 0.424D-01 0.138D+00
 Coeff-Com:  0.278D+00 0.526D+00
 Coeff:      0.149D-03-0.246D-02 0.363D-02 0.134D-01 0.424D-01 0.138D+00
 Coeff:      0.278D+00 0.526D+00
 Gap=     0.180 Goal=   None    Shift=    0.000
 RMSDP=3.42D-06 MaxDP=1.95D-04 DE=-2.77D-05 OVMax= 3.92D-04

 Initial convergence to 1.0D-05 achieved.  Increase integral accuracy.
 Cycle   9  Pass 1  IDiag  1:
 E= -1657.19116800144     Delta-E=        0.000039683677 Rises=F Damp=F
 DIIS: error= 2.85D-04 at cycle   1 NSaved=   1.
 NSaved= 1 IEnMin= 1 EnMin= -1657.19116800144     IErMin= 1 ErrMin= 2.85D-04
 ErrMax= 2.85D-04 EMaxC= 1.00D-01 BMatC= 1.34D-05 BMatP= 1.34D-05
 IDIUse=3 WtCom= 9.97D-01 WtEn= 2.85D-03
 Coeff-Com:  0.100D+01
 Coeff-En:   0.100D+01
 Coeff:      0.100D+01
 Gap=     0.180 Goal=   None    Shift=    0.000
 RMSDP=3.42D-06 MaxDP=1.95D-04 DE= 3.97D-05 OVMax= 7.90D-04

 Cycle  10  Pass 1  IDiag  1:
 RMSU=  1.02D-04    CP:  1.00D+00
 E= -1657.19117922506     Delta-E=       -0.000011223627 Rises=F Damp=F
 DIIS: error= 5.14D-05 at cycle   2 NSaved=   2.
 NSaved= 2 IEnMin= 2 EnMin= -1657.19117922506     IErMin= 2 ErrMin= 5.14D-05
 ErrMax= 5.14D-05 EMaxC= 1.00D-01 BMatC= 2.14D-06 BMatP= 1.34D-05
 IDIUse=1 WtCom= 1.00D+00 WtEn= 0.00D+00
 Coeff-Com:  0.172D+00 0.828D+00
 Coeff:      0.172D+00 0.828D+00
 Gap=     0.180 Goal=   None    Shift=    0.000
 RMSDP=7.30D-06 MaxDP=5.46D-04 DE=-1.12D-05 OVMax= 8.27D-04

 Cycle  11  Pass 1  IDiag  1:
 RMSU=  5.08D-06    CP:  1.00D+00  1.01D+00
 E= -1657.19117506402     Delta-E=        0.000004161047 Rises=F Damp=F
 DIIS: error= 8.98D-05 at cycle   3 NSaved=   3.
 NSaved= 3 IEnMin= 2 EnMin= -1657.19117922506     IErMin= 2 ErrMin= 5.14D-05
 ErrMax= 8.98D-05 EMaxC= 1.00D-01 BMatC= 6.41D-06 BMatP= 2.14D-06
 IDIUse=1 WtCom= 1.00D+00 WtEn= 0.00D+00
 Coeff-Com: -0.409D-02 0.636D+00 0.368D+00
 Coeff:     -0.409D-02 0.636D+00 0.368D+00
 Gap=     0.180 Goal=   None    Shift=    0.000
 RMSDP=4.59D-06 MaxDP=3.80D-04 DE= 4.16D-06 OVMax= 5.73D-04

 Cycle  12  Pass 1  IDiag  1:
 RMSU=  5.48D-07    CP:  1.00D+00  1.01D+00  3.76D-01
 E= -1657.19118131382     Delta-E=       -0.000006249809 Rises=F Damp=F
 DIIS: error= 6.56D-06 at cycle   4 NSaved=   4.
 NSaved= 4 IEnMin= 4 EnMin= -1657.19118131382     IErMin= 4 ErrMin= 6.56D-06
 ErrMax= 6.56D-06 EMaxC= 1.00D-01 BMatC= 4.64D-08 BMatP= 2.14D-06
 IDIUse=1 WtCom= 1.00D+00 WtEn= 0.00D+00
 Coeff-Com: -0.440D-02 0.391D+00 0.231D+00 0.383D+00
 Coeff:     -0.440D-02 0.391D+00 0.231D+00 0.383D+00
 Gap=     0.180 Goal=   None    Shift=    0.000
 RMSDP=4.29D-07 MaxDP=3.23D-05 DE=-6.25D-06 OVMax= 5.19D-05

 Cycle  13  Pass 1  IDiag  1:
 RMSU=  2.06D-07    CP:  1.00D+00  1.01D+00  3.81D-01  5.99D-01
 E= -1657.19118135892     Delta-E=       -0.000000045091 Rises=F Damp=F
 DIIS: error= 1.25D-06 at cycle   5 NSaved=   5.
 NSaved= 5 IEnMin= 5 EnMin= -1657.19118135892     IErMin= 5 ErrMin= 1.25D-06
 ErrMax= 1.25D-06 EMaxC= 1.00D-01 BMatC= 1.75D-09 BMatP= 4.64D-08
 IDIUse=1 WtCom= 1.00D+00 WtEn= 0.00D+00
 Coeff-Com: -0.224D-02 0.183D+00 0.108D+00 0.220D+00 0.491D+00
 Coeff:     -0.224D-02 0.183D+00 0.108D+00 0.220D+00 0.491D+00
 Gap=     0.180 Goal=   None    Shift=    0.000
 RMSDP=1.10D-07 MaxDP=5.33D-06 DE=-4.51D-08 OVMax= 1.29D-05

 Cycle  14  Pass 1  IDiag  1:
 RMSU=  6.46D-08    CP:  1.00D+00  1.01D+00  3.81D-01  6.33D-01  8.12D-01
 E= -1657.19118136050     Delta-E=       -0.000000001586 Rises=F Damp=F
 DIIS: error= 6.66D-07 at cycle   6 NSaved=   6.
 NSaved= 6 IEnMin= 6 EnMin= -1657.19118136050     IErMin= 6 ErrMin= 6.66D-07
 ErrMax= 6.66D-07 EMaxC= 1.00D-01 BMatC= 3.18D-10 BMatP= 1.75D-09
 IDIUse=1 WtCom= 1.00D+00 WtEn= 0.00D+00
 Coeff-Com: -0.678D-03 0.509D-01 0.302D-01 0.745D-01 0.318D+00 0.527D+00
 Coeff:     -0.678D-03 0.509D-01 0.302D-01 0.745D-01 0.318D+00 0.527D+00
 Gap=     0.180 Goal=   None    Shift=    0.000
 RMSDP=4.18D-08 MaxDP=2.18D-06 DE=-1.59D-09 OVMax= 4.89D-06

 Cycle  15  Pass 1  IDiag  1:
 RMSU=  1.86D-08    CP:  1.00D+00  1.01D+00  3.81D-01  6.34D-01  8.61D-01
                    CP:  6.85D-01
 E= -1657.19118136073     Delta-E=       -0.000000000230 Rises=F Damp=F
 DIIS: error= 1.99D-07 at cycle   7 NSaved=   7.
 NSaved= 7 IEnMin= 7 EnMin= -1657.19118136073     IErMin= 7 ErrMin= 1.99D-07
 ErrMax= 1.99D-07 EMaxC= 1.00D-01 BMatC= 4.82D-11 BMatP= 3.18D-10
 IDIUse=1 WtCom= 1.00D+00 WtEn= 0.00D+00
 Coeff-Com: -0.124D-03 0.677D-02 0.409D-02 0.164D-01 0.137D+00 0.340D+00
 Coeff-Com:  0.496D+00
 Coeff:     -0.124D-03 0.677D-02 0.409D-02 0.164D-01 0.137D+00 0.340D+00
 Coeff:      0.496D+00
 Gap=     0.180 Goal=   None    Shift=    0.000
 RMSDP=1.64D-08 MaxDP=1.09D-06 DE=-2.30D-10 OVMax= 1.80D-06

 Cycle  16  Pass 1  IDiag  1:
 RMSU=  8.53D-09    CP:  1.00D+00  1.01D+00  3.81D-01  6.35D-01  8.67D-01
                    CP:  7.20D-01  6.08D-01
 E= -1657.19118136084     Delta-E=       -0.000000000112 Rises=F Damp=F
 DIIS: error= 6.85D-08 at cycle   8 NSaved=   8.
 NSaved= 8 IEnMin= 8 EnMin= -1657.19118136084     IErMin= 8 ErrMin= 6.85D-08
 ErrMax= 6.85D-08 EMaxC= 1.00D-01 BMatC= 8.45D-12 BMatP= 4.82D-11
 IDIUse=1 WtCom= 1.00D+00 WtEn= 0.00D+00
 Coeff-Com:  0.230D-04-0.342D-02-0.197D-02-0.928D-03 0.420D-01 0.150D+00
 Coeff-Com:  0.337D+00 0.477D+00
 Coeff:      0.230D-04-0.342D-02-0.197D-02-0.928D-03 0.420D-01 0.150D+00
 Coeff:      0.337D+00 0.477D+00
 Gap=     0.180 Goal=   None    Shift=    0.000
 RMSDP=6.67D-09 MaxDP=3.60D-07 DE=-1.12D-10 OVMax= 7.13D-07

 SCF Done:  E(RB3LYP) =  -1657.19118136     A.U. after   16 cycles
             Convg  =    0.6671D-08             -V/T =  2.0057
 KE= 1.647750291758D+03 PE=-9.902512062527D+03 EE= 3.581514143361D+03
 Leave Link  502 at Sat Sep 10 07:20:21 2022, MaxMem=  209715200 cpu:    6696.2
 (Enter /opt/gaussian/l601.exe)
 Copying SCF densities to generalized density rwf, IOpCl= 0 IROHF=0.

 **********************************************************************

            Population analysis using the SCF density.

 **********************************************************************

 Orbital symmetries:
       Occupied  (A) (A) (A) (A) (A) (A) (A) (A) (A) (A) (A) (A)
                 (A) (A) (A) (A) (A) (A) (A) (A) (A) (A) (A) (A)
                 (A) (A) (A) (A) (A) (A) (A) (A) (A) (A) (A) (A)
                 (A) (A) (A) (A) (A) (A) (A) (A) (A) (A) (A) (A)
                 (A) (A) (A) (A) (A) (A) (A) (A) (A) (A) (A) (A)
                 (A) (A) (A) (A) (A) (A) (A) (A) (A) (A) (A) (A)
                 (A) (A) (A) (A) (A) (A) (A) (A) (A) (A) (A) (A)
                 (A) (A) (A) (A) (A) (A) (A) (A) (A) (A) (A) (A)
                 (A) (A) (A) (A) (A) (A) (A) (A) (A) (A) (A) (A)
                 (A) (A) (A)
       Virtual   (A) (A) (A) (A) (A) (A) (A) (A) (A) (A) (A) (A)
                 (A) (A) (A) (A) (A) (A) (A) (A) (A) (A) (A) (A)
                 (A) (A) (A) (A) (A) (A) (A) (A) (A) (A) (A) (A)
                 (A) (A) (A) (A) (A) (A) (A) (A) (A) (A) (A) (A)
                 (A) (A) (A) (A) (A) (A) (A) (A) (A) (A) (A) (A)
                 (A) (A) (A) (A) (A) (A) (A) (A) (A) (A) (A) (A)
                 (A) (A) (A) (A) (A) (A) (A) (A) (A) (A) (A) (A)
                 (A) (A) (A) (A) (A) (A) (A) (A) (A) (A) (A) (A)
                 (A) (A) (A) (A) (A) (A) (A) (A) (A) (A) (A) (A)
                 (A) (A) (A) (A) (A) (A) (A) (A) (A) (A) (A) (A)
                 (A) (A) (A) (A) (A) (A) (A) (A) (A) (A) (A) (A)
                 (A) (A) (A) (A) (A) (A) (A) (A) (A) (A) (A) (A)
                 (A) (A) (A) (A) (A) (A) (A) (A) (A) (A) (A) (A)
                 (A) (A) (A) (A) (A) (A) (A) (A) (A) (A) (A) (A)
                 (A) (A) (A) (A) (A) (A) (A) (A) (A) (A) (A) (A)
                 (A) (A) (A) (A) (A) (A) (A) (A) (A) (A) (A) (A)
                 (A) (A) (A) (A) (A) (A) (A) (A) (A) (A) (A) (A)
                 (A) (A) (A) (A) (A) (A) (A) (A) (A) (A) (A) (A)
                 (A) (A) (A) (A) (A) (A) (A) (A) (A) (A) (A) (A)
                 (A) (A) (A) (A) (A) (A) (A) (A) (A) (A) (A) (A)
                 (A) (A) (A) (A) (A) (A) (A) (A) (A) (A) (A) (A)
                 (A) (A) (A) (A) (A) (A) (A) (A) (A) (A) (A) (A)
                 (A) (A) (A) (A) (A) (A) (A) (A) (A) (A) (A) (A)
                 (A) (A) (A) (A) (A) (A) (A) (A) (A) (A) (A) (A)
                 (A) (A) (A) (A) (A) (A) (A) (A) (A) (A) (A) (A)
                 (A) (A) (A) (A) (A) (A) (A) (A) (A) (A) (A) (A)
                 (A) (A) (A) (A) (A) (A) (A) (A) (A) (A) (A) (A)
                 (A) (A) (A) (A) (A) (A) (A) (A) (A) (A) (A) (A)
                 (A) (A) (A) (A) (A) (A) (A) (A) (A) (A) (A) (A)
                 (A) (A) (A) (A) (A) (A) (A) (A) (A) (A) (A) (A)
                 (A) (A) (A) (A) (A) (A) (A) (A) (A) (A) (A) (A)
                 (A) (A) (A) (A) (A) (A) (A) (A) (A) (A) (A) (A)
                 (A) (A) (A) (A) (A) (A) (A) (A) (A) (A) (A) (A)
                 (A) (A) (A) (A) (A) (A) (A) (A) (A) (A) (A) (A)
                 (A) (A) (A) (A) (A) (A) (A) (A) (A) (A) (A) (A)
                 (A) (A) (A) (A) (A) (A) (A)
 The electronic state is 1-A.
 Alpha  occ. eigenvalues --  -88.90620 -19.11810 -14.41904 -14.39502 -14.37059
 Alpha  occ. eigenvalues --  -14.35444 -10.30032 -10.25460 -10.24075 -10.23919
 Alpha  occ. eigenvalues --  -10.23237 -10.21816 -10.21511 -10.21323 -10.21246
 Alpha  occ. eigenvalues --  -10.21018 -10.20845 -10.20818 -10.20816 -10.20684
 Alpha  occ. eigenvalues --  -10.20650 -10.20569 -10.20519 -10.20235 -10.20094
 Alpha  occ. eigenvalues --  -10.20062 -10.20041 -10.19994 -10.19975 -10.19680
 Alpha  occ. eigenvalues --  -10.19350  -7.96830  -5.93146  -5.92770  -5.92481
 Alpha  occ. eigenvalues --   -1.10006  -1.04870  -0.95400  -0.92773  -0.88067
 Alpha  occ. eigenvalues --   -0.87689  -0.87157  -0.85563  -0.79000  -0.78514
 Alpha  occ. eigenvalues --   -0.77662  -0.76541  -0.76253  -0.75422  -0.74571
 Alpha  occ. eigenvalues --   -0.73144  -0.72503  -0.68205  -0.65628  -0.64711
 Alpha  occ. eigenvalues --   -0.63409  -0.62962  -0.60792  -0.60524  -0.59663
 Alpha  occ. eigenvalues --   -0.56999  -0.56700  -0.54841  -0.53984  -0.53404
 Alpha  occ. eigenvalues --   -0.53250  -0.51864  -0.50179  -0.49040  -0.48829
 Alpha  occ. eigenvalues --   -0.47907  -0.47423  -0.47282  -0.45592  -0.45319
 Alpha  occ. eigenvalues --   -0.45244  -0.45107  -0.45046  -0.43766  -0.43286
 Alpha  occ. eigenvalues --   -0.42702  -0.42235  -0.41638  -0.41428  -0.39468
 Alpha  occ. eigenvalues --   -0.39178  -0.38939  -0.38444  -0.38025  -0.37432
 Alpha  occ. eigenvalues --   -0.37308  -0.37084  -0.36512  -0.36472  -0.36136
 Alpha  occ. eigenvalues --   -0.35222  -0.34719  -0.34236  -0.33582  -0.31769
 Alpha  occ. eigenvalues --   -0.29317  -0.27442  -0.27102  -0.26707  -0.26324
 Alpha  occ. eigenvalues --   -0.25971  -0.25540  -0.25028  -0.24321  -0.23938
 Alpha  occ. eigenvalues --   -0.23129
 Alpha virt. eigenvalues --   -0.05120  -0.04748  -0.02750  -0.01786  -0.01617
 Alpha virt. eigenvalues --   -0.00069   0.00057   0.01045   0.02648   0.03828
 Alpha virt. eigenvalues --    0.04830   0.05139   0.05674   0.06279   0.07236
 Alpha virt. eigenvalues --    0.07856   0.08332   0.09611   0.09818   0.10114
 Alpha virt. eigenvalues --    0.10314   0.11105   0.11235   0.11588   0.12054
 Alpha virt. eigenvalues --    0.12538   0.13103   0.13385   0.14236   0.14389
 Alpha virt. eigenvalues --    0.15116   0.15233   0.15621   0.16081   0.17058
 Alpha virt. eigenvalues --    0.17227   0.18187   0.18705   0.20600   0.20938
 Alpha virt. eigenvalues --    0.22748   0.23561   0.23792   0.25098   0.25666
 Alpha virt. eigenvalues --    0.26513   0.26756   0.27267   0.27811   0.28634
 Alpha virt. eigenvalues --    0.29075   0.30097   0.30393   0.31027   0.31866
 Alpha virt. eigenvalues --    0.32103   0.32846   0.33412   0.35044   0.36475
 Alpha virt. eigenvalues --    0.37038   0.37744   0.38805   0.38895   0.40388
 Alpha virt. eigenvalues --    0.40723   0.41744   0.42264   0.42730   0.43610
 Alpha virt. eigenvalues --    0.43875   0.44582   0.44727   0.44984   0.45281
 Alpha virt. eigenvalues --    0.45387   0.46090   0.46954   0.47377   0.47701
 Alpha virt. eigenvalues --    0.47720   0.48018   0.48196   0.48603   0.48716
 Alpha virt. eigenvalues --    0.48877   0.49371   0.49658   0.49743   0.49881
 Alpha virt. eigenvalues --    0.50113   0.50313   0.50621   0.50959   0.51263
 Alpha virt. eigenvalues --    0.51580   0.52074   0.52354   0.52799   0.53126
 Alpha virt. eigenvalues --    0.53838   0.54306   0.54711   0.55197   0.55765
 Alpha virt. eigenvalues --    0.56460   0.56936   0.57379   0.57655   0.58289
 Alpha virt. eigenvalues --    0.58558   0.59485   0.59544   0.60406   0.60698
 Alpha virt. eigenvalues --    0.60888   0.61219   0.61845   0.62151   0.63024
 Alpha virt. eigenvalues --    0.63275   0.63775   0.63925   0.64004   0.64315
 Alpha virt. eigenvalues --    0.64676   0.65075   0.65330   0.65612   0.66072
 Alpha virt. eigenvalues --    0.66603   0.67473   0.67585   0.68074   0.68529
 Alpha virt. eigenvalues --    0.68732   0.69341   0.70176   0.70603   0.70819
 Alpha virt. eigenvalues --    0.70940   0.72203   0.72759   0.73432   0.73787
 Alpha virt. eigenvalues --    0.73929   0.74315   0.74847   0.76376   0.78099
 Alpha virt. eigenvalues --    0.78370   0.79420   0.79660   0.81390   0.81783
 Alpha virt. eigenvalues --    0.83074   0.83275   0.84348   0.85567   0.85927
 Alpha virt. eigenvalues --    0.86890   0.86960   0.88054   0.88394   0.88951
 Alpha virt. eigenvalues --    0.89041   0.89825   0.90207   0.91048   0.91636
 Alpha virt. eigenvalues --    0.92092   0.92360   0.92862   0.93446   0.93499
 Alpha virt. eigenvalues --    0.95421   0.95665   0.95936   0.96760   0.97005
 Alpha virt. eigenvalues --    0.97567   0.97985   0.98550   0.98977   0.99510
 Alpha virt. eigenvalues --    0.99835   1.00075   1.00568   1.01055   1.01601
 Alpha virt. eigenvalues --    1.02211   1.02327   1.02883   1.03414   1.03590
 Alpha virt. eigenvalues --    1.03782   1.04128   1.04848   1.05380   1.05561
 Alpha virt. eigenvalues --    1.06139   1.06678   1.07305   1.08064   1.08745
 Alpha virt. eigenvalues --    1.09668   1.10029   1.11143   1.12351   1.13839
 Alpha virt. eigenvalues --    1.14677   1.16081   1.16654   1.17334   1.18981
 Alpha virt. eigenvalues --    1.19015   1.20941   1.21829   1.23324   1.23648
 Alpha virt. eigenvalues --    1.24009   1.24952   1.25768   1.28218   1.30061
 Alpha virt. eigenvalues --    1.30910   1.31570   1.32195   1.32873   1.34004
 Alpha virt. eigenvalues --    1.34369   1.34931   1.35925   1.37293   1.37783
 Alpha virt. eigenvalues --    1.38472   1.40625   1.41410   1.42654   1.44056
 Alpha virt. eigenvalues --    1.44966   1.45276   1.46761   1.47333   1.47712
 Alpha virt. eigenvalues --    1.48102   1.48530   1.49289   1.49718   1.50553
 Alpha virt. eigenvalues --    1.50862   1.51015   1.51482   1.52176   1.53791
 Alpha virt. eigenvalues --    1.54213   1.55439   1.56120   1.56142   1.57041
 Alpha virt. eigenvalues --    1.57817   1.58410   1.58573   1.59458   1.59725
 Alpha virt. eigenvalues --    1.60226   1.60495   1.60914   1.60967   1.61555
 Alpha virt. eigenvalues --    1.61677   1.62219   1.62998   1.63022   1.63937
 Alpha virt. eigenvalues --    1.64045   1.64048   1.64494   1.65416   1.66051
 Alpha virt. eigenvalues --    1.66493   1.67455   1.67816   1.68477   1.69576
 Alpha virt. eigenvalues --    1.69719   1.70279   1.70594   1.71213   1.72111
 Alpha virt. eigenvalues --    1.72471   1.72919   1.73193   1.73836   1.74313
 Alpha virt. eigenvalues --    1.74751   1.75313   1.75804   1.76442   1.77051
 Alpha virt. eigenvalues --    1.77072   1.77236   1.78126   1.79120   1.79454
 Alpha virt. eigenvalues --    1.79933   1.80030   1.80972   1.81756   1.82525
 Alpha virt. eigenvalues --    1.83019   1.83123   1.83602   1.83844   1.84371
 Alpha virt. eigenvalues --    1.84950   1.85640   1.86430   1.86852   1.87236
 Alpha virt. eigenvalues --    1.87527   1.88232   1.89053   1.89271   1.91151
 Alpha virt. eigenvalues --    1.91712   1.92314   1.93456   1.93885   1.94942
 Alpha virt. eigenvalues --    1.95288   1.95951   1.96433   1.96794   1.97262
 Alpha virt. eigenvalues --    1.97368   1.98206   1.98590   1.99179   1.99681
 Alpha virt. eigenvalues --    2.00237   2.00858   2.01203   2.02494   2.03957
 Alpha virt. eigenvalues --    2.04323   2.05286   2.07769   2.08725   2.09191
 Alpha virt. eigenvalues --    2.10375   2.11029   2.12271   2.14181   2.14813
 Alpha virt. eigenvalues --    2.15775   2.16647   2.17573   2.18543   2.20759
 Alpha virt. eigenvalues --    2.20971   2.22160   2.22755   2.23322   2.23936
 Alpha virt. eigenvalues --    2.25966   2.27534   2.29980   2.32451   2.34973
 Alpha virt. eigenvalues --    2.36281   2.37346   2.37468   2.39204   2.39765
 Alpha virt. eigenvalues --    2.40631   2.41106   2.41935   2.42097   2.42246
 Alpha virt. eigenvalues --    2.42762   2.43346   2.43800   2.44863   2.45642
 Alpha virt. eigenvalues --    2.48191   2.50220   2.51502   2.54261   2.55262
 Alpha virt. eigenvalues --    2.56634   2.59201   2.60930   2.61793   2.62762
 Alpha virt. eigenvalues --    2.63450   2.66250   2.67385   2.68151   2.68710
 Alpha virt. eigenvalues --    2.69208   2.69594   2.71116   2.71649   2.72868
 Alpha virt. eigenvalues --    2.73309   2.74677   2.76370   2.78882   2.80921
 Alpha virt. eigenvalues --    2.82026   2.83441   2.86547   2.89707   2.91219
 Alpha virt. eigenvalues --    2.96434   2.96797   2.97908   3.05414   3.07772
 Alpha virt. eigenvalues --    3.11844   3.13945   3.38658   3.46579   3.49548
 Alpha virt. eigenvalues --    3.52802   3.59100
          Condensed to atoms (all electrons):
 Mulliken atomic charges:
              1
     1  O   -0.266612
     2  C    0.125864
     3  C    0.186590
     4  N   -0.252389
     5  N   -0.054130
     6  N   -0.180607
     7  C    0.006682
     8  C    0.208282
     9  C    0.019456
    10  C    0.042107
    11  C    0.036655
    12  C    0.043063
    13  N   -0.233970
    14  C    0.186111
    15  C   -0.033898
    16  C   -0.128835
    17  S    0.142740
    18  C   -0.110379
    19  C    0.054092
    20  C   -0.020409
    21  C    0.080843
    22  C    0.025951
    23  C    0.041361
    24  C    0.030194
    25  C    0.089241
    26  C    0.015832
    27  C    0.012135
    28  C    0.044181
    29  C    0.034495
    30  C    0.043910
    31  C    0.011769
    32  H    0.052715
    33  H    0.043105
    34  H   -0.024544
    35  H   -0.022065
    36  H   -0.024916
    37  H   -0.020879
    38  H    0.008736
    39  H    0.042059
    40  H    0.022118
    41  H    0.010424
    42  H   -0.028192
    43  H   -0.028008
    44  H   -0.032487
    45  H   -0.028737
    46  H   -0.020017
    47  H   -0.037514
    48  H   -0.027027
    49  H   -0.028111
    50  H   -0.026737
    51  H   -0.030250
 Sum of Mulliken atomic charges =   0.00000
 Mulliken charges with hydrogens summed into heavy atoms:
              1
     1  O   -0.266612
     2  C    0.125864
     3  C    0.282410
     4  N   -0.252389
     5  N   -0.054130
     6  N   -0.180607
     7  C    0.006682
     8  C    0.208282
     9  C   -0.005088
    10  C    0.020043
    11  C    0.011739
    12  C    0.022184
    13  N   -0.233970
    14  C    0.236906
    15  C   -0.033898
    16  C   -0.106716
    17  S    0.142740
    18  C   -0.099955
    19  C    0.025901
    20  C   -0.020409
    21  C    0.052835
    22  C   -0.006536
    23  C    0.041361
    24  C    0.001457
    25  C    0.069224
    26  C    0.015832
    27  C   -0.025379
    28  C    0.017154
    29  C    0.006384
    30  C    0.017173
    31  C   -0.018481
 Sum of Mulliken charges with hydrogens summed into heavy atoms =   0.00000
 Electronic spatial extent (au):  <R**2>=          14841.8036
 Charge=              0.0000 electrons
 Dipole moment (field-independent basis, Debye):
    X=              3.4384    Y=              3.8173    Z=              2.4327  Tot=              5.6844
 Quadrupole moment (field-independent basis, Debye-Ang):
   XX=           -181.2918   YY=           -189.9199   ZZ=           -181.5537
   XY=             -5.9032   XZ=              0.1526   YZ=             -6.1634
 Traceless Quadrupole moment (field-independent basis, Debye-Ang):
   XX=              2.9633   YY=             -5.6648   ZZ=              2.7014
   XY=             -5.9032   XZ=              0.1526   YZ=             -6.1634
 Octapole moment (field-independent basis, Debye-Ang**2):
  XXX=            123.3145  YYY=             94.7779  ZZZ=             11.6590  XYY=             12.4567
  XXY=             21.4911  XXZ=             -4.3657  XZZ=            -11.4655  YZZ=             -8.6349
  YYZ=             45.8966  XYZ=              3.7041
 Hexadecapole moment (field-independent basis, Debye-Ang**3):
 XXXX=         -12080.4451 YYYY=          -6983.7303 ZZZZ=          -1101.3238 XXXY=              3.1094
 XXXZ=           -123.9966 YYYX=             38.6912 YYYZ=             23.0908 ZZZX=             10.2469
 ZZZY=            -28.2794 XXYY=          -3025.8804 XXZZ=          -2268.0030 YYZZ=          -1435.9842
 XXYZ=             39.0956 YYXZ=             16.2475 ZZXY=             -6.7433
 N-N= 3.016056446047D+03 E-N=-9.902512101638D+03  KE= 1.647750291758D+03
 No NMR shielding tensors so no spin-rotation constants.
 Leave Link  601 at Sat Sep 10 07:20:22 2022, MaxMem=  209715200 cpu:       4.2
 (Enter /opt/gaussian/l602.exe)
 Breneman (CHELPG) radii used.
 Read replacement radii for each type of atom:
 Rad(35) =   1.900000000000D+00
 Atom Element Radius
    1     8    1.70
    2     6    1.50
    3     6    1.50
    4     7    1.70
    5     7    1.70
    6     7    1.70
    7     6    1.50
    8     6    1.50
    9     6    1.50
   10     6    1.50
   11     6    1.50
   12     6    1.50
   13     7    1.70
   14     6    1.50
   15     6    1.50
   16     6    1.50
   17    16    2.00
   18     6    1.50
   19     6    1.50
   20     6    1.50
   21     6    1.50
   22     6    1.50
   23     6    1.50
   24     6    1.50
   25     6    1.50
   26     6    1.50
   27     6    1.50
   28     6    1.50
   29     6    1.50
   30     6    1.50
   31     6    1.50
   32     1    1.45
   33     1    1.45
   34     1    1.45
   35     1    1.45
   36     1    1.45
   37     1    1.45
   38     1    1.45
   39     1    1.45
   40     1    1.45
   41     1    1.45
   42     1    1.45
   43     1    1.45
   44     1    1.45
   45     1    1.45
   46     1    1.45
   47     1    1.45
   48     1    1.45
   49     1    1.45
   50     1    1.45
   51     1    1.45
 Generate Potential Derived Charges using the Breneman model, NDens= 1.
 Grid spacing= 0.300 Box extension= 2.800
 NStep X,Y,Z=   60     52     37   Total possible points=      115440
 Number of Points to Fit=   28551

 **********************************************************************

            Electrostatic Properties Using The SCF Density

 **********************************************************************

       Atomic Center    1 is at  -3.283508 -2.453473  0.271870
       Atomic Center    2 is at  -2.193539 -1.897362  0.234510
       Atomic Center    3 is at  -1.027368 -2.485231  1.049320
       Atomic Center    4 is at   0.151352 -2.797170  0.258530
       Atomic Center    5 is at   0.019672 -3.297311 -1.004070
       Atomic Center    6 is at   1.187532 -3.560780 -1.488970
       Atomic Center    7 is at   2.135132 -3.250719 -0.533520
       Atomic Center    8 is at   1.474172 -2.755480  0.611070
       Atomic Center    9 is at   2.172611 -2.354049  1.762560
       Atomic Center   10 is at   3.556802 -2.464958  1.715330
       Atomic Center   11 is at   4.232762 -2.958908  0.570120
       Atomic Center   12 is at   3.537202 -3.356328 -0.563360
       Atomic Center   13 is at  -1.968210 -0.758632 -0.496640
       Atomic Center   14 is at  -3.079880 -0.267683 -1.342200
       Atomic Center   15 is at  -4.023761  0.677937 -0.634130
       Atomic Center   16 is at  -5.030030  0.264196  0.207810
       Atomic Center   17 is at  -5.922661  1.602305  0.858790
       Atomic Center   18 is at  -4.938482  2.742266 -0.009730
       Atomic Center   19 is at  -3.978362  2.107737 -0.752860
       Atomic Center   20 is at  -0.788060  0.049259 -0.391380
       Atomic Center   21 is at  -0.603011  0.896709  0.708730
       Atomic Center   22 is at   0.535229  1.700680  0.794730
       Atomic Center   23 is at   1.508239  1.694500 -0.220890
       Atomic Center   24 is at   1.297929  0.850550 -1.328590
       Atomic Center   25 is at   0.169010  0.037840 -1.415020
       Atomic Center   26 is at   2.721078  2.549661 -0.127120
       Atomic Center   27 is at   2.649467  3.852431  0.400490
       Atomic Center   28 is at   3.789106  4.654182  0.489100
       Atomic Center   29 is at   5.026207  4.170923  0.052670
       Atomic Center   30 is at   5.112788  2.878453 -0.473140
       Atomic Center   31 is at   3.973258  2.076572 -0.562230
       Atomic Center   32 is at  -1.429258 -3.393942  1.518950
       Atomic Center   33 is at  -0.722149 -1.782981  1.838140
       Atomic Center   34 is at   1.663731 -1.974309  2.649740
       Atomic Center   35 is at   4.143501 -2.164618  2.586200
       Atomic Center   36 is at   5.322272 -3.027957  0.589260
       Atomic Center   37 is at   4.043652 -3.740818 -1.449960
       Atomic Center   38 is at  -2.627510  0.232078 -2.209870
       Atomic Center   39 is at  -3.622399 -1.154963 -1.691160
       Atomic Center   40 is at  -5.274210 -0.759794  0.481790
       Atomic Center   41 is at  -5.132193  3.809476  0.075630
       Atomic Center   42 is at  -3.257152  2.637487 -1.377220
       Atomic Center   43 is at  -1.358231  0.923188  1.496790
       Atomic Center   44 is at   0.676628  2.332680  1.673630
       Atomic Center   45 is at   2.025439  0.838411 -2.142170
       Atomic Center   46 is at   0.029580 -0.626571 -2.269250
       Atomic Center   47 is at   1.684637  4.251521  0.720910
       Atomic Center   48 is at   3.708016  5.665792  0.893570
       Atomic Center   49 is at   5.917636  4.798284  0.121610
       Atomic Center   50 is at   6.075878  2.487394 -0.809340
       Atomic Center   51 is at   4.059369  1.058722 -0.948400
   28551 points will be used for fitting atomic charges
 Fitting point charges to electrostatic potential
 Charges from ESP fit, RMS=   0.00426 RRMS=   0.31511:
 Charge=   0.00000 Dipole=     3.3366     3.8104     2.3252 Tot=     5.5730
              1
     1  O   -0.484660
     2  C    0.452507
     3  C   -0.053442
     4  N    0.247467
     5  N   -0.188946
     6  N   -0.369185
     7  C    0.420348
     8  C   -0.053413
     9  C   -0.209382
    10  C   -0.064322
    11  C   -0.055730
    12  C   -0.247811
    13  N   -0.292367
    14  C    0.157811
    15  C    0.103290
    16  C   -0.255412
    17  S    0.012987
    18  C   -0.157628
    19  C   -0.171890
    20  C    0.205825
    21  C   -0.103163
    22  C   -0.143674
    23  C    0.051149
    24  C   -0.139659
    25  C   -0.123040
    26  C    0.080973
    27  C   -0.134288
    28  C   -0.046758
    29  C   -0.115641
    30  C   -0.048147
    31  C   -0.117421
    32  H    0.069014
    33  H    0.052259
    34  H    0.124543
    35  H    0.084181
    36  H    0.086186
    37  H    0.127949
    38  H    0.008334
    39  H    0.010051
    40  H    0.211151
    41  H    0.157578
    42  H    0.094527
    43  H    0.089365
    44  H    0.095199
    45  H    0.101370
    46  H    0.129392
    47  H    0.088049
    48  H    0.077588
    49  H    0.087632
    50  H    0.083163
    51  H    0.066092
 Charges from ESP fit with hydrogens summed into heavy atoms:
              1
     1  O   -0.484660
     2  C    0.452507
     3  C    0.067831
     4  N    0.247467
     5  N   -0.188946
     6  N   -0.369185
     7  C    0.420348
     8  C   -0.053413
     9  C   -0.084839
    10  C    0.019859
    11  C    0.030456
    12  C   -0.119862
    13  N   -0.292367
    14  C    0.176196
    15  C    0.103290
    16  C   -0.044261
    17  S    0.012987
    18  C   -0.000051
    19  C   -0.077363
    20  C    0.205825
    21  C   -0.013798
    22  C   -0.048475
    23  C    0.051149
    24  C   -0.038290
    25  C    0.006352
    26  C    0.080973
    27  C   -0.046238
    28  C    0.030830
    29  C   -0.028009
    30  C    0.035016
    31  C   -0.051330
    32  H    0.000000
    33  H    0.000000
    34  H    0.000000
    35  H    0.000000
    36  H    0.000000
    37  H    0.000000
    38  H    0.000000
    39  H    0.000000
    40  H    0.000000
    41  H    0.000000
    42  H    0.000000
    43  H    0.000000
    44  H    0.000000
    45  H    0.000000
    46  H    0.000000
    47  H    0.000000
    48  H    0.000000
    49  H    0.000000
    50  H    0.000000
    51  H    0.000000
 -----------------------------------------------------------------

              Electrostatic Properties (Atomic Units)

 -----------------------------------------------------------------
    Center     Electric         -------- Electric Field --------
               Potential          X             Y             Z
 -----------------------------------------------------------------
    1 Atom    -22.371389
    2 Atom    -14.641999
    3 Atom    -14.685438
    4 Atom    -18.285682
    5 Atom    -18.325374
    6 Atom    -18.362442
    7 Atom    -14.729874
    8 Atom    -14.706852
    9 Atom    -14.732931
   10 Atom    -14.737914
   11 Atom    -14.743510
   12 Atom    -14.740066
   13 Atom    -18.331655
   14 Atom    -14.706687
   15 Atom    -14.749485
   16 Atom    -14.739519
   17 Atom    -59.190171
   18 Atom    -14.733564
   19 Atom    -14.753106
   20 Atom    -14.703544
   21 Atom    -14.739295
   22 Atom    -14.740266
   23 Atom    -14.731315
   24 Atom    -14.741836
   25 Atom    -14.742318
   26 Atom    -14.736064
   27 Atom    -14.746474
   28 Atom    -14.745981
   29 Atom    -14.746584
   30 Atom    -14.746262
   31 Atom    -14.747204
   32 Atom     -1.075663
   33 Atom     -1.056790
   34 Atom     -1.071576
   35 Atom     -1.084351
   36 Atom     -1.087624
   37 Atom     -1.081649
   38 Atom     -1.091521
   39 Atom     -1.096806
   40 Atom     -1.076290
   41 Atom     -1.067838
   42 Atom     -1.083468
   43 Atom     -1.077596
   44 Atom     -1.081765
   45 Atom     -1.084554
   46 Atom     -1.082473
   47 Atom     -1.087263
   48 Atom     -1.088049
   49 Atom     -1.088075
   50 Atom     -1.088443
   51 Atom     -1.088679
 -----------------------------------------------------------------
 Leave Link  602 at Sat Sep 10 07:20:37 2022, MaxMem=  209715200 cpu:     116.6
 (Enter /opt/gaussian/l9999.exe)
 1\1\GINC-LQCAPF-6\SP\RB3LYP\CC-pVDZ\C25H20N4O1S1\LQCAPF-6\10-Sep-2022\
 0\\#p b3lyp/cc-pvdz pop=(chelpg,readradii)\\Mol07.log\\0,1\O,0,-3.2835
 1,-2.45347,0.27187\C,0,-2.19354,-1.89736,0.23451\C,0,-1.02737,-2.48523
 ,1.04932\N,0,0.15135,-2.79717,0.25853\N,0,0.01967,-3.29731,-1.00407\N,
 0,1.18753,-3.56078,-1.48897\C,0,2.13513,-3.25072,-0.53352\C,0,1.47417,
 -2.75548,0.61107\C,0,2.17261,-2.35405,1.76256\C,0,3.5568,-2.46496,1.71
 533\C,0,4.23276,-2.95891,0.57012\C,0,3.5372,-3.35633,-0.56336\N,0,-1.9
 6821,-0.75863,-0.49664\C,0,-3.07988,-0.26768,-1.3422\C,0,-4.02376,0.67
 794,-0.63413\C,0,-5.03003,0.2642,0.20781\S,0,-5.92266,1.60231,0.85879\
 C,0,-4.93848,2.74227,-0.00973\C,0,-3.97836,2.10774,-0.75286\C,0,-0.788
 06,0.04926,-0.39138\C,0,-0.60301,0.89671,0.70873\C,0,0.53523,1.70068,0
 .79473\C,0,1.50824,1.6945,-0.22089\C,0,1.29793,0.85055,-1.32859\C,0,0.
 16901,0.03784,-1.41502\C,0,2.72108,2.54966,-0.12712\C,0,2.64947,3.8524
 3,0.40049\C,0,3.78911,4.65418,0.4891\C,0,5.02621,4.17092,0.05267\C,0,5
 .11279,2.87845,-0.47314\C,0,3.97326,2.07657,-0.56223\H,0,-1.42926,-3.3
 9394,1.51895\H,0,-0.72215,-1.78298,1.83814\H,0,1.66373,-1.97431,2.6497
 4\H,0,4.1435,-2.16462,2.5862\H,0,5.32227,-3.02796,0.58926\H,0,4.04365,
 -3.74082,-1.44996\H,0,-2.62751,0.23208,-2.20987\H,0,-3.6224,-1.15496,-
 1.69116\H,0,-5.27421,-0.75979,0.48179\H,0,-5.13219,3.80948,0.07563\H,0
 ,-3.25715,2.63749,-1.37722\H,0,-1.35823,0.92319,1.49679\H,0,0.67663,2.
 33268,1.67363\H,0,2.02544,0.83841,-2.14217\H,0,0.02958,-0.62657,-2.269
 25\H,0,1.68464,4.25152,0.72091\H,0,3.70802,5.66579,0.89357\H,0,5.91764
 ,4.79828,0.12161\H,0,6.07588,2.48739,-0.80934\H,0,4.05937,1.05872,-0.9
 484\\Version=EM64L-G09RevC.01\State=1-A\HF=-1657.1911814\RMSD=6.671e-0
 9\Dipole=1.3527685,1.50186,0.9570837\Quadrupole=2.2031535,-4.2116075,2
 .008454,-4.3888964,0.1134538,-4.5823117\PG=C01 [X(C25H20N4O1S1)]\\@


 ... IT IS NO ONE DREAME THAT
     CAN PLEASE THESE ALL ...

                -- BEN JONSON
 Job cpu time:  0 days  1 hours 54 minutes 16.8 seconds.
 File lengths (MBytes):  RWF=    160 Int=      0 D2E=      0 Chk=     11 Scr=      1
 Normal termination of Gaussian 09 at Sat Sep 10 07:20:37 2022.
