 Entering Gaussian System, Link 0=g09
 Input=Mol09.gjf
 Output=Mol09.log
 Initial command:
 /opt/gaussian/l1.exe /home/scr/lqcapf-6/Gau-544513.inp -scrdir=/home/scr/lqcapf-6/
 Entering Link 1 = /opt/gaussian/l1.exe PID=    544515.
  
 Copyright (c) 1988,1990,1992,1993,1995,1998,2003,2009,2011,
            Gaussian, Inc.  All Rights Reserved.
  
 This is part of the Gaussian(R) 09 program.  It is based on
 the Gaussian(R) 03 system (copyright 2003, Gaussian, Inc.),
 the Gaussian(R) 98 system (copyright 1998, Gaussian, Inc.),
 the Gaussian(R) 94 system (copyright 1995, Gaussian, Inc.),
 the Gaussian 92(TM) system (copyright 1992, Gaussian, Inc.),
 the Gaussian 90(TM) system (copyright 1990, Gaussian, Inc.),
 the Gaussian 88(TM) system (copyright 1988, Gaussian, Inc.),
 the Gaussian 86(TM) system (copyright 1986, Carnegie Mellon
 University), and the Gaussian 82(TM) system (copyright 1983,
 Carnegie Mellon University). Gaussian is a federally registered
 trademark of Gaussian, Inc.
  
 This software contains proprietary and confidential information,
 including trade secrets, belonging to Gaussian, Inc.
  
 This software is provided under written license and may be
 used, copied, transmitted, or stored only in accord with that
 written license.
  
 The following legend is applicable only to US Government
 contracts under FAR:
  
                    RESTRICTED RIGHTS LEGEND
  
 Use, reproduction and disclosure by the US Government is
 subject to restrictions as set forth in subparagraphs (a)
 and (c) of the Commercial Computer Software - Restricted
 Rights clause in FAR 52.227-19.
  
 Gaussian, Inc.
 340 Quinnipiac St., Bldg. 40, Wallingford CT 06492
  
  
 ---------------------------------------------------------------
 Warning -- This program may not be used in any manner that
 competes with the business of Gaussian, Inc. or will provide
 assistance to any competitor of Gaussian, Inc.  The licensee
 of this program is prohibited from giving any competitor of
 Gaussian, Inc. access to this program.  By using this program,
 the user acknowledges that Gaussian, Inc. is engaged in the
 business of creating and licensing software in the field of
 computational chemistry and represents and warrants to the
 licensee that it is not a competitor of Gaussian, Inc. and that
 it will not use this program in any manner prohibited above.
 ---------------------------------------------------------------
  

 Cite this work as:
 Gaussian 09, Revision C.01,
 M. J. Frisch, G. W. Trucks, H. B. Schlegel, G. E. Scuseria, 
 M. A. Robb, J. R. Cheeseman, G. Scalmani, V. Barone, B. Mennucci, 
 G. A. Petersson, H. Nakatsuji, M. Caricato, X. Li, H. P. Hratchian, 
 A. F. Izmaylov, J. Bloino, G. Zheng, J. L. Sonnenberg, M. Hada, 
 M. Ehara, K. Toyota, R. Fukuda, J. Hasegawa, M. Ishida, T. Nakajima, 
 Y. Honda, O. Kitao, H. Nakai, T. Vreven, J. A. Montgomery, Jr., 
 J. E. Peralta, F. Ogliaro, M. Bearpark, J. J. Heyd, E. Brothers, 
 K. N. Kudin, V. N. Staroverov, T. Keith, R. Kobayashi, J. Normand, 
 K. Raghavachari, A. Rendell, J. C. Burant, S. S. Iyengar, J. Tomasi, 
 M. Cossi, N. Rega, J. M. Millam, M. Klene, J. E. Knox, J. B. Cross, 
 V. Bakken, C. Adamo, J. Jaramillo, R. Gomperts, R. E. Stratmann, 
 O. Yazyev, A. J. Austin, R. Cammi, C. Pomelli, J. W. Ochterski, 
 R. L. Martin, K. Morokuma, V. G. Zakrzewski, G. A. Voth, 
 P. Salvador, J. J. Dannenberg, S. Dapprich, A. D. Daniels, 
 O. Farkas, J. B. Foresman, J. V. Ortiz, J. Cioslowski, 
 and D. J. Fox, Gaussian, Inc., Wallingford CT, 2010.
 
 ******************************************
 Gaussian 09:  EM64L-G09RevC.01 23-Sep-2011
                10-Sep-2022 
 ******************************************
 %nprocshared=8
 Will use up to    8 processors via shared memory.
 %mem=1600MB
 ---------------------------------------
 #p b3lyp/cc-pvdz pop=(chelpg,readradii)
 ---------------------------------------
 1/38=1/1;
 2/12=2,17=6,18=5,40=1/2;
 3/5=16,11=2,16=1,25=1,30=1,74=-5/1,2,3;
 4//1;
 5/5=2,38=5/2;
 6/7=2,8=2,9=2,10=2,15=8,20=103,28=1/1,2;
 99/5=1,9=1/99;
 Leave Link    1 at Sat Sep 10 07:35:45 2022, MaxMem=  209715200 cpu:       0.2
 (Enter /opt/gaussian/l101.exe)
 ---------
 Mol09.log
 ---------
 Charge =  0 Multiplicity = 1
 Symbolic Z-Matrix:
 O                     0.18414  -1.74895  -0.08896 
 C                     0.07046  -0.53835  -0.26921 
 C                     1.03616   0.17303  -1.22956 
 N                     2.35548   0.32295  -0.63762 
 N                     2.82378   1.57501  -0.34525 
 N                     4.02285   1.48857   0.12285 
 C                     4.38648   0.15653   0.1473 
 C                     5.58526  -0.45925   0.55104 
 C                     5.65822  -1.84092   0.44848 
 C                     4.56426  -2.60487  -0.03506 
 C                     3.36998  -2.01729  -0.43248 
 C                     3.30941  -0.61564  -0.33893 
 N                    -0.87645   0.21163   0.37592 
 C                    -1.75226  -0.48907   1.34614 
 C                    -2.99871  -1.09543   0.74238 
 C                    -4.30701  -0.51057   0.82696 
 C                    -5.27224  -1.25417   0.20053 
 S                    -4.60209  -2.69174  -0.51043 
 C                    -3.01109  -2.28272   0.04734 
 C                    -1.10269   1.61428   0.14859 
 C                    -0.31027   2.56848   0.79981 
 C                    -0.55546   3.92952   0.60062 
 C                    -1.59639   4.34194  -0.23644 
 C                    -2.39021   3.38903  -0.88235 
 C                    -2.14554   2.02588  -0.69355 
 H                     1.11218  -0.45961  -2.12656 
 H                     0.71192   1.17828  -1.51707 
 H                     6.41593   0.14024   0.92648 
 H                     6.57105  -2.35837   0.75091 
 H                     4.66215  -3.6917   -0.08539 
 H                     2.5109   -2.60043  -0.76144 
 H                    -1.13865  -1.27397   1.80636 
 H                    -2.02365   0.24437   2.11729 
 H                    -4.5152    0.42761   1.34375 
 H                    -6.33775  -1.04918   0.12017 
 H                    -2.15922  -2.92396  -0.16841 
 H                     0.50979   2.24093   1.43978 
 H                     0.07508   4.66852   1.09899 
 H                    -1.78602   5.40657  -0.38961 
 H                    -3.20165   3.706    -1.54117 
 H                    -2.75628   1.2746   -1.19639 
 
 NAtoms=     41 NQM=        0 NQMF=       0 NMMI=     41 NMMIF=      0
                NMic=       0 NMicF=      0.
                    Isotopes and Nuclear Properties:
 (Nuclear quadrupole moments (NQMom) in fm**2, nuclear magnetic moments (NMagM)
  in nuclear magnetons)

  Atom         1           2           3           4           5           6           7           8           9          10
 IAtWgt=          16          12          12          14          14          14          12          12          12          12
 AtmWgt=  15.9949146  12.0000000  12.0000000  14.0030740  14.0030740  14.0030740  12.0000000  12.0000000  12.0000000  12.0000000
 NucSpn=           0           0           0           2           2           2           0           0           0           0
 AtZEff=   0.0000000   0.0000000   0.0000000   0.0000000   0.0000000   0.0000000   0.0000000   0.0000000   0.0000000   0.0000000
 NQMom=    0.0000000   0.0000000   0.0000000   2.0440000   2.0440000   2.0440000   0.0000000   0.0000000   0.0000000   0.0000000
 NMagM=    0.0000000   0.0000000   0.0000000   0.4037610   0.4037610   0.4037610   0.0000000   0.0000000   0.0000000   0.0000000

  Atom        11          12          13          14          15          16          17          18          19          20
 IAtWgt=          12          12          14          12          12          12          12          32          12          12
 AtmWgt=  12.0000000  12.0000000  14.0030740  12.0000000  12.0000000  12.0000000  12.0000000  31.9720718  12.0000000  12.0000000
 NucSpn=           0           0           2           0           0           0           0           0           0           0
 AtZEff=   0.0000000   0.0000000   0.0000000   0.0000000   0.0000000   0.0000000   0.0000000   0.0000000   0.0000000   0.0000000
 NQMom=    0.0000000   0.0000000   2.0440000   0.0000000   0.0000000   0.0000000   0.0000000   0.0000000   0.0000000   0.0000000
 NMagM=    0.0000000   0.0000000   0.4037610   0.0000000   0.0000000   0.0000000   0.0000000   0.0000000   0.0000000   0.0000000

  Atom        21          22          23          24          25          26          27          28          29          30
 IAtWgt=          12          12          12          12          12           1           1           1           1           1
 AtmWgt=  12.0000000  12.0000000  12.0000000  12.0000000  12.0000000   1.0078250   1.0078250   1.0078250   1.0078250   1.0078250
 NucSpn=           0           0           0           0           0           1           1           1           1           1
 AtZEff=   0.0000000   0.0000000   0.0000000   0.0000000   0.0000000   0.0000000   0.0000000   0.0000000   0.0000000   0.0000000
 NQMom=    0.0000000   0.0000000   0.0000000   0.0000000   0.0000000   0.0000000   0.0000000   0.0000000   0.0000000   0.0000000
 NMagM=    0.0000000   0.0000000   0.0000000   0.0000000   0.0000000   2.7928460   2.7928460   2.7928460   2.7928460   2.7928460

  Atom        31          32          33          34          35          36          37          38          39          40
 IAtWgt=           1           1           1           1           1           1           1           1           1           1
 AtmWgt=   1.0078250   1.0078250   1.0078250   1.0078250   1.0078250   1.0078250   1.0078250   1.0078250   1.0078250   1.0078250
 NucSpn=           1           1           1           1           1           1           1           1           1           1
 AtZEff=   0.0000000   0.0000000   0.0000000   0.0000000   0.0000000   0.0000000   0.0000000   0.0000000   0.0000000   0.0000000
 NQMom=    0.0000000   0.0000000   0.0000000   0.0000000   0.0000000   0.0000000   0.0000000   0.0000000   0.0000000   0.0000000
 NMagM=    2.7928460   2.7928460   2.7928460   2.7928460   2.7928460   2.7928460   2.7928460   2.7928460   2.7928460   2.7928460

  Atom        41
 IAtWgt=           1
 AtmWgt=   1.0078250
 NucSpn=           1
 AtZEff=   0.0000000
 NQMom=    0.0000000
 NMagM=    2.7928460
 Leave Link  101 at Sat Sep 10 07:35:45 2022, MaxMem=  209715200 cpu:       0.7
 (Enter /opt/gaussian/l202.exe)
                          Input orientation:                          
 ---------------------------------------------------------------------
 Center     Atomic      Atomic             Coordinates (Angstroms)
 Number     Number       Type             X           Y           Z
 ---------------------------------------------------------------------
      1          8           0        0.184140   -1.748950   -0.088960
      2          6           0        0.070460   -0.538350   -0.269210
      3          6           0        1.036160    0.173030   -1.229560
      4          7           0        2.355480    0.322950   -0.637620
      5          7           0        2.823780    1.575010   -0.345250
      6          7           0        4.022850    1.488570    0.122850
      7          6           0        4.386480    0.156530    0.147300
      8          6           0        5.585260   -0.459250    0.551040
      9          6           0        5.658220   -1.840920    0.448480
     10          6           0        4.564260   -2.604870   -0.035060
     11          6           0        3.369980   -2.017290   -0.432480
     12          6           0        3.309410   -0.615640   -0.338930
     13          7           0       -0.876450    0.211630    0.375920
     14          6           0       -1.752260   -0.489070    1.346140
     15          6           0       -2.998710   -1.095430    0.742380
     16          6           0       -4.307010   -0.510570    0.826960
     17          6           0       -5.272240   -1.254170    0.200530
     18         16           0       -4.602090   -2.691740   -0.510430
     19          6           0       -3.011090   -2.282720    0.047340
     20          6           0       -1.102690    1.614280    0.148590
     21          6           0       -0.310270    2.568480    0.799810
     22          6           0       -0.555460    3.929520    0.600620
     23          6           0       -1.596390    4.341940   -0.236440
     24          6           0       -2.390210    3.389030   -0.882350
     25          6           0       -2.145540    2.025880   -0.693550
     26          1           0        1.112180   -0.459610   -2.126560
     27          1           0        0.711920    1.178280   -1.517070
     28          1           0        6.415930    0.140240    0.926480
     29          1           0        6.571050   -2.358370    0.750910
     30          1           0        4.662150   -3.691700   -0.085390
     31          1           0        2.510900   -2.600430   -0.761440
     32          1           0       -1.138650   -1.273970    1.806360
     33          1           0       -2.023650    0.244370    2.117290
     34          1           0       -4.515200    0.427610    1.343750
     35          1           0       -6.337750   -1.049180    0.120170
     36          1           0       -2.159220   -2.923960   -0.168410
     37          1           0        0.509790    2.240930    1.439780
     38          1           0        0.075080    4.668520    1.098990
     39          1           0       -1.786020    5.406570   -0.389610
     40          1           0       -3.201650    3.706000   -1.541170
     41          1           0       -2.756280    1.274600   -1.196390
 ---------------------------------------------------------------------
                    Distance matrix (angstroms):
                    1          2          3          4          5
     1  O    0.000000
     2  C    1.229213   0.000000
     3  C    2.391843   1.536525   0.000000
     4  N    3.050986   2.469591   1.453779   0.000000
     5  N    4.252305   3.471721   2.437855   1.368371   0.000000
     6  N    5.026141   4.459092   3.532701   2.171890   1.290100
     7  C    4.620209   4.391397   3.622245   2.183748   2.167192
     8  C    5.589725   5.576028   4.925914   3.529338   3.545042
     9  C    5.501168   5.782286   5.313685   4.095124   4.509172
    10  C    4.463290   4.951724   4.646617   3.716708   4.538379
    11  C    3.215523   3.619496   3.298417   2.558909   3.634634
    12  C    3.333795   3.240622   2.565714   1.371185   2.243841
    13  N    2.277024   1.369416   2.497425   3.388957   4.008814
    14  C    2.719642   2.435999   3.853296   4.633380   5.297298
    15  C    3.353915   3.279246   4.666660   5.708200   6.497352
    16  C    4.747939   4.512716   5.765939   6.872301   7.521428
    17  C    5.486410   5.410868   6.624045   7.834023   8.593467
    18  S    4.896375   5.150534   6.365054   7.583687   8.565978
    19  C    3.242373   3.555134   4.903204   6.004895   7.005849
    20  C    3.608833   2.486896   2.924240   3.774202   3.957599
    21  C    4.435601   3.307590   3.416050   3.770256   3.481439
    22  C    5.767803   4.594588   4.471468   4.797307   4.225831
    23  C    6.347518   5.157198   5.029554   5.650708   5.215903
    24  C    5.801343   4.674949   4.712030   5.655291   5.546606
    25  C    4.476860   3.415552   3.720695   4.812721   5.001873
    26  H    2.583693   2.130993   1.100282   2.091683   3.200362
    27  H    3.299504   2.217080   1.094679   2.050929   2.447552
    28  H    6.590551   6.492700   5.795818   4.355117   4.071781
    29  H    6.470656   6.827209   6.400411   5.185414   5.542118
    30  H    4.881277   5.573242   5.421537   4.662950   5.584386
    31  H    2.567306   3.232679   3.175858   2.930126   4.207779
    32  H    2.359580   2.512185   4.005049   4.553256   5.333570
    33  H    3.703404   3.270066   4.535298   5.174213   5.597525
    34  H    5.373441   4.956107   6.124078   7.151435   7.617734
    35  H    6.562657   6.440320   7.595401   8.833416   9.541311
    36  H    2.622651   3.266920   4.574696   5.580779   6.715824
    37  H    4.285118   3.292120   3.417404   3.376508   2.997387
    38  H    6.527407   5.383631   5.153179   5.205768   4.383034
    39  H    7.427879   6.229212   6.005011   6.561762   5.994420
    40  H    6.582474   5.508093   5.526121   6.568343   6.502088
    41  H    4.360542   3.483807   3.949324   5.229527   5.652588
                    6          7          8          9         10
     6  N    0.000000
     7  C    1.380998   0.000000
     8  C    2.533471   1.406863   0.000000
     9  C    3.723704   2.387015   1.387391   0.000000
    10  C    4.132107   2.773119   2.447374   1.419218   0.000000
    11  C    3.609111   2.468787   2.881365   2.458300   1.389064
    12  C    2.269347   1.411647   2.448673   2.763736   2.371502
    13  N    5.069296   5.268181   6.498803   6.849828   6.140269
    14  C    6.225704   6.287937   7.380533   7.586073   6.803143
    15  C    7.507541   7.514157   8.609639   8.693939   7.751215
    16  C    8.595284   8.745498   9.896250  10.060760   9.155796
    17  C    9.691613   9.761341  10.892202  10.949005   9.931597
    18  S    9.605500   9.451965  10.482978  10.340085   9.179079
    19  C    7.981519   7.789992   8.802045   8.689824   7.582645
    20  C    5.127146   5.679439   7.013570   7.598569   7.067480
    21  C    4.516681   5.320031   6.632218   7.428938   7.156927
    22  C    5.210319   6.234078   7.547993   8.481211   8.325495
    23  C    6.312422   7.311610   8.674540   9.556476   9.287213
    24  C    6.763839   7.578441   8.970618   9.690238   9.220054
    25  C    6.245338   6.846078   8.215239   8.783794   8.179173
    26  H    4.162601   4.033746   5.213251   5.404195   4.570926
    27  H    3.707813   4.161309   5.541482   6.119219   5.599027
    28  H    2.861931   2.173949   1.091034   2.174305   3.448024
    29  H    4.656901   3.385471   2.149043   1.092006   2.169267
    30  H    5.223721   3.865102   3.421390   2.168539   1.092390
    31  H    4.448357   3.456073   3.969754   3.456354   2.178058
    32  H    6.091545   5.943557   6.888437   6.954330   6.138836
    33  H    6.487371   6.706590   7.800239   8.132926   7.493420
    34  H    8.689910   8.985816  10.170261  10.461654   9.671279
    35  H   10.666875  10.791829  11.945369  12.026551  11.013541
    36  H    7.600871   7.241221   8.159006   7.916179   6.732368
    37  H    3.826479   4.587369   5.817321   6.644585   6.488117
    38  H    5.162346   6.312839   7.546944   8.600432   8.622123
    39  H    7.025405   8.121019   9.467230  10.423302  10.229122
    40  H    7.738175   8.545723   9.946680  10.640692  10.119526
    41  H    6.909615   7.353544   8.697186   9.122273   8.365960
                   11         12         13         14         15
    11  C    0.000000
    12  C    1.406074   0.000000
    13  N    4.863513   4.326293   0.000000
    14  C    5.633497   5.336289   1.483021   0.000000
    15  C    6.541432   6.418084   2.519263   1.511898   0.000000
    16  C    7.924176   7.705854   3.534650   2.607059   1.435571
    17  C    8.698909   8.622265   4.637057   3.779955   2.342592
    18  S    8.000929   8.181163   4.805785   4.052177   2.586226
    19  C    6.404587   6.548059   3.299460   2.547296   1.375824
    20  C    5.790572   4.967579   1.438850   2.506022   3.360061
    21  C    6.007667   4.953527   2.460688   3.424387   4.544804
    22  C    7.200064   6.039740   3.738480   4.638110   5.589248
    23  C    8.071126   6.975312   4.237070   5.086011   5.699963
    24  C    7.912678   6.987013   3.737724   4.518054   4.808368
    25  C    6.843708   6.071232   2.458833   3.261898   3.540109
    26  H    3.223963   2.836862   3.266132   4.501725   5.053167
    27  H    4.295729   3.369439   2.653440   4.129190   4.903432
    28  H    3.972344   3.438471   7.313482   8.203138   9.497169
    29  H    3.429810   3.855276   7.887381   8.551378   9.652740
    30  H    2.143321   3.369916   6.791530   7.311004   8.131088
    31  H    1.089167   2.180716   4.547022   5.203294   5.906124
    32  H    5.088484   4.982058   2.078922   1.097446   2.150291
    33  H    6.380257   5.934152   2.085548   1.098298   2.153180
    34  H    8.444442   8.071202   3.771451   2.911039   2.231824
    35  H    9.771524   9.667804   5.610780   4.779482   3.396833
    36  H    5.609263   5.938294   3.431285   2.896233   2.208575
    37  H    5.460630   4.377405   2.677969   3.546624   4.891548
    38  H    7.609325   6.360098   4.614337   5.477316   6.542054
    39  H    9.038798   7.888789   5.329236   6.145937   6.710292
    40  H    8.784735   7.906697   4.614370   5.294894   5.320669
    41  H    6.996511   6.410994   2.671296   3.253160   3.071586
                   16         17         18         19         20
    16  C    0.000000
    17  C    1.370045   0.000000
    18  S    2.575497   1.738152   0.000000
    19  C    2.329749   2.488811   1.734845   0.000000
    20  C    3.904208   5.061210   5.587657   4.340375   0.000000
    21  C    5.045316   6.292292   6.914215   5.603105   1.400898
    22  C    5.817195   7.019881   7.839052   6.702847   2.421596
    23  C    5.659075   6.709640   7.653885   6.779973   2.798592
    24  C    4.669341   5.571179   6.481242   5.780879   2.422867
    25  C    3.662988   4.618913   5.322040   4.456695   1.402195
    26  H    6.171993   6.841600   6.344065   5.005090   3.792489
    27  H    5.791058   6.684096   6.650495   5.318525   2.501465
    28  H   10.743133  11.793418  11.466542   9.773041   7.701140
    29  H   11.034144  11.907380  11.249052   9.608233   8.662045
    30  H    9.560220  10.233055   9.327739   7.802657   7.838466
    31  H    7.305780   7.957077   7.118003   5.589941   5.625830
    32  H    3.403015   4.434597   4.401478   2.760029   3.330388
    33  H    2.729216   4.058686   4.708928   3.412611   2.569163
    34  H    1.091145   2.169895   3.629859   3.359898   3.805498
    35  H    2.216655   1.088021   2.471472   3.548745   5.873728
    36  H    3.380564   3.551790   2.477603   1.087851   4.670371
    37  H    5.581027   6.869013   7.366537   5.899059   2.158693
    38  H    6.789675   8.029902   8.867896   7.677900   3.408634
    39  H    6.545837   7.541051   8.574816   7.798519   3.890766
    40  H    4.960778   5.650146   6.629837   6.198745   3.411190
    41  H    3.112160   3.830942   4.428251   3.777078   2.158405
                   21         22         23         24         25
    21  C    0.000000
    22  C    1.397220   0.000000
    23  C    2.423444   1.397961   0.000000
    24  C    2.798056   2.420256   1.398352   0.000000
    25  C    2.427500   2.797691   2.423768   1.397743   0.000000
    26  H    4.444810   5.429825   5.827846   5.350404   4.340958
    27  H    2.888851   3.695969   4.120322   3.861800   3.092198
    28  H    7.152214   7.941354   9.121619   9.559006   8.915094
    29  H    8.463380   9.505119  10.610188  10.770530   9.863420
    30  H    8.043531   9.261590  10.184867  10.025351   8.910961
    31  H    6.092137   7.341527   8.083437   7.740099   6.564281
    32  H    4.057558   5.373102   5.993413   5.526222   4.260562
    33  H    3.173785   4.246905   4.744752   4.361318   3.330084
    34  H    4.749803   5.338085   5.132098   4.270961   3.510035
    35  H    7.062570   7.645467   7.188313   6.023772   5.262391
    36  H    5.875624   7.080511   7.287984   6.357429   4.977638
    37  H    1.090573   2.165706   3.414667   3.888499   3.412934
    38  H    2.155962   1.091822   2.164218   3.411811   3.889460
    39  H    3.412816   2.162524   1.092180   2.162939   3.413312
    40  H    3.890272   3.411678   2.164163   1.092222   2.157923
    41  H    3.412024   3.888631   3.416932   2.168742   1.090996
                   26         27         28         29         30
    26  H    0.000000
    27  H    1.792866   0.000000
    28  H    6.149035   6.291597   0.000000
    29  H    6.456345   7.209787   2.509569   0.000000
    30  H    5.216806   6.432008   4.333981   2.474079   0.000000
    31  H    2.898807   4.252759   5.060593   4.339425   2.505153
    32  H    4.604050   4.525851   7.736010   7.856804   6.563034
    33  H    5.323465   4.643717   8.523813   9.083508   8.065009
    34  H    6.670653   6.005879  10.942865  11.446313  10.160458
    35  H    7.803643   7.572317  12.834376  12.990340  11.314723
    36  H    4.539761   5.185625   9.171767   8.796741   6.864940
    37  H    4.513820   3.148499   6.289584   7.639828   7.400293
    38  H    6.146338   4.408073   7.793681   9.575801   9.609227
    39  H    6.769684   5.038780   9.835563  11.464541  11.155714
    40  H    6.025290   4.658968  10.549966  11.727569  10.894247
    41  H    4.340240   3.484326   9.482763  10.197526   8.996197
                   31         32         33         34         35
    31  H    0.000000
    32  H    4.655353   0.000000
    33  H    6.078003   1.784729   0.000000
    34  H    7.935171   3.809261   2.615294   0.000000
    35  H    9.026750   5.470321   4.926786   2.645703   0.000000
    36  H    4.718726   2.768347   3.909107   4.366954   4.588921
    37  H    5.682304   3.899520   3.295996   5.343021   7.710707
    38  H    7.888729   6.106284   5.001470   6.254270   8.647229
    39  H    9.094714   7.061939   5.743633   5.936582   7.915480
    40  H    8.544722   6.345237   5.172513   4.560265   5.933541
    41  H    6.553489   4.257751   3.546632   3.203670   4.467685
                   36         37         38         39         40
    36  H    0.000000
    37  H    6.032079   0.000000
    38  H    8.015245   2.489639   0.000000
    39  H    8.341819   4.317255   2.494863   0.000000
    40  H    6.850365   4.980691   4.316694   2.494401   0.000000
    41  H    4.363614   4.307017   4.980368   4.320356   2.495783
                   41
    41  H    0.000000
 Stoichiometry    C19H16N4OS
 Framework group  C1[X(C19H16N4OS)]
 Deg. of freedom   117
 Full point group                 C1      NOp   1
 Largest Abelian subgroup         C1      NOp   1
 Largest concise Abelian subgroup C1      NOp   1
                         Standard orientation:                         
 ---------------------------------------------------------------------
 Center     Atomic      Atomic             Coordinates (Angstroms)
 Number     Number       Type             X           Y           Z
 ---------------------------------------------------------------------
      1          8           0        0.184140   -1.748950   -0.088960
      2          6           0        0.070460   -0.538350   -0.269210
      3          6           0        1.036160    0.173030   -1.229560
      4          7           0        2.355480    0.322950   -0.637620
      5          7           0        2.823779    1.575011   -0.345250
      6          7           0        4.022849    1.488571    0.122850
      7          6           0        4.386480    0.156531    0.147300
      8          6           0        5.585260   -0.459249    0.551040
      9          6           0        5.658220   -1.840919    0.448480
     10          6           0        4.564261   -2.604869   -0.035060
     11          6           0        3.369980   -2.017289   -0.432480
     12          6           0        3.309410   -0.615639   -0.338930
     13          7           0       -0.876450    0.211630    0.375920
     14          6           0       -1.752260   -0.489071    1.346140
     15          6           0       -2.998710   -1.095431    0.742380
     16          6           0       -4.307010   -0.510572    0.826960
     17          6           0       -5.272240   -1.254172    0.200530
     18         16           0       -4.602089   -2.691742   -0.510430
     19          6           0       -3.011090   -2.282721    0.047340
     20          6           0       -1.102691    1.614279    0.148590
     21          6           0       -0.310271    2.568480    0.799810
     22          6           0       -0.555461    3.929520    0.600620
     23          6           0       -1.596392    4.341939   -0.236440
     24          6           0       -2.390211    3.389029   -0.882350
     25          6           0       -2.145541    2.025879   -0.693550
     26          1           0        1.112180   -0.459610   -2.126560
     27          1           0        0.711919    1.178280   -1.517070
     28          1           0        6.415930    0.140242    0.926480
     29          1           0        6.571050   -2.358368    0.750910
     30          1           0        4.662151   -3.691699   -0.085390
     31          1           0        2.510901   -2.600429   -0.761440
     32          1           0       -1.138650   -1.273971    1.806360
     33          1           0       -2.023650    0.244369    2.117290
     34          1           0       -4.515200    0.427608    1.343750
     35          1           0       -6.337750   -1.049182    0.120170
     36          1           0       -2.159219   -2.923961   -0.168410
     37          1           0        0.509789    2.240930    1.439780
     38          1           0        0.075078    4.668520    1.098990
     39          1           0       -1.786022    5.406569   -0.389610
     40          1           0       -3.201651    3.705999   -1.541170
     41          1           0       -2.756281    1.274599   -1.196390
 ---------------------------------------------------------------------
 Rotational constants (GHZ):      0.3179183      0.1277943      0.0959272
 Leave Link  202 at Sat Sep 10 07:35:45 2022, MaxMem=  209715200 cpu:       0.0
 (Enter /opt/gaussian/l301.exe)
 Standard basis: CC-pVDZ (5D, 7F)
 Ernie: Thresh=  0.10000D-02 Tol=  0.10000D-05 Strict=F.
 Ernie:  58 primitive shells out of 658 were deleted.
 There are   434 symmetry adapted basis functions of A   symmetry.
 Integral buffers will be    131072 words long.
 Raffenetti 2 integral format.
 Two-electron integral symmetry is turned on.
   434 basis functions,   975 primitive gaussians,   459 cartesian basis functions
    91 alpha electrons       91 beta electrons
       nuclear repulsion energy      2179.9101217864 Hartrees.
 IExCor=  402 DFT=T Ex+Corr=B3LYP ExCW=0 ScaHFX=  0.200000
 ScaDFX=  0.800000  0.720000  1.000000  0.810000 ScalE2=  1.000000  1.000000
 IRadAn=      0 IRanWt=     -1 IRanGd=            0 ICorTp=0
 NAtoms=   41 NActive=   41 NUniq=   41 SFac= 1.00D+00 NAtFMM=   60 NAOKFM=F Big=F
 Leave Link  301 at Sat Sep 10 07:35:45 2022, MaxMem=  209715200 cpu:       0.3
 (Enter /opt/gaussian/l302.exe)
 NPDir=0 NMtPBC=     1 NCelOv=     1 NCel=       1 NClECP=     1 NCelD=      1
         NCelK=      1 NCelE2=     1 NClLst=     1 CellRange=     0.0.
 One-electron integrals computed using PRISM.
 NBasis=   434 RedAO= T  NBF=   434
 NBsUse=   434 1.00D-06 NBFU=   434
 Precomputing XC quadrature grid using
 IXCGrd= 2 IRadAn=           0 IRanWt=          -1 IRanGd=           0 AccXCQ= 0.00D+00.
 NRdTot=    2626 NPtTot=      334952 NUsed=      353880 NTot=      353912
 NSgBfM=   455   455   455   455   455 NAtAll=    41    41.
 Leave Link  302 at Sat Sep 10 07:35:45 2022, MaxMem=  209715200 cpu:       5.4
 (Enter /opt/gaussian/l303.exe)
 DipDrv:  MaxL=1.
 Leave Link  303 at Sat Sep 10 07:35:45 2022, MaxMem=  209715200 cpu:       0.9
 (Enter /opt/gaussian/l401.exe)
 Harris functional with IExCor=  402 diagonalized for initial guess.
 ExpMin= 1.22D-01 ExpMax= 1.11D+05 ExpMxC= 1.07D+03 IAcc=2 IRadAn=         4 AccDes= 0.00D+00
 HarFok:  IExCor=  402 AccDes= 0.00D+00 IRadAn=         4 IDoV= 1
 ScaDFX=  1.000000  1.000000  1.000000  1.000000
 FoFCou: FMM=F IPFlag=           0 FMFlag=      100000 FMFlg1=           0
         NFxFlg=           0 DoJE=T BraDBF=F KetDBF=T FulRan=T
         Omega=  0.000000  0.000000  1.000000  0.000000  0.000000 ICntrl=     500 IOpCl=  0
         NMat0=    1 NMatS0=    1 NMatT0=    0 NMatD0=    1 NMtDS0=    0 NMtDT0=    0
         I1Cent=           4 NGrid=           0.
 Petite list used in FoFCou.
 Harris En= -1425.94595811137    
 Initial guess orbital symmetries:
       Occupied  (A) (A) (A) (A) (A) (A) (A) (A) (A) (A) (A) (A)
                 (A) (A) (A) (A) (A) (A) (A) (A) (A) (A) (A) (A)
                 (A) (A) (A) (A) (A) (A) (A) (A) (A) (A) (A) (A)
                 (A) (A) (A) (A) (A) (A) (A) (A) (A) (A) (A) (A)
                 (A) (A) (A) (A) (A) (A) (A) (A) (A) (A) (A) (A)
                 (A) (A) (A) (A) (A) (A) (A) (A) (A) (A) (A) (A)
                 (A) (A) (A) (A) (A) (A) (A) (A) (A) (A) (A) (A)
                 (A) (A) (A) (A) (A) (A) (A)
       Virtual   (A) (A) (A) (A) (A) (A) (A) (A) (A) (A) (A) (A)
                 (A) (A) (A) (A) (A) (A) (A) (A) (A) (A) (A) (A)
                 (A) (A) (A) (A) (A) (A) (A) (A) (A) (A) (A) (A)
                 (A) (A) (A) (A) (A) (A) (A) (A) (A) (A) (A) (A)
                 (A) (A) (A) (A) (A) (A) (A) (A) (A) (A) (A) (A)
                 (A) (A) (A) (A) (A) (A) (A) (A) (A) (A) (A) (A)
                 (A) (A) (A) (A) (A) (A) (A) (A) (A) (A) (A) (A)
                 (A) (A) (A) (A) (A) (A) (A) (A) (A) (A) (A) (A)
                 (A) (A) (A) (A) (A) (A) (A) (A) (A) (A) (A) (A)
                 (A) (A) (A) (A) (A) (A) (A) (A) (A) (A) (A) (A)
                 (A) (A) (A) (A) (A) (A) (A) (A) (A) (A) (A) (A)
                 (A) (A) (A) (A) (A) (A) (A) (A) (A) (A) (A) (A)
                 (A) (A) (A) (A) (A) (A) (A) (A) (A) (A) (A) (A)
                 (A) (A) (A) (A) (A) (A) (A) (A) (A) (A) (A) (A)
                 (A) (A) (A) (A) (A) (A) (A) (A) (A) (A) (A) (A)
                 (A) (A) (A) (A) (A) (A) (A) (A) (A) (A) (A) (A)
                 (A) (A) (A) (A) (A) (A) (A) (A) (A) (A) (A) (A)
                 (A) (A) (A) (A) (A) (A) (A) (A) (A) (A) (A) (A)
                 (A) (A) (A) (A) (A) (A) (A) (A) (A) (A) (A) (A)
                 (A) (A) (A) (A) (A) (A) (A) (A) (A) (A) (A) (A)
                 (A) (A) (A) (A) (A) (A) (A) (A) (A) (A) (A) (A)
                 (A) (A) (A) (A) (A) (A) (A) (A) (A) (A) (A) (A)
                 (A) (A) (A) (A) (A) (A) (A) (A) (A) (A) (A) (A)
                 (A) (A) (A) (A) (A) (A) (A) (A) (A) (A) (A) (A)
                 (A) (A) (A) (A) (A) (A) (A) (A) (A) (A) (A) (A)
                 (A) (A) (A) (A) (A) (A) (A) (A) (A) (A) (A) (A)
                 (A) (A) (A) (A) (A) (A) (A) (A) (A) (A) (A) (A)
                 (A) (A) (A) (A) (A) (A) (A) (A) (A) (A) (A) (A)
                 (A) (A) (A) (A) (A) (A) (A)
 The electronic state of the initial guess is 1-A.
 Leave Link  401 at Sat Sep 10 07:35:48 2022, MaxMem=  209715200 cpu:      18.3
 (Enter /opt/gaussian/l502.exe)
 Closed shell SCF:
 Requested convergence on RMS density matrix=1.00D-08 within 128 cycles.
 Requested convergence on MAX density matrix=1.00D-06.
 Requested convergence on             energy=1.00D-06.
 No special actions if energy rises.
 Using DIIS extrapolation, IDIIS=  1040.
 Integral symmetry usage will be decided dynamically.
       353498 words used for storage of precomputed grid.
 IEnd=     1010829 IEndB=     1010829 NGot=   209715200 MDV=   208932152
 LenX=   208932152 LenY=   208721012
 Fock matrices will be formed incrementally for  20 cycles.
 Integral accuracy reduced to 1.0D-05 until final iterations.

 Cycle   1  Pass 0  IDiag  1:
 FoFCou: FMM=F IPFlag=           0 FMFlag=      100000 FMFlg1=           0
         NFxFlg=           0 DoJE=F BraDBF=F KetDBF=F FulRan=T
         Omega=  0.000000  0.000000  1.000000  0.000000  0.000000 ICntrl=       0 IOpCl=  0
         NMat0=    1 NMatS0=    1 NMatT0=    0 NMatD0=    1 NMtDS0=    0 NMtDT0=    0
         I1Cent=           0 NGrid=           0.
 Symmetry not used in FoFCou.
 E= -1425.54160098466    
 DIIS: error= 2.27D-02 at cycle   1 NSaved=   1.
 NSaved= 1 IEnMin= 1 EnMin= -1425.54160098466     IErMin= 1 ErrMin= 2.27D-02
 ErrMax= 2.27D-02 EMaxC= 1.00D-01 BMatC= 5.32D-01 BMatP= 5.32D-01
 IDIUse=3 WtCom= 7.73D-01 WtEn= 2.27D-01
 Coeff-Com:  0.100D+01
 Coeff-En:   0.100D+01
 Coeff:      0.100D+01
 Gap=     0.285 Goal=   None    Shift=    0.000
 GapD=    0.285 DampG=1.000 DampE=0.500 DampFc=0.5000 IDamp=-1.
 Damping current iteration by 5.00D-01
 RMSDP=4.77D-03 MaxDP=1.94D-01              OVMax= 3.16D-01

 Cycle   2  Pass 0  IDiag  1:
 RMSU=  1.67D-03    CP:  9.80D-01
 E= -1425.65204901867     Delta-E=       -0.110448034013 Rises=F Damp=T
 DIIS: error= 8.94D-03 at cycle   2 NSaved=   2.
 NSaved= 2 IEnMin= 2 EnMin= -1425.65204901867     IErMin= 2 ErrMin= 8.94D-03
 ErrMax= 8.94D-03 EMaxC= 1.00D-01 BMatC= 1.21D-01 BMatP= 5.32D-01
 IDIUse=3 WtCom= 9.11D-01 WtEn= 8.94D-02
 Coeff-Com:  0.273D+00 0.727D+00
 Coeff-En:   0.408D+00 0.592D+00
 Coeff:      0.285D+00 0.715D+00
 Gap=     0.226 Goal=   None    Shift=    0.000
 RMSDP=1.66D-03 MaxDP=7.07D-02 DE=-1.10D-01 OVMax= 2.99D-01

 Cycle   3  Pass 0  IDiag  1:
 RMSU=  1.07D-03    CP:  9.67D-01  7.26D-01
 E= -1426.04466565932     Delta-E=       -0.392616640650 Rises=F Damp=F
 DIIS: error= 7.55D-03 at cycle   3 NSaved=   3.
 NSaved= 3 IEnMin= 3 EnMin= -1426.04466565932     IErMin= 3 ErrMin= 7.55D-03
 ErrMax= 7.55D-03 EMaxC= 1.00D-01 BMatC= 8.41D-02 BMatP= 1.21D-01
 IDIUse=3 WtCom= 9.25D-01 WtEn= 7.55D-02
 Coeff-Com:  0.988D-01 0.446D+00 0.456D+00
 Coeff-En:   0.000D+00 0.000D+00 0.100D+01
 Coeff:      0.913D-01 0.412D+00 0.497D+00
 Gap=     0.192 Goal=   None    Shift=    0.000
 RMSDP=8.76D-04 MaxDP=4.41D-02 DE=-3.93D-01 OVMax= 9.08D-02

 Cycle   4  Pass 0  IDiag  1:
 RMSU=  4.71D-04    CP:  9.71D-01  7.90D-01  6.41D-01
 E= -1426.10914135558     Delta-E=       -0.064475696260 Rises=F Damp=F
 DIIS: error= 3.62D-03 at cycle   4 NSaved=   4.
 NSaved= 4 IEnMin= 4 EnMin= -1426.10914135558     IErMin= 4 ErrMin= 3.62D-03
 ErrMax= 3.62D-03 EMaxC= 1.00D-01 BMatC= 1.68D-02 BMatP= 8.41D-02
 IDIUse=3 WtCom= 9.64D-01 WtEn= 3.62D-02
 Coeff-Com:  0.244D-01 0.136D+00 0.319D+00 0.520D+00
 Coeff-En:   0.000D+00 0.000D+00 0.190D+00 0.810D+00
 Coeff:      0.235D-01 0.131D+00 0.315D+00 0.531D+00
 Gap=     0.188 Goal=   None    Shift=    0.000
 RMSDP=3.86D-04 MaxDP=1.98D-02 DE=-6.45D-02 OVMax= 4.43D-02

 Cycle   5  Pass 0  IDiag  1:
 RMSU=  1.69D-04    CP:  9.70D-01  7.84D-01  6.97D-01  5.65D-01
 E= -1426.12267757218     Delta-E=       -0.013536216597 Rises=F Damp=F
 DIIS: error= 1.62D-03 at cycle   5 NSaved=   5.
 NSaved= 5 IEnMin= 5 EnMin= -1426.12267757218     IErMin= 5 ErrMin= 1.62D-03
 ErrMax= 1.62D-03 EMaxC= 1.00D-01 BMatC= 2.27D-03 BMatP= 1.68D-02
 IDIUse=3 WtCom= 9.84D-01 WtEn= 1.62D-02
 Coeff-Com:  0.424D-02 0.268D-01 0.141D+00 0.349D+00 0.479D+00
 Coeff-En:   0.000D+00 0.000D+00 0.000D+00 0.125D+00 0.875D+00
 Coeff:      0.417D-02 0.263D-01 0.138D+00 0.346D+00 0.485D+00
 Gap=     0.189 Goal=   None    Shift=    0.000
 RMSDP=1.42D-04 MaxDP=7.70D-03 DE=-1.35D-02 OVMax= 1.75D-02

 Cycle   6  Pass 0  IDiag  1:
 RMSU=  4.35D-05    CP:  9.70D-01  7.78D-01  7.16D-01  6.58D-01  5.54D-01
 E= -1426.12498582958     Delta-E=       -0.002308257398 Rises=F Damp=F
 DIIS: error= 5.08D-04 at cycle   6 NSaved=   6.
 NSaved= 6 IEnMin= 6 EnMin= -1426.12498582958     IErMin= 6 ErrMin= 5.08D-04
 ErrMax= 5.08D-04 EMaxC= 1.00D-01 BMatC= 1.84D-04 BMatP= 2.27D-03
 IDIUse=3 WtCom= 9.95D-01 WtEn= 5.08D-03
 Coeff-Com: -0.919D-04-0.324D-02 0.399D-01 0.136D+00 0.283D+00 0.544D+00
 Coeff-En:   0.000D+00 0.000D+00 0.000D+00 0.000D+00 0.184D-01 0.982D+00
 Coeff:     -0.915D-04-0.323D-02 0.397D-01 0.136D+00 0.281D+00 0.547D+00
 Gap=     0.188 Goal=   None    Shift=    0.000
 RMSDP=3.54D-05 MaxDP=2.06D-03 DE=-2.31D-03 OVMax= 4.56D-03

 Cycle   7  Pass 0  IDiag  1:
 RMSU=  1.66D-05    CP:  9.69D-01  7.79D-01  7.17D-01  6.53D-01  5.98D-01
                    CP:  6.10D-01
 E= -1426.12515959168     Delta-E=       -0.000173762099 Rises=F Damp=F
 DIIS: error= 1.62D-04 at cycle   7 NSaved=   7.
 NSaved= 7 IEnMin= 7 EnMin= -1426.12515959168     IErMin= 7 ErrMin= 1.62D-04
 ErrMax= 1.62D-04 EMaxC= 1.00D-01 BMatC= 1.80D-05 BMatP= 1.84D-04
 IDIUse=3 WtCom= 9.98D-01 WtEn= 1.62D-03
 Coeff-Com: -0.199D-03-0.413D-02 0.102D-01 0.454D-01 0.114D+00 0.311D+00
 Coeff-Com:  0.524D+00
 Coeff-En:   0.000D+00 0.000D+00 0.000D+00 0.000D+00 0.000D+00 0.330D-01
 Coeff-En:   0.967D+00
 Coeff:     -0.199D-03-0.412D-02 0.102D-01 0.453D-01 0.114D+00 0.310D+00
 Coeff:      0.524D+00
 Gap=     0.188 Goal=   None    Shift=    0.000
 RMSDP=1.17D-05 MaxDP=5.30D-04 DE=-1.74D-04 OVMax= 1.03D-03

 Cycle   8  Pass 0  IDiag  1:
 RMSU=  4.62D-06    CP:  9.69D-01  7.78D-01  7.17D-01  6.57D-01  6.01D-01
                    CP:  6.72D-01  6.39D-01
 E= -1426.12517821366     Delta-E=       -0.000018621987 Rises=F Damp=F
 DIIS: error= 5.37D-05 at cycle   8 NSaved=   8.
 NSaved= 8 IEnMin= 8 EnMin= -1426.12517821366     IErMin= 8 ErrMin= 5.37D-05
 ErrMax= 5.37D-05 EMaxC= 1.00D-01 BMatC= 1.92D-06 BMatP= 1.80D-05
 IDIUse=1 WtCom= 1.00D+00 WtEn= 0.00D+00
 Coeff-Com: -0.143D-04-0.232D-02 0.357D-02 0.176D-01 0.484D-01 0.145D+00
 Coeff-Com:  0.315D+00 0.473D+00
 Coeff:     -0.143D-04-0.232D-02 0.357D-02 0.176D-01 0.484D-01 0.145D+00
 Coeff:      0.315D+00 0.473D+00
 Gap=     0.188 Goal=   None    Shift=    0.000
 RMSDP=3.84D-06 MaxDP=2.25D-04 DE=-1.86D-05 OVMax= 3.57D-04

 Initial convergence to 1.0D-05 achieved.  Increase integral accuracy.
 Cycle   9  Pass 1  IDiag  1:
 E= -1426.12506636722     Delta-E=        0.000111846440 Rises=F Damp=F
 DIIS: error= 1.68D-04 at cycle   1 NSaved=   1.
 NSaved= 1 IEnMin= 1 EnMin= -1426.12506636722     IErMin= 1 ErrMin= 1.68D-04
 ErrMax= 1.68D-04 EMaxC= 1.00D-01 BMatC= 5.16D-06 BMatP= 5.16D-06
 IDIUse=3 WtCom= 9.98D-01 WtEn= 1.68D-03
 Coeff-Com:  0.100D+01
 Coeff-En:   0.100D+01
 Coeff:      0.100D+01
 Gap=     0.188 Goal=   None    Shift=    0.000
 RMSDP=3.84D-06 MaxDP=2.25D-04 DE= 1.12D-04 OVMax= 4.78D-04

 Cycle  10  Pass 1  IDiag  1:
 RMSU=  6.36D-05    CP:  1.00D+00
 E= -1426.12507020614     Delta-E=       -0.000003838912 Rises=F Damp=F
 DIIS: error= 4.79D-05 at cycle   2 NSaved=   2.
 NSaved= 2 IEnMin= 2 EnMin= -1426.12507020614     IErMin= 2 ErrMin= 4.79D-05
 ErrMax= 4.79D-05 EMaxC= 1.00D-01 BMatC= 1.54D-06 BMatP= 5.16D-06
 IDIUse=1 WtCom= 1.00D+00 WtEn= 0.00D+00
 Coeff-Com:  0.272D+00 0.728D+00
 Coeff:      0.272D+00 0.728D+00
 Gap=     0.188 Goal=   None    Shift=    0.000
 RMSDP=6.48D-06 MaxDP=4.40D-04 DE=-3.84D-06 OVMax= 8.04D-04

 Cycle  11  Pass 1  IDiag  1:
 RMSU=  4.56D-06    CP:  1.00D+00  1.01D+00
 E= -1426.12506855840     Delta-E=        0.000001647741 Rises=F Damp=F
 DIIS: error= 7.09D-05 at cycle   3 NSaved=   3.
 NSaved= 3 IEnMin= 2 EnMin= -1426.12507020614     IErMin= 2 ErrMin= 4.79D-05
 ErrMax= 7.09D-05 EMaxC= 1.00D-01 BMatC= 3.34D-06 BMatP= 1.54D-06
 IDIUse=1 WtCom= 1.00D+00 WtEn= 0.00D+00
 Coeff-Com: -0.134D-02 0.597D+00 0.405D+00
 Coeff:     -0.134D-02 0.597D+00 0.405D+00
 Gap=     0.188 Goal=   None    Shift=    0.000
 RMSDP=3.93D-06 MaxDP=2.90D-04 DE= 1.65D-06 OVMax= 5.28D-04

 Cycle  12  Pass 1  IDiag  1:
 RMSU=  4.92D-07    CP:  1.00D+00  1.01D+00  4.04D-01
 E= -1426.12507161751     Delta-E=       -0.000003059111 Rises=F Damp=F
 DIIS: error= 5.57D-06 at cycle   4 NSaved=   4.
 NSaved= 4 IEnMin= 4 EnMin= -1426.12507161751     IErMin= 4 ErrMin= 5.57D-06
 ErrMax= 5.57D-06 EMaxC= 1.00D-01 BMatC= 3.10D-08 BMatP= 1.54D-06
 IDIUse=1 WtCom= 1.00D+00 WtEn= 0.00D+00
 Coeff-Com: -0.435D-02 0.362D+00 0.251D+00 0.391D+00
 Coeff:     -0.435D-02 0.362D+00 0.251D+00 0.391D+00
 Gap=     0.188 Goal=   None    Shift=    0.000
 RMSDP=4.14D-07 MaxDP=3.04D-05 DE=-3.06D-06 OVMax= 4.54D-05

 Cycle  13  Pass 1  IDiag  1:
 RMSU=  1.63D-07    CP:  1.00D+00  1.01D+00  4.15D-01  5.17D-01
 E= -1426.12507164792     Delta-E=       -0.000000030412 Rises=F Damp=F
 DIIS: error= 7.57D-07 at cycle   5 NSaved=   5.
 NSaved= 5 IEnMin= 5 EnMin= -1426.12507164792     IErMin= 5 ErrMin= 7.57D-07
 ErrMax= 7.57D-07 EMaxC= 1.00D-01 BMatC= 7.48D-10 BMatP= 3.10D-08
 IDIUse=1 WtCom= 1.00D+00 WtEn= 0.00D+00
 Coeff-Com: -0.233D-02 0.177D+00 0.123D+00 0.219D+00 0.484D+00
 Coeff:     -0.233D-02 0.177D+00 0.123D+00 0.219D+00 0.484D+00
 Gap=     0.188 Goal=   None    Shift=    0.000
 RMSDP=8.62D-08 MaxDP=3.02D-06 DE=-3.04D-08 OVMax= 8.90D-06

 Cycle  14  Pass 1  IDiag  1:
 RMSU=  5.17D-08    CP:  1.00D+00  1.01D+00  4.13D-01  5.46D-01  8.32D-01
 E= -1426.12507164867     Delta-E=       -0.000000000752 Rises=F Damp=F
 DIIS: error= 2.50D-07 at cycle   6 NSaved=   6.
 NSaved= 6 IEnMin= 6 EnMin= -1426.12507164867     IErMin= 6 ErrMin= 2.50D-07
 ErrMax= 2.50D-07 EMaxC= 1.00D-01 BMatC= 1.11D-10 BMatP= 7.48D-10
 IDIUse=1 WtCom= 1.00D+00 WtEn= 0.00D+00
 Coeff-Com: -0.766D-03 0.527D-01 0.368D-01 0.732D-01 0.296D+00 0.542D+00
 Coeff:     -0.766D-03 0.527D-01 0.368D-01 0.732D-01 0.296D+00 0.542D+00
 Gap=     0.188 Goal=   None    Shift=    0.000
 RMSDP=2.84D-08 MaxDP=1.76D-06 DE=-7.52D-10 OVMax= 2.99D-06

 Cycle  15  Pass 1  IDiag  1:
 RMSU=  1.36D-08    CP:  1.00D+00  1.01D+00  4.13D-01  5.48D-01  8.76D-01
                    CP:  7.56D-01
 E= -1426.12507164870     Delta-E=       -0.000000000025 Rises=F Damp=F
 DIIS: error= 1.08D-07 at cycle   7 NSaved=   7.
 NSaved= 7 IEnMin= 7 EnMin= -1426.12507164870     IErMin= 7 ErrMin= 1.08D-07
 ErrMax= 1.08D-07 EMaxC= 1.00D-01 BMatC= 1.36D-11 BMatP= 1.11D-10
 IDIUse=1 WtCom= 1.00D+00 WtEn= 0.00D+00
 Coeff-Com: -0.103D-03 0.463D-02 0.333D-02 0.989D-02 0.988D-01 0.315D+00
 Coeff-Com:  0.569D+00
 Coeff:     -0.103D-03 0.463D-02 0.333D-02 0.989D-02 0.988D-01 0.315D+00
 Coeff:      0.569D+00
 Gap=     0.188 Goal=   None    Shift=    0.000
 RMSDP=1.07D-08 MaxDP=6.76D-07 DE=-2.55D-11 OVMax= 9.30D-07

 Cycle  16  Pass 1  IDiag  1:
 RMSU=  5.60D-09    CP:  1.00D+00  1.01D+00  4.13D-01  5.50D-01  8.82D-01
                    CP:  7.82D-01  6.65D-01
 E= -1426.12507164873     Delta-E=       -0.000000000034 Rises=F Damp=F
 DIIS: error= 4.75D-08 at cycle   8 NSaved=   8.
 NSaved= 8 IEnMin= 8 EnMin= -1426.12507164873     IErMin= 8 ErrMin= 4.75D-08
 ErrMax= 4.75D-08 EMaxC= 1.00D-01 BMatC= 2.99D-12 BMatP= 1.36D-11
 IDIUse=1 WtCom= 1.00D+00 WtEn= 0.00D+00
 Coeff-Com:  0.272D-04-0.346D-02-0.236D-02-0.270D-02 0.285D-01 0.146D+00
 Coeff-Com:  0.379D+00 0.456D+00
 Coeff:      0.272D-04-0.346D-02-0.236D-02-0.270D-02 0.285D-01 0.146D+00
 Coeff:      0.379D+00 0.456D+00
 Gap=     0.188 Goal=   None    Shift=    0.000
 RMSDP=4.94D-09 MaxDP=2.51D-07 DE=-3.41D-11 OVMax= 4.66D-07

 SCF Done:  E(RB3LYP) =  -1426.12507165     A.U. after   16 cycles
             Convg  =    0.4940D-08             -V/T =  2.0055
 KE= 1.418315609784D+03 PE=-7.695174280178D+03 EE= 2.670823476958D+03
 Leave Link  502 at Sat Sep 10 07:44:15 2022, MaxMem=  209715200 cpu:    3756.4
 (Enter /opt/gaussian/l601.exe)
 Copying SCF densities to generalized density rwf, IOpCl= 0 IROHF=0.

 **********************************************************************

            Population analysis using the SCF density.

 **********************************************************************

 Orbital symmetries:
       Occupied  (A) (A) (A) (A) (A) (A) (A) (A) (A) (A) (A) (A)
                 (A) (A) (A) (A) (A) (A) (A) (A) (A) (A) (A) (A)
                 (A) (A) (A) (A) (A) (A) (A) (A) (A) (A) (A) (A)
                 (A) (A) (A) (A) (A) (A) (A) (A) (A) (A) (A) (A)
                 (A) (A) (A) (A) (A) (A) (A) (A) (A) (A) (A) (A)
                 (A) (A) (A) (A) (A) (A) (A) (A) (A) (A) (A) (A)
                 (A) (A) (A) (A) (A) (A) (A) (A) (A) (A) (A) (A)
                 (A) (A) (A) (A) (A) (A) (A)
       Virtual   (A) (A) (A) (A) (A) (A) (A) (A) (A) (A) (A) (A)
                 (A) (A) (A) (A) (A) (A) (A) (A) (A) (A) (A) (A)
                 (A) (A) (A) (A) (A) (A) (A) (A) (A) (A) (A) (A)
                 (A) (A) (A) (A) (A) (A) (A) (A) (A) (A) (A) (A)
                 (A) (A) (A) (A) (A) (A) (A) (A) (A) (A) (A) (A)
                 (A) (A) (A) (A) (A) (A) (A) (A) (A) (A) (A) (A)
                 (A) (A) (A) (A) (A) (A) (A) (A) (A) (A) (A) (A)
                 (A) (A) (A) (A) (A) (A) (A) (A) (A) (A) (A) (A)
                 (A) (A) (A) (A) (A) (A) (A) (A) (A) (A) (A) (A)
                 (A) (A) (A) (A) (A) (A) (A) (A) (A) (A) (A) (A)
                 (A) (A) (A) (A) (A) (A) (A) (A) (A) (A) (A) (A)
                 (A) (A) (A) (A) (A) (A) (A) (A) (A) (A) (A) (A)
                 (A) (A) (A) (A) (A) (A) (A) (A) (A) (A) (A) (A)
                 (A) (A) (A) (A) (A) (A) (A) (A) (A) (A) (A) (A)
                 (A) (A) (A) (A) (A) (A) (A) (A) (A) (A) (A) (A)
                 (A) (A) (A) (A) (A) (A) (A) (A) (A) (A) (A) (A)
                 (A) (A) (A) (A) (A) (A) (A) (A) (A) (A) (A) (A)
                 (A) (A) (A) (A) (A) (A) (A) (A) (A) (A) (A) (A)
                 (A) (A) (A) (A) (A) (A) (A) (A) (A) (A) (A) (A)
                 (A) (A) (A) (A) (A) (A) (A) (A) (A) (A) (A) (A)
                 (A) (A) (A) (A) (A) (A) (A) (A) (A) (A) (A) (A)
                 (A) (A) (A) (A) (A) (A) (A) (A) (A) (A) (A) (A)
                 (A) (A) (A) (A) (A) (A) (A) (A) (A) (A) (A) (A)
                 (A) (A) (A) (A) (A) (A) (A) (A) (A) (A) (A) (A)
                 (A) (A) (A) (A) (A) (A) (A) (A) (A) (A) (A) (A)
                 (A) (A) (A) (A) (A) (A) (A) (A) (A) (A) (A) (A)
                 (A) (A) (A) (A) (A) (A) (A) (A) (A) (A) (A) (A)
                 (A) (A) (A) (A) (A) (A) (A) (A) (A) (A) (A) (A)
                 (A) (A) (A) (A) (A) (A) (A)
 The electronic state is 1-A.
 Alpha  occ. eigenvalues --  -88.91077 -19.12383 -14.41423 -14.39095 -14.37883
 Alpha  occ. eigenvalues --  -14.34896 -10.30316 -10.25156 -10.24370 -10.23781
 Alpha  occ. eigenvalues --  -10.23090 -10.21786 -10.21297 -10.21142 -10.20877
 Alpha  occ. eigenvalues --  -10.20824 -10.20752 -10.20709 -10.20661 -10.20210
 Alpha  occ. eigenvalues --  -10.19918 -10.19831 -10.19823 -10.19820 -10.19433
 Alpha  occ. eigenvalues --   -7.97287  -5.93602  -5.93225  -5.92937  -1.09422
 Alpha  occ. eigenvalues --   -1.05338  -0.95793  -0.92342  -0.88374  -0.86472
 Alpha  occ. eigenvalues --   -0.86313  -0.78462  -0.77400  -0.76646  -0.76388
 Alpha  occ. eigenvalues --   -0.75301  -0.73974  -0.73023  -0.68582  -0.64776
 Alpha  occ. eigenvalues --   -0.64027  -0.62529  -0.62257  -0.59760  -0.57354
 Alpha  occ. eigenvalues --   -0.56912  -0.54940  -0.53951  -0.52575  -0.52385
 Alpha  occ. eigenvalues --   -0.51044  -0.50427  -0.48916  -0.47182  -0.46849
 Alpha  occ. eigenvalues --   -0.46496  -0.45355  -0.44593  -0.44571  -0.43655
 Alpha  occ. eigenvalues --   -0.43006  -0.42402  -0.42072  -0.41550  -0.39945
 Alpha  occ. eigenvalues --   -0.38702  -0.38217  -0.38179  -0.37579  -0.37485
 Alpha  occ. eigenvalues --   -0.36712  -0.36309  -0.36147  -0.35504  -0.34690
 Alpha  occ. eigenvalues --   -0.33139  -0.31414  -0.28152  -0.27391  -0.27124
 Alpha  occ. eigenvalues --   -0.26604  -0.25911  -0.25414  -0.24963  -0.23985
 Alpha  occ. eigenvalues --   -0.23185
 Alpha virt. eigenvalues --   -0.04349  -0.03230  -0.02709  -0.01902  -0.00275
 Alpha virt. eigenvalues --    0.01022   0.03373   0.03489   0.04501   0.05316
 Alpha virt. eigenvalues --    0.06857   0.07335   0.08354   0.09185   0.09655
 Alpha virt. eigenvalues --    0.09856   0.10429   0.10674   0.11328   0.11614
 Alpha virt. eigenvalues --    0.12802   0.13280   0.13415   0.13485   0.14180
 Alpha virt. eigenvalues --    0.14563   0.15290   0.16125   0.16873   0.18447
 Alpha virt. eigenvalues --    0.20002   0.20636   0.21089   0.23206   0.24166
 Alpha virt. eigenvalues --    0.24807   0.25252   0.26333   0.26880   0.27665
 Alpha virt. eigenvalues --    0.28692   0.30171   0.30432   0.30978   0.31516
 Alpha virt. eigenvalues --    0.33288   0.35556   0.36397   0.37081   0.37891
 Alpha virt. eigenvalues --    0.38892   0.39467   0.40620   0.40910   0.42130
 Alpha virt. eigenvalues --    0.43787   0.44257   0.44443   0.44859   0.45214
 Alpha virt. eigenvalues --    0.45951   0.46060   0.46332   0.46808   0.47174
 Alpha virt. eigenvalues --    0.47698   0.47875   0.48396   0.48999   0.49273
 Alpha virt. eigenvalues --    0.49373   0.49826   0.49929   0.50208   0.50388
 Alpha virt. eigenvalues --    0.50651   0.51082   0.51720   0.52191   0.52895
 Alpha virt. eigenvalues --    0.53746   0.54249   0.54705   0.55028   0.55339
 Alpha virt. eigenvalues --    0.55893   0.57034   0.57195   0.58214   0.58466
 Alpha virt. eigenvalues --    0.59342   0.59766   0.60413   0.60630   0.62045
 Alpha virt. eigenvalues --    0.62870   0.62938   0.63290   0.63805   0.64214
 Alpha virt. eigenvalues --    0.64559   0.64938   0.65454   0.65774   0.66440
 Alpha virt. eigenvalues --    0.67275   0.67917   0.68673   0.69143   0.69818
 Alpha virt. eigenvalues --    0.70447   0.70666   0.71206   0.72077   0.72746
 Alpha virt. eigenvalues --    0.72905   0.73307   0.74259   0.76313   0.77472
 Alpha virt. eigenvalues --    0.77867   0.79796   0.80473   0.81300   0.82565
 Alpha virt. eigenvalues --    0.83680   0.84667   0.85903   0.86086   0.86685
 Alpha virt. eigenvalues --    0.86997   0.87366   0.88287   0.89443   0.89797
 Alpha virt. eigenvalues --    0.90081   0.90826   0.91583   0.91948   0.93046
 Alpha virt. eigenvalues --    0.93407   0.94332   0.94960   0.95544   0.96345
 Alpha virt. eigenvalues --    0.96868   0.97073   0.98436   0.99087   0.99753
 Alpha virt. eigenvalues --    1.00559   1.01079   1.01298   1.01699   1.02471
 Alpha virt. eigenvalues --    1.02754   1.03493   1.04081   1.04619   1.05202
 Alpha virt. eigenvalues --    1.05873   1.06708   1.07439   1.09450   1.09924
 Alpha virt. eigenvalues --    1.10592   1.10976   1.14022   1.15305   1.16423
 Alpha virt. eigenvalues --    1.17096   1.18996   1.20159   1.20968   1.21916
 Alpha virt. eigenvalues --    1.23226   1.24102   1.25255   1.26368   1.27164
 Alpha virt. eigenvalues --    1.29252   1.30242   1.30849   1.31756   1.32895
 Alpha virt. eigenvalues --    1.35700   1.37246   1.37851   1.38987   1.40577
 Alpha virt. eigenvalues --    1.41632   1.42600   1.43794   1.44802   1.45730
 Alpha virt. eigenvalues --    1.46655   1.47505   1.48001   1.48729   1.49183
 Alpha virt. eigenvalues --    1.50554   1.50940   1.51532   1.52652   1.53860
 Alpha virt. eigenvalues --    1.55095   1.55691   1.56425   1.56800   1.57200
 Alpha virt. eigenvalues --    1.58223   1.58945   1.59275   1.59759   1.60561
 Alpha virt. eigenvalues --    1.61383   1.61604   1.62101   1.62413   1.63281
 Alpha virt. eigenvalues --    1.64094   1.64590   1.64903   1.65126   1.66329
 Alpha virt. eigenvalues --    1.67074   1.68071   1.68978   1.69282   1.69760
 Alpha virt. eigenvalues --    1.70141   1.71252   1.71660   1.72337   1.73477
 Alpha virt. eigenvalues --    1.73909   1.74496   1.75264   1.75900   1.76348
 Alpha virt. eigenvalues --    1.76875   1.77529   1.78098   1.78760   1.79110
 Alpha virt. eigenvalues --    1.79705   1.81234   1.81861   1.82173   1.83106
 Alpha virt. eigenvalues --    1.83374   1.84417   1.84810   1.85082   1.85677
 Alpha virt. eigenvalues --    1.86924   1.87711   1.88321   1.89569   1.91259
 Alpha virt. eigenvalues --    1.91399   1.92614   1.93649   1.95014   1.95405
 Alpha virt. eigenvalues --    1.96283   1.96977   1.97338   1.98241   1.98852
 Alpha virt. eigenvalues --    1.99778   2.00274   2.01388   2.02668   2.02976
 Alpha virt. eigenvalues --    2.03110   2.04785   2.05794   2.08150   2.10314
 Alpha virt. eigenvalues --    2.11989   2.13289   2.14153   2.14654   2.16167
 Alpha virt. eigenvalues --    2.17073   2.18482   2.20017   2.20449   2.21469
 Alpha virt. eigenvalues --    2.22278   2.25207   2.28725   2.31936   2.33323
 Alpha virt. eigenvalues --    2.34604   2.36202   2.38322   2.39575   2.39641
 Alpha virt. eigenvalues --    2.40497   2.41208   2.41602   2.42657   2.43697
 Alpha virt. eigenvalues --    2.44754   2.45069   2.46524   2.49246   2.50418
 Alpha virt. eigenvalues --    2.52003   2.52805   2.53477   2.58560   2.60141
 Alpha virt. eigenvalues --    2.61917   2.62405   2.63850   2.64695   2.68205
 Alpha virt. eigenvalues --    2.69185   2.70117   2.70833   2.71512   2.73641
 Alpha virt. eigenvalues --    2.74828   2.76551   2.77611   2.79749   2.82014
 Alpha virt. eigenvalues --    2.84121   2.91580   2.92648   2.96961   3.00377
 Alpha virt. eigenvalues --    3.05397   3.08695   3.08957   3.11328   3.39812
 Alpha virt. eigenvalues --    3.49837   3.53523   3.57653
          Condensed to atoms (all electrons):
              1          2          3          4          5          6
     1  O    7.679473   0.689774  -0.065116  -0.001487   0.000024   0.000000
     2  C    0.689774   4.607100   0.359030  -0.037546   0.000800  -0.000364
     3  C   -0.065116   0.359030   4.608469   0.359585  -0.044367   0.006675
     4  N   -0.001487  -0.037546   0.359585   6.524887   0.284330  -0.111531
     5  N    0.000024   0.000800  -0.044367   0.284330   6.563792   0.450061
     6  N    0.000000  -0.000364   0.006675  -0.111531   0.450061   6.440515
     7  C    0.000072  -0.000066   0.007750  -0.015600  -0.124071   0.505460
     8  C   -0.000002   0.000040  -0.000457   0.006593   0.000466  -0.050537
     9  C    0.000003  -0.000012   0.000051   0.000687   0.000127   0.004271
    10  C    0.000338   0.000110  -0.000500   0.002092  -0.000151  -0.000685
    11  C   -0.001412  -0.000556  -0.002760  -0.051058   0.003463   0.011737
    12  C   -0.001653  -0.003291  -0.054372   0.329893  -0.091461  -0.071619
    13  N   -0.078091   0.388567  -0.056688  -0.000434  -0.000039  -0.000001
    14  C    0.009391  -0.040744   0.008235  -0.000227  -0.000012   0.000000
    15  C   -0.012050  -0.009638  -0.000925   0.000000   0.000000   0.000000
    16  C   -0.000037  -0.000070   0.000004   0.000000   0.000000   0.000000
    17  C   -0.000006  -0.000016  -0.000001   0.000000   0.000000   0.000000
    18  S    0.000145  -0.000028   0.000004   0.000000   0.000000   0.000000
    19  C    0.002651   0.002979   0.000033   0.000000   0.000000   0.000000
    20  C    0.000088  -0.056391  -0.004934   0.000345  -0.001172   0.000015
    21  C   -0.000146  -0.007964  -0.003712  -0.000114  -0.000280  -0.000117
    22  C    0.000000  -0.000084   0.000041   0.000023  -0.000565  -0.000003
    23  C    0.000000   0.000004   0.000028   0.000001   0.000014   0.000000
    24  C    0.000000   0.000181  -0.000047   0.000003  -0.000004   0.000000
    25  C   -0.000073  -0.002300  -0.000692   0.000094   0.000017   0.000000
    26  H    0.002082  -0.022278   0.355468  -0.016648   0.001998  -0.000334
    27  H    0.003220  -0.007696   0.345162  -0.019914   0.013380   0.000520
    28  H    0.000000   0.000000   0.000002  -0.000012  -0.000550  -0.000980
    29  H    0.000000   0.000000  -0.000001   0.000004   0.000008  -0.000096
    30  H   -0.000015   0.000001  -0.000012  -0.000139   0.000005  -0.000007
    31  H    0.022632  -0.001532   0.001030  -0.005685  -0.000265  -0.000209
    32  H    0.018577  -0.008618   0.001603  -0.000057   0.000001   0.000000
    33  H    0.000899   0.006666  -0.000387   0.000015   0.000000   0.000000
    34  H   -0.000001  -0.000023   0.000000   0.000000   0.000000   0.000000
    35  H    0.000000   0.000000   0.000000   0.000000   0.000000   0.000000
    36  H    0.015223   0.001665   0.000365  -0.000001   0.000000   0.000000
    37  H   -0.000155   0.000095  -0.001341  -0.000448   0.009219   0.000225
    38  H    0.000000  -0.000008  -0.000010  -0.000001   0.000031  -0.000005
    39  H    0.000000   0.000000   0.000000   0.000000   0.000000   0.000000
    40  H    0.000000  -0.000006  -0.000006   0.000000   0.000000   0.000000
    41  H   -0.000130  -0.000199  -0.000142   0.000005   0.000000   0.000000
              7          8          9         10         11         12
     1  O    0.000072  -0.000002   0.000003   0.000338  -0.001412  -0.001653
     2  C   -0.000066   0.000040  -0.000012   0.000110  -0.000556  -0.003291
     3  C    0.007750  -0.000457   0.000051  -0.000500  -0.002760  -0.054372
     4  N   -0.015600   0.006593   0.000687   0.002092  -0.051058   0.329893
     5  N   -0.124071   0.000466   0.000127  -0.000151   0.003463  -0.091461
     6  N    0.505460  -0.050537   0.004271  -0.000685   0.011737  -0.071619
     7  C    4.999291   0.429569   0.028178  -0.078694  -0.019451   0.278894
     8  C    0.429569   4.778274   0.497760   0.013627  -0.071290   0.013935
     9  C    0.028178   0.497760   4.761708   0.460424   0.006983  -0.088224
    10  C   -0.078694   0.013627   0.460424   4.743015   0.499235   0.017316
    11  C   -0.019451  -0.071290   0.006983   0.499235   4.850533   0.408920
    12  C    0.278894   0.013935  -0.088224   0.017316   0.408920   5.072761
    13  N   -0.000028   0.000000   0.000000   0.000000   0.000091   0.000062
    14  C    0.000000   0.000000   0.000000   0.000000  -0.000001  -0.000016
    15  C    0.000000   0.000000   0.000000   0.000000   0.000000   0.000000
    16  C    0.000000   0.000000   0.000000   0.000000   0.000000   0.000000
    17  C    0.000000   0.000000   0.000000   0.000000   0.000000   0.000000
    18  S    0.000000   0.000000   0.000000   0.000000   0.000000   0.000000
    19  C    0.000000   0.000000   0.000000   0.000000   0.000001   0.000000
    20  C   -0.000010   0.000000   0.000000   0.000000   0.000004   0.000032
    21  C    0.000012   0.000000   0.000000   0.000000  -0.000004  -0.000083
    22  C   -0.000001   0.000000   0.000000   0.000000   0.000000  -0.000006
    23  C    0.000000   0.000000   0.000000   0.000000   0.000000   0.000000
    24  C    0.000000   0.000000   0.000000   0.000000   0.000000   0.000000
    25  C    0.000000   0.000000   0.000000   0.000000   0.000000   0.000001
    26  H    0.001153   0.000009  -0.000013   0.000088   0.002345  -0.005401
    27  H   -0.000879  -0.000015   0.000001   0.000022   0.000282   0.009017
    28  H   -0.042304   0.377680  -0.058273   0.010173  -0.001469   0.015914
    29  H    0.010891  -0.048429   0.389862  -0.051173   0.011137  -0.000996
    30  H   -0.000774   0.011045  -0.050748   0.387299  -0.046712   0.010511
    31  H    0.010023  -0.000311   0.008375  -0.044277   0.363116  -0.025667
    32  H    0.000004   0.000000   0.000000  -0.000001   0.000026   0.000014
    33  H    0.000000   0.000000   0.000000   0.000000   0.000000   0.000002
    34  H    0.000000   0.000000   0.000000   0.000000   0.000000   0.000000
    35  H    0.000000   0.000000   0.000000   0.000000   0.000000   0.000000
    36  H    0.000000   0.000000   0.000000   0.000000  -0.000007  -0.000004
    37  H   -0.000010  -0.000005   0.000000   0.000001   0.000006   0.000248
    38  H    0.000000   0.000000   0.000000   0.000000   0.000000   0.000000
    39  H    0.000000   0.000000   0.000000   0.000000   0.000000   0.000000
    40  H    0.000000   0.000000   0.000000   0.000000   0.000000   0.000000
    41  H    0.000000   0.000000   0.000000   0.000000   0.000000   0.000000
             13         14         15         16         17         18
     1  O   -0.078091   0.009391  -0.012050  -0.000037  -0.000006   0.000145
     2  C    0.388567  -0.040744  -0.009638  -0.000070  -0.000016  -0.000028
     3  C   -0.056688   0.008235  -0.000925   0.000004  -0.000001   0.000004
     4  N   -0.000434  -0.000227   0.000000   0.000000   0.000000   0.000000
     5  N   -0.000039  -0.000012   0.000000   0.000000   0.000000   0.000000
     6  N   -0.000001   0.000000   0.000000   0.000000   0.000000   0.000000
     7  C   -0.000028   0.000000   0.000000   0.000000   0.000000   0.000000
     8  C    0.000000   0.000000   0.000000   0.000000   0.000000   0.000000
     9  C    0.000000   0.000000   0.000000   0.000000   0.000000   0.000000
    10  C    0.000000   0.000000   0.000000   0.000000   0.000000   0.000000
    11  C    0.000091  -0.000001   0.000000   0.000000   0.000000   0.000000
    12  C    0.000062  -0.000016   0.000000   0.000000   0.000000   0.000000
    13  N    6.555387   0.350401  -0.043079   0.000183   0.000036  -0.000129
    14  C    0.350401   4.588968   0.426163  -0.075659   0.008307   0.008045
    15  C   -0.043079   0.426163   4.819742   0.470917  -0.012249  -0.092039
    16  C    0.000183  -0.075659   0.470917   4.776053   0.548873  -0.089959
    17  C    0.000036   0.008307  -0.012249   0.548873   4.975736   0.362212
    18  S   -0.000129   0.008045  -0.092039  -0.089959   0.362212  15.386851
    19  C   -0.008633  -0.069859   0.544335  -0.061139  -0.105774   0.354370
    20  C    0.278874  -0.062555  -0.001358   0.001392   0.000061  -0.000005
    21  C   -0.046496  -0.005066   0.000353   0.000069   0.000001   0.000000
    22  C    0.007171   0.000121   0.000028   0.000000   0.000000   0.000000
    23  C    0.000163   0.000015   0.000003  -0.000012   0.000000   0.000000
    24  C    0.006287   0.000106  -0.000232  -0.000165  -0.000037   0.000000
    25  C   -0.054356  -0.004154  -0.000023  -0.000708  -0.000294   0.000011
    26  H    0.003391  -0.000206   0.000103   0.000000   0.000000  -0.000001
    27  H   -0.005467  -0.000161   0.000021   0.000000   0.000000  -0.000001
    28  H    0.000000   0.000000   0.000000   0.000000   0.000000   0.000000
    29  H    0.000000   0.000000   0.000000   0.000000   0.000000   0.000000
    30  H    0.000000   0.000000   0.000000   0.000000   0.000000   0.000000
    31  H    0.000312  -0.000023   0.000007   0.000000   0.000000   0.000000
    32  H   -0.022490   0.350492  -0.006155   0.006757  -0.000470   0.000111
    33  H   -0.027057   0.343419  -0.009188  -0.014637   0.000452  -0.000411
    34  H   -0.000012  -0.010766  -0.041477   0.395496  -0.057242   0.008271
    35  H    0.000004  -0.000256   0.006974  -0.017410   0.386765  -0.044101
    36  H   -0.001658  -0.010486  -0.006525   0.010280   0.001709  -0.040686
    37  H   -0.005581  -0.000194   0.000110  -0.000007   0.000000   0.000000
    38  H   -0.000188  -0.000004   0.000000   0.000000   0.000000   0.000000
    39  H    0.000009   0.000000   0.000000   0.000000   0.000000   0.000000
    40  H   -0.000178  -0.000004   0.000005   0.000012   0.000001   0.000000
    41  H   -0.006170  -0.002798   0.001600   0.002062   0.000578  -0.000084
             19         20         21         22         23         24
     1  O    0.002651   0.000088  -0.000146   0.000000   0.000000   0.000000
     2  C    0.002979  -0.056391  -0.007964  -0.000084   0.000004   0.000181
     3  C    0.000033  -0.004934  -0.003712   0.000041   0.000028  -0.000047
     4  N    0.000000   0.000345  -0.000114   0.000023   0.000001   0.000003
     5  N    0.000000  -0.001172  -0.000280  -0.000565   0.000014  -0.000004
     6  N    0.000000   0.000015  -0.000117  -0.000003   0.000000   0.000000
     7  C    0.000000  -0.000010   0.000012  -0.000001   0.000000   0.000000
     8  C    0.000000   0.000000   0.000000   0.000000   0.000000   0.000000
     9  C    0.000000   0.000000   0.000000   0.000000   0.000000   0.000000
    10  C    0.000000   0.000000   0.000000   0.000000   0.000000   0.000000
    11  C    0.000001   0.000004  -0.000004   0.000000   0.000000   0.000000
    12  C    0.000000   0.000032  -0.000083  -0.000006   0.000000   0.000000
    13  N   -0.008633   0.278874  -0.046496   0.007171   0.000163   0.006287
    14  C   -0.069859  -0.062555  -0.005066   0.000121   0.000015   0.000106
    15  C    0.544335  -0.001358   0.000353   0.000028   0.000003  -0.000232
    16  C   -0.061139   0.001392   0.000069   0.000000  -0.000012  -0.000165
    17  C   -0.105774   0.000061   0.000001   0.000000   0.000000  -0.000037
    18  S    0.354370  -0.000005   0.000000   0.000000   0.000000   0.000000
    19  C    5.080845  -0.000151  -0.000035   0.000000   0.000000  -0.000007
    20  C   -0.000151   5.048232   0.464675   0.018212  -0.083955   0.018998
    21  C   -0.000035   0.464675   4.774653   0.448001   0.007393  -0.078322
    22  C    0.000000   0.018212   0.448001   4.766402   0.477099   0.018839
    23  C    0.000000  -0.083955   0.007393   0.477099   4.764555   0.476578
    24  C   -0.000007   0.018998  -0.078322   0.018839   0.476578   4.774223
    25  C    0.000158   0.462098  -0.016497  -0.078150   0.008342   0.449376
    26  H    0.000037  -0.000428   0.000517   0.000034  -0.000003  -0.000032
    27  H   -0.000016   0.007515  -0.002914  -0.000899   0.000088   0.000093
    28  H    0.000000   0.000000   0.000000   0.000000   0.000000   0.000000
    29  H    0.000000   0.000000   0.000000   0.000000   0.000000   0.000000
    30  H    0.000000   0.000000   0.000000   0.000000   0.000000   0.000000
    31  H   -0.000014  -0.000001   0.000001   0.000000   0.000000   0.000000
    32  H   -0.011670   0.005281  -0.000273  -0.000031  -0.000002   0.000042
    33  H    0.009935   0.005182   0.001625  -0.000486  -0.000001  -0.000238
    34  H    0.011771   0.000400  -0.000085  -0.000014  -0.000003   0.000247
    35  H    0.003442   0.000000   0.000000   0.000000   0.000000   0.000001
    36  H    0.374829  -0.000065   0.000004   0.000000   0.000000  -0.000001
    37  H    0.000003  -0.044738   0.382901  -0.047945   0.011057  -0.001486
    38  H    0.000000   0.009852  -0.035265   0.383547  -0.053168   0.009533
    39  H    0.000000  -0.000425   0.010320  -0.049281   0.392870  -0.050264
    40  H    0.000000   0.009961  -0.000016   0.009583  -0.052430   0.384067
    41  H   -0.000079  -0.038436   0.012542  -0.001402   0.010656  -0.053893
             25         26         27         28         29         30
     1  O   -0.000073   0.002082   0.003220   0.000000   0.000000  -0.000015
     2  C   -0.002300  -0.022278  -0.007696   0.000000   0.000000   0.000001
     3  C   -0.000692   0.355468   0.345162   0.000002  -0.000001  -0.000012
     4  N    0.000094  -0.016648  -0.019914  -0.000012   0.000004  -0.000139
     5  N    0.000017   0.001998   0.013380  -0.000550   0.000008   0.000005
     6  N    0.000000  -0.000334   0.000520  -0.000980  -0.000096  -0.000007
     7  C    0.000000   0.001153  -0.000879  -0.042304   0.010891  -0.000774
     8  C    0.000000   0.000009  -0.000015   0.377680  -0.048429   0.011045
     9  C    0.000000  -0.000013   0.000001  -0.058273   0.389862  -0.050748
    10  C    0.000000   0.000088   0.000022   0.010173  -0.051173   0.387299
    11  C    0.000000   0.002345   0.000282  -0.001469   0.011137  -0.046712
    12  C    0.000001  -0.005401   0.009017   0.015914  -0.000996   0.010511
    13  N   -0.054356   0.003391  -0.005467   0.000000   0.000000   0.000000
    14  C   -0.004154  -0.000206  -0.000161   0.000000   0.000000   0.000000
    15  C   -0.000023   0.000103   0.000021   0.000000   0.000000   0.000000
    16  C   -0.000708   0.000000   0.000000   0.000000   0.000000   0.000000
    17  C   -0.000294   0.000000   0.000000   0.000000   0.000000   0.000000
    18  S    0.000011  -0.000001  -0.000001   0.000000   0.000000   0.000000
    19  C    0.000158   0.000037  -0.000016   0.000000   0.000000   0.000000
    20  C    0.462098  -0.000428   0.007515   0.000000   0.000000   0.000000
    21  C   -0.016497   0.000517  -0.002914   0.000000   0.000000   0.000000
    22  C   -0.078150   0.000034  -0.000899   0.000000   0.000000   0.000000
    23  C    0.008342  -0.000003   0.000088   0.000000   0.000000   0.000000
    24  C    0.449376  -0.000032   0.000093   0.000000   0.000000   0.000000
    25  C    4.796704   0.000105   0.001374   0.000000   0.000000   0.000000
    26  H    0.000105   0.657334  -0.026847   0.000001   0.000000   0.000002
    27  H    0.001374  -0.026847   0.629118  -0.000002   0.000000   0.000000
    28  H    0.000000   0.000001  -0.000002   0.738978  -0.015426  -0.000158
    29  H    0.000000   0.000000   0.000000  -0.015426   0.747529  -0.015875
    30  H    0.000000   0.000002   0.000000  -0.000158  -0.015875   0.744040
    31  H    0.000000   0.002545  -0.000042   0.000049  -0.000164  -0.014566
    32  H   -0.000050  -0.000119  -0.000120   0.000000   0.000000   0.000000
    33  H   -0.001951   0.000002  -0.000007   0.000000   0.000000   0.000000
    34  H    0.001400   0.000000   0.000000   0.000000   0.000000   0.000000
    35  H   -0.000007   0.000000   0.000000   0.000000   0.000000   0.000000
    36  H   -0.000013   0.000029  -0.000025   0.000000   0.000000   0.000000
    37  H    0.012968   0.000099   0.000631   0.000000   0.000000   0.000000
    38  H    0.000026  -0.000001   0.000038   0.000000   0.000000   0.000000
    39  H    0.010342   0.000000   0.000005   0.000000   0.000000   0.000000
    40  H   -0.039421   0.000001   0.000013   0.000000   0.000000   0.000000
    41  H    0.387793  -0.000016   0.000186   0.000000   0.000000   0.000000
             31         32         33         34         35         36
     1  O    0.022632   0.018577   0.000899  -0.000001   0.000000   0.015223
     2  C   -0.001532  -0.008618   0.006666  -0.000023   0.000000   0.001665
     3  C    0.001030   0.001603  -0.000387   0.000000   0.000000   0.000365
     4  N   -0.005685  -0.000057   0.000015   0.000000   0.000000  -0.000001
     5  N   -0.000265   0.000001   0.000000   0.000000   0.000000   0.000000
     6  N   -0.000209   0.000000   0.000000   0.000000   0.000000   0.000000
     7  C    0.010023   0.000004   0.000000   0.000000   0.000000   0.000000
     8  C   -0.000311   0.000000   0.000000   0.000000   0.000000   0.000000
     9  C    0.008375   0.000000   0.000000   0.000000   0.000000   0.000000
    10  C   -0.044277  -0.000001   0.000000   0.000000   0.000000   0.000000
    11  C    0.363116   0.000026   0.000000   0.000000   0.000000  -0.000007
    12  C   -0.025667   0.000014   0.000002   0.000000   0.000000  -0.000004
    13  N    0.000312  -0.022490  -0.027057  -0.000012   0.000004  -0.001658
    14  C   -0.000023   0.350492   0.343419  -0.010766  -0.000256  -0.010486
    15  C    0.000007  -0.006155  -0.009188  -0.041477   0.006974  -0.006525
    16  C    0.000000   0.006757  -0.014637   0.395496  -0.017410   0.010280
    17  C    0.000000  -0.000470   0.000452  -0.057242   0.386765   0.001709
    18  S    0.000000   0.000111  -0.000411   0.008271  -0.044101  -0.040686
    19  C   -0.000014  -0.011670   0.009935   0.011771   0.003442   0.374829
    20  C   -0.000001   0.005281   0.005182   0.000400   0.000000  -0.000065
    21  C    0.000001  -0.000273   0.001625  -0.000085   0.000000   0.000004
    22  C    0.000000  -0.000031  -0.000486  -0.000014   0.000000   0.000000
    23  C    0.000000  -0.000002  -0.000001  -0.000003   0.000000   0.000000
    24  C    0.000000   0.000042  -0.000238   0.000247   0.000001  -0.000001
    25  C    0.000000  -0.000050  -0.001951   0.001400  -0.000007  -0.000013
    26  H    0.002545  -0.000119   0.000002   0.000000   0.000000   0.000029
    27  H   -0.000042  -0.000120  -0.000007   0.000000   0.000000  -0.000025
    28  H    0.000049   0.000000   0.000000   0.000000   0.000000   0.000000
    29  H   -0.000164   0.000000   0.000000   0.000000   0.000000   0.000000
    30  H   -0.014566   0.000000   0.000000   0.000000   0.000000   0.000000
    31  H    0.700429  -0.000016   0.000000   0.000000   0.000000   0.000057
    32  H   -0.000016   0.652279  -0.029846   0.000122   0.000010   0.001947
    33  H    0.000000  -0.029846   0.699997   0.004240  -0.000002   0.000073
    34  H    0.000000   0.000122   0.004240   0.723932  -0.008834  -0.000181
    35  H    0.000000   0.000010  -0.000002  -0.008834   0.660998  -0.000131
    36  H    0.000057   0.001947   0.000073  -0.000181  -0.000131   0.631684
    37  H    0.000004  -0.000332   0.000244  -0.000002   0.000000   0.000001
    38  H    0.000000   0.000000   0.000013   0.000000   0.000000   0.000000
    39  H    0.000000   0.000000  -0.000001   0.000000   0.000000   0.000000
    40  H    0.000000  -0.000001  -0.000003   0.000011   0.000000   0.000000
    41  H    0.000000  -0.000018   0.000467   0.000076   0.000031   0.000015
             37         38         39         40         41
     1  O   -0.000155   0.000000   0.000000   0.000000  -0.000130
     2  C    0.000095  -0.000008   0.000000  -0.000006  -0.000199
     3  C   -0.001341  -0.000010   0.000000  -0.000006  -0.000142
     4  N   -0.000448  -0.000001   0.000000   0.000000   0.000005
     5  N    0.009219   0.000031   0.000000   0.000000   0.000000
     6  N    0.000225  -0.000005   0.000000   0.000000   0.000000
     7  C   -0.000010   0.000000   0.000000   0.000000   0.000000
     8  C   -0.000005   0.000000   0.000000   0.000000   0.000000
     9  C    0.000000   0.000000   0.000000   0.000000   0.000000
    10  C    0.000001   0.000000   0.000000   0.000000   0.000000
    11  C    0.000006   0.000000   0.000000   0.000000   0.000000
    12  C    0.000248   0.000000   0.000000   0.000000   0.000000
    13  N   -0.005581  -0.000188   0.000009  -0.000178  -0.006170
    14  C   -0.000194  -0.000004   0.000000  -0.000004  -0.002798
    15  C    0.000110   0.000000   0.000000   0.000005   0.001600
    16  C   -0.000007   0.000000   0.000000   0.000012   0.002062
    17  C    0.000000   0.000000   0.000000   0.000001   0.000578
    18  S    0.000000   0.000000   0.000000   0.000000  -0.000084
    19  C    0.000003   0.000000   0.000000   0.000000  -0.000079
    20  C   -0.044738   0.009852  -0.000425   0.009961  -0.038436
    21  C    0.382901  -0.035265   0.010320  -0.000016   0.012542
    22  C   -0.047945   0.383547  -0.049281   0.009583  -0.001402
    23  C    0.011057  -0.053168   0.392870  -0.052430   0.010656
    24  C   -0.001486   0.009533  -0.050264   0.384067  -0.053893
    25  C    0.012968   0.000026   0.010342  -0.039421   0.387793
    26  H    0.000099  -0.000001   0.000000   0.000001  -0.000016
    27  H    0.000631   0.000038   0.000005   0.000013   0.000186
    28  H    0.000000   0.000000   0.000000   0.000000   0.000000
    29  H    0.000000   0.000000   0.000000   0.000000   0.000000
    30  H    0.000000   0.000000   0.000000   0.000000   0.000000
    31  H    0.000004   0.000000   0.000000   0.000000   0.000000
    32  H   -0.000332   0.000000   0.000000  -0.000001  -0.000018
    33  H    0.000244   0.000013  -0.000001  -0.000003   0.000467
    34  H   -0.000002   0.000000   0.000000   0.000011   0.000076
    35  H    0.000000   0.000000   0.000000   0.000000   0.000031
    36  H    0.000001   0.000000   0.000000   0.000000   0.000015
    37  H    0.730983  -0.015533  -0.000218   0.000060  -0.000185
    38  H   -0.015533   0.730593  -0.014795  -0.000307   0.000059
    39  H   -0.000218  -0.014795   0.739042  -0.014965  -0.000218
    40  H    0.000060  -0.000307  -0.014965   0.739487  -0.015442
    41  H   -0.000185   0.000059  -0.000218  -0.015442   0.726692
 Mulliken atomic charges:
              1
     1  O   -0.284219
     2  C    0.142415
     3  C    0.182934
     4  N   -0.247655
     5  N   -0.064800
     6  N   -0.182988
     7  C    0.010591
     8  C    0.042050
     9  C    0.038838
    10  C    0.041742
    11  C    0.036840
    12  C    0.185271
    13  N   -0.234163
    14  C    0.189527
    15  C   -0.035421
    16  C    0.047708
    17  C   -0.108642
    18  S    0.147426
    19  C   -0.128014
    20  C   -0.036588
    21  C    0.094322
    22  C    0.049767
    23  C    0.040709
    24  C    0.046156
    25  C    0.067881
    26  H    0.044985
    27  H    0.054321
    28  H   -0.023623
    29  H   -0.027272
    30  H   -0.023898
    31  H   -0.015807
    32  H    0.043004
    33  H    0.010983
    34  H   -0.027325
    35  H    0.012518
    36  H    0.021904
    37  H   -0.030676
    38  H   -0.014404
    39  H   -0.022423
    40  H   -0.020422
    41  H   -0.023551
 Sum of Mulliken atomic charges =   0.00000
 Mulliken charges with hydrogens summed into heavy atoms:
              1
     1  O   -0.284219
     2  C    0.142415
     3  C    0.282240
     4  N   -0.247655
     5  N   -0.064800
     6  N   -0.182988
     7  C    0.010591
     8  C    0.018427
     9  C    0.011566
    10  C    0.017844
    11  C    0.021033
    12  C    0.185271
    13  N   -0.234163
    14  C    0.243514
    15  C   -0.035421
    16  C    0.020383
    17  C   -0.096124
    18  S    0.147426
    19  C   -0.106109
    20  C   -0.036588
    21  C    0.063647
    22  C    0.035363
    23  C    0.018286
    24  C    0.025734
    25  C    0.044329
 Sum of Mulliken charges with hydrogens summed into heavy atoms =   0.00000
 Electronic spatial extent (au):  <R**2>=          10589.0825
 Charge=              0.0000 electrons
 Dipole moment (field-independent basis, Debye):
    X=             -2.9519    Y=              0.6003    Z=             -0.3923  Tot=              3.0378
 Quadrupole moment (field-independent basis, Debye-Ang):
   XX=           -146.1118   YY=           -147.1905   ZZ=           -148.2596
   XY=            -15.9836   XZ=              2.6164   YZ=              1.7112
 Traceless Quadrupole moment (field-independent basis, Debye-Ang):
   XX=              1.0755   YY=             -0.0032   ZZ=             -1.0723
   XY=            -15.9836   XZ=              2.6164   YZ=              1.7112
 Octapole moment (field-independent basis, Debye-Ang**2):
  XXX=            -37.3672  YYY=             22.2725  ZZZ=             -5.0733  XYY=            -11.4659
  XXY=            -38.4170  XXZ=              9.5288  XZZ=             -1.7051  YZZ=              3.6117
  YYZ=             -5.3566  XYZ=              2.7145
 Hexadecapole moment (field-independent basis, Debye-Ang**3):
 XXXX=          -9384.5093 YYYY=          -3679.1750 ZZZZ=           -549.3280 XXXY=           -241.4482
 XXXZ=            184.7242 YYYX=           -160.8072 YYYZ=             22.4362 ZZZX=             -2.9649
 ZZZY=              7.3293 XXYY=          -2374.0104 XXZZ=          -1839.0305 YYZZ=           -772.9595
 XXYZ=            -19.5381 YYXZ=             56.6248 ZZXY=              9.3824
 N-N= 2.179910121786D+03 E-N=-7.695174295512D+03  KE= 1.418315609784D+03
 No NMR shielding tensors so no spin-rotation constants.
 Leave Link  601 at Sat Sep 10 07:44:16 2022, MaxMem=  209715200 cpu:       2.8
 (Enter /opt/gaussian/l602.exe)
 Breneman (CHELPG) radii used.
 Read replacement radii for each type of atom:
 Rad(35) =   1.900000000000D+00
 Atom Element Radius
    1     8    1.70
    2     6    1.50
    3     6    1.50
    4     7    1.70
    5     7    1.70
    6     7    1.70
    7     6    1.50
    8     6    1.50
    9     6    1.50
   10     6    1.50
   11     6    1.50
   12     6    1.50
   13     7    1.70
   14     6    1.50
   15     6    1.50
   16     6    1.50
   17     6    1.50
   18    16    2.00
   19     6    1.50
   20     6    1.50
   21     6    1.50
   22     6    1.50
   23     6    1.50
   24     6    1.50
   25     6    1.50
   26     1    1.45
   27     1    1.45
   28     1    1.45
   29     1    1.45
   30     1    1.45
   31     1    1.45
   32     1    1.45
   33     1    1.45
   34     1    1.45
   35     1    1.45
   36     1    1.45
   37     1    1.45
   38     1    1.45
   39     1    1.45
   40     1    1.45
   41     1    1.45
 Generate Potential Derived Charges using the Breneman model, NDens= 1.
 Grid spacing= 0.300 Box extension= 2.800
 NStep X,Y,Z=   62     50     34   Total possible points=      105400
 Number of Points to Fit=   23740

 **********************************************************************

            Electrostatic Properties Using The SCF Density

 **********************************************************************

       Atomic Center    1 is at   0.184140 -1.748950 -0.088960
       Atomic Center    2 is at   0.070460 -0.538350 -0.269210
       Atomic Center    3 is at   1.036160  0.173030 -1.229560
       Atomic Center    4 is at   2.355480  0.322950 -0.637620
       Atomic Center    5 is at   2.823779  1.575011 -0.345250
       Atomic Center    6 is at   4.022849  1.488571  0.122850
       Atomic Center    7 is at   4.386480  0.156531  0.147300
       Atomic Center    8 is at   5.585260 -0.459249  0.551040
       Atomic Center    9 is at   5.658220 -1.840919  0.448480
       Atomic Center   10 is at   4.564261 -2.604869 -0.035060
       Atomic Center   11 is at   3.369980 -2.017289 -0.432480
       Atomic Center   12 is at   3.309410 -0.615639 -0.338930
       Atomic Center   13 is at  -0.876450  0.211630  0.375920
       Atomic Center   14 is at  -1.752260 -0.489071  1.346140
       Atomic Center   15 is at  -2.998710 -1.095431  0.742380
       Atomic Center   16 is at  -4.307010 -0.510572  0.826960
       Atomic Center   17 is at  -5.272240 -1.254172  0.200530
       Atomic Center   18 is at  -4.602089 -2.691742 -0.510430
       Atomic Center   19 is at  -3.011090 -2.282721  0.047340
       Atomic Center   20 is at  -1.102691  1.614279  0.148590
       Atomic Center   21 is at  -0.310271  2.568480  0.799810
       Atomic Center   22 is at  -0.555461  3.929520  0.600620
       Atomic Center   23 is at  -1.596392  4.341939 -0.236440
       Atomic Center   24 is at  -2.390211  3.389029 -0.882350
       Atomic Center   25 is at  -2.145541  2.025879 -0.693550
       Atomic Center   26 is at   1.112180 -0.459610 -2.126560
       Atomic Center   27 is at   0.711919  1.178280 -1.517070
       Atomic Center   28 is at   6.415930  0.140242  0.926480
       Atomic Center   29 is at   6.571050 -2.358368  0.750910
       Atomic Center   30 is at   4.662151 -3.691699 -0.085390
       Atomic Center   31 is at   2.510901 -2.600429 -0.761440
       Atomic Center   32 is at  -1.138650 -1.273971  1.806360
       Atomic Center   33 is at  -2.023650  0.244369  2.117290
       Atomic Center   34 is at  -4.515200  0.427608  1.343750
       Atomic Center   35 is at  -6.337750 -1.049182  0.120170
       Atomic Center   36 is at  -2.159219 -2.923961 -0.168410
       Atomic Center   37 is at   0.509789  2.240930  1.439780
       Atomic Center   38 is at   0.075078  4.668520  1.098990
       Atomic Center   39 is at  -1.786022  5.406569 -0.389610
       Atomic Center   40 is at  -3.201651  3.705999 -1.541170
       Atomic Center   41 is at  -2.756281  1.274599 -1.196390
   23740 points will be used for fitting atomic charges
 Fitting point charges to electrostatic potential
 Charges from ESP fit, RMS=   0.00404 RRMS=   0.31443:
 Charge=   0.00000 Dipole=    -2.9366     0.5251    -0.3495 Tot=     3.0036
              1
     1  O   -0.483062
     2  C    0.428475
     3  C    0.031656
     4  N    0.243349
     5  N   -0.192519
     6  N   -0.366390
     7  C    0.434490
     8  C   -0.288351
     9  C   -0.032902
    10  C   -0.125737
    11  C   -0.107910
    12  C   -0.088031
    13  N   -0.293009
    14  C    0.153822
    15  C    0.089736
    16  C   -0.112064
    17  C   -0.187535
    18  S    0.026038
    19  C   -0.260070
    20  C    0.362202
    21  C   -0.254573
    22  C   -0.054481
    23  C   -0.088509
    24  C   -0.087596
    25  C   -0.143987
    26  H    0.041628
    27  H   -0.023959
    28  H    0.135013
    29  H    0.083605
    30  H    0.096597
    31  H    0.111402
    32  H    0.013860
    33  H   -0.009225
    34  H    0.075404
    35  H    0.164881
    36  H    0.205903
    37  H    0.145014
    38  H    0.096884
    39  H    0.089133
    40  H    0.095689
    41  H    0.075131
 Charges from ESP fit with hydrogens summed into heavy atoms:
              1
     1  O   -0.483062
     2  C    0.428475
     3  C    0.049325
     4  N    0.243349
     5  N   -0.192519
     6  N   -0.366390
     7  C    0.434490
     8  C   -0.153337
     9  C    0.050704
    10  C   -0.029140
    11  C    0.003491
    12  C   -0.088031
    13  N   -0.293009
    14  C    0.158456
    15  C    0.089736
    16  C   -0.036660
    17  C   -0.022654
    18  S    0.026038
    19  C   -0.054167
    20  C    0.362202
    21  C   -0.109559
    22  C    0.042403
    23  C    0.000624
    24  C    0.008092
    25  C   -0.068856
    26  H    0.000000
    27  H    0.000000
    28  H    0.000000
    29  H    0.000000
    30  H    0.000000
    31  H    0.000000
    32  H    0.000000
    33  H    0.000000
    34  H    0.000000
    35  H    0.000000
    36  H    0.000000
    37  H    0.000000
    38  H    0.000000
    39  H    0.000000
    40  H    0.000000
    41  H    0.000000
 -----------------------------------------------------------------

              Electrostatic Properties (Atomic Units)

 -----------------------------------------------------------------
    Center     Electric         -------- Electric Field --------
               Potential          X             Y             Z
 -----------------------------------------------------------------
    1 Atom    -22.365367
    2 Atom    -14.639673
    3 Atom    -14.688307
    4 Atom    -18.290602
    5 Atom    -18.329439
    6 Atom    -18.367804
    7 Atom    -14.736556
    8 Atom    -14.748196
    9 Atom    -14.751568
   10 Atom    -14.747895
   11 Atom    -14.746737
   12 Atom    -14.715156
   13 Atom    -18.323772
   14 Atom    -14.701220
   15 Atom    -14.744140
   16 Atom    -14.748419
   17 Atom    -14.728950
   18 Atom    -59.185633
   19 Atom    -14.734674
   20 Atom    -14.700609
   21 Atom    -14.740753
   22 Atom    -14.739945
   23 Atom    -14.739251
   24 Atom    -14.738096
   25 Atom    -14.739211
   26 Atom     -1.069292
   27 Atom     -1.067145
   28 Atom     -1.089104
   29 Atom     -1.095580
   30 Atom     -1.094203
   31 Atom     -1.089657
   32 Atom     -1.090850
   33 Atom     -1.086054
   34 Atom     -1.078695
   35 Atom     -1.063537
   36 Atom     -1.071310
   37 Atom     -1.081606
   38 Atom     -1.084186
   39 Atom     -1.082461
   40 Atom     -1.081160
   41 Atom     -1.078655
 -----------------------------------------------------------------
 Leave Link  602 at Sat Sep 10 07:44:26 2022, MaxMem=  209715200 cpu:      74.1
 (Enter /opt/gaussian/l9999.exe)
 1\1\GINC-LQCAPF-6\SP\RB3LYP\CC-pVDZ\C19H16N4O1S1\LQCAPF-6\10-Sep-2022\
 0\\#p b3lyp/cc-pvdz pop=(chelpg,readradii)\\Mol09.log\\0,1\O,0,0.18414
 ,-1.74895,-0.08896\C,0,0.07046,-0.53835,-0.26921\C,0,1.03616,0.17303,-
 1.22956\N,0,2.35548,0.32295,-0.63762\N,0,2.82378,1.57501,-0.34525\N,0,
 4.02285,1.48857,0.12285\C,0,4.38648,0.15653,0.1473\C,0,5.58526,-0.4592
 5,0.55104\C,0,5.65822,-1.84092,0.44848\C,0,4.56426,-2.60487,-0.03506\C
 ,0,3.36998,-2.01729,-0.43248\C,0,3.30941,-0.61564,-0.33893\N,0,-0.8764
 5,0.21163,0.37592\C,0,-1.75226,-0.48907,1.34614\C,0,-2.99871,-1.09543,
 0.74238\C,0,-4.30701,-0.51057,0.82696\C,0,-5.27224,-1.25417,0.20053\S,
 0,-4.60209,-2.69174,-0.51043\C,0,-3.01109,-2.28272,0.04734\C,0,-1.1026
 9,1.61428,0.14859\C,0,-0.31027,2.56848,0.79981\C,0,-0.55546,3.92952,0.
 60062\C,0,-1.59639,4.34194,-0.23644\C,0,-2.39021,3.38903,-0.88235\C,0,
 -2.14554,2.02588,-0.69355\H,0,1.11218,-0.45961,-2.12656\H,0,0.71192,1.
 17828,-1.51707\H,0,6.41593,0.14024,0.92648\H,0,6.57105,-2.35837,0.7509
 1\H,0,4.66215,-3.6917,-0.08539\H,0,2.5109,-2.60043,-0.76144\H,0,-1.138
 65,-1.27397,1.80636\H,0,-2.02365,0.24437,2.11729\H,0,-4.5152,0.42761,1
 .34375\H,0,-6.33775,-1.04918,0.12017\H,0,-2.15922,-2.92396,-0.16841\H,
 0,0.50979,2.24093,1.43978\H,0,0.07508,4.66852,1.09899\H,0,-1.78602,5.4
 0657,-0.38961\H,0,-3.20165,3.706,-1.54117\H,0,-2.75628,1.2746,-1.19639
 \\Version=EM64L-G09RevC.01\State=1-A\HF=-1426.1250716\RMSD=4.940e-09\D
 ipole=-1.1613801,0.2361957,-0.1543609\Quadrupole=0.7995778,-0.002367,-
 0.7972108,-11.8834178,1.9452009,1.2722147\PG=C01 [X(C19H16N4O1S1)]\\@


 THE NUMBERS ARE MEANINGLESS, BUT THE TRENDS ARE IMPORTANT.
     -- LARRY BURGGRAF
 Job cpu time:  0 days  1 hours  4 minutes 19.6 seconds.
 File lengths (MBytes):  RWF=    107 Int=      0 D2E=      0 Chk=      8 Scr=      1
 Normal termination of Gaussian 09 at Sat Sep 10 07:44:26 2022.
