 Entering Gaussian System, Link 0=g09
 Input=Mol13.gjf
 Output=Mol13.log
 Initial command:
 /opt/gaussian/l1.exe /home/scr/lqcapf-6/Gau-548659.inp -scrdir=/home/scr/lqcapf-6/
 Entering Link 1 = /opt/gaussian/l1.exe PID=    548661.
  
 Copyright (c) 1988,1990,1992,1993,1995,1998,2003,2009,2011,
            Gaussian, Inc.  All Rights Reserved.
  
 This is part of the Gaussian(R) 09 program.  It is based on
 the Gaussian(R) 03 system (copyright 2003, Gaussian, Inc.),
 the Gaussian(R) 98 system (copyright 1998, Gaussian, Inc.),
 the Gaussian(R) 94 system (copyright 1995, Gaussian, Inc.),
 the Gaussian 92(TM) system (copyright 1992, Gaussian, Inc.),
 the Gaussian 90(TM) system (copyright 1990, Gaussian, Inc.),
 the Gaussian 88(TM) system (copyright 1988, Gaussian, Inc.),
 the Gaussian 86(TM) system (copyright 1986, Carnegie Mellon
 University), and the Gaussian 82(TM) system (copyright 1983,
 Carnegie Mellon University). Gaussian is a federally registered
 trademark of Gaussian, Inc.
  
 This software contains proprietary and confidential information,
 including trade secrets, belonging to Gaussian, Inc.
  
 This software is provided under written license and may be
 used, copied, transmitted, or stored only in accord with that
 written license.
  
 The following legend is applicable only to US Government
 contracts under FAR:
  
                    RESTRICTED RIGHTS LEGEND
  
 Use, reproduction and disclosure by the US Government is
 subject to restrictions as set forth in subparagraphs (a)
 and (c) of the Commercial Computer Software - Restricted
 Rights clause in FAR 52.227-19.
  
 Gaussian, Inc.
 340 Quinnipiac St., Bldg. 40, Wallingford CT 06492
  
  
 ---------------------------------------------------------------
 Warning -- This program may not be used in any manner that
 competes with the business of Gaussian, Inc. or will provide
 assistance to any competitor of Gaussian, Inc.  The licensee
 of this program is prohibited from giving any competitor of
 Gaussian, Inc. access to this program.  By using this program,
 the user acknowledges that Gaussian, Inc. is engaged in the
 business of creating and licensing software in the field of
 computational chemistry and represents and warrants to the
 licensee that it is not a competitor of Gaussian, Inc. and that
 it will not use this program in any manner prohibited above.
 ---------------------------------------------------------------
  

 Cite this work as:
 Gaussian 09, Revision C.01,
 M. J. Frisch, G. W. Trucks, H. B. Schlegel, G. E. Scuseria, 
 M. A. Robb, J. R. Cheeseman, G. Scalmani, V. Barone, B. Mennucci, 
 G. A. Petersson, H. Nakatsuji, M. Caricato, X. Li, H. P. Hratchian, 
 A. F. Izmaylov, J. Bloino, G. Zheng, J. L. Sonnenberg, M. Hada, 
 M. Ehara, K. Toyota, R. Fukuda, J. Hasegawa, M. Ishida, T. Nakajima, 
 Y. Honda, O. Kitao, H. Nakai, T. Vreven, J. A. Montgomery, Jr., 
 J. E. Peralta, F. Ogliaro, M. Bearpark, J. J. Heyd, E. Brothers, 
 K. N. Kudin, V. N. Staroverov, T. Keith, R. Kobayashi, J. Normand, 
 K. Raghavachari, A. Rendell, J. C. Burant, S. S. Iyengar, J. Tomasi, 
 M. Cossi, N. Rega, J. M. Millam, M. Klene, J. E. Knox, J. B. Cross, 
 V. Bakken, C. Adamo, J. Jaramillo, R. Gomperts, R. E. Stratmann, 
 O. Yazyev, A. J. Austin, R. Cammi, C. Pomelli, J. W. Ochterski, 
 R. L. Martin, K. Morokuma, V. G. Zakrzewski, G. A. Voth, 
 P. Salvador, J. J. Dannenberg, S. Dapprich, A. D. Daniels, 
 O. Farkas, J. B. Foresman, J. V. Ortiz, J. Cioslowski, 
 and D. J. Fox, Gaussian, Inc., Wallingford CT, 2010.
 
 ******************************************
 Gaussian 09:  EM64L-G09RevC.01 23-Sep-2011
                10-Sep-2022 
 ******************************************
 %nprocshared=8
 Will use up to    8 processors via shared memory.
 %mem=1600MB
 ---------------------------------------
 #p b3lyp/cc-pvdz pop=(chelpg,readradii)
 ---------------------------------------
 1/38=1/1;
 2/12=2,17=6,18=5,40=1/2;
 3/5=16,11=2,16=1,25=1,30=1,74=-5/1,2,3;
 4//1;
 5/5=2,38=5/2;
 6/7=2,8=2,9=2,10=2,15=8,20=103,28=1/1,2;
 99/5=1,9=1/99;
 Leave Link    1 at Sat Sep 10 08:18:34 2022, MaxMem=  209715200 cpu:       0.2
 (Enter /opt/gaussian/l101.exe)
 ---------
 Mol13.log
 ---------
 Charge =  0 Multiplicity = 1
 Symbolic Z-Matrix:
 O                     1.23964  -1.23079  -0.65786 
 C                     1.5811   -0.10877  -0.98165 
 C                     3.07638   0.23481  -1.1502 
 N                     3.91484  -0.92034  -0.96228 
 N                     4.5071   -1.49859  -2.05279 
 N                     5.2059   -2.51248  -1.67544 
 C                     5.08917  -2.63723  -0.30412 
 C                     5.66062  -3.56544   0.58402 
 C                     5.36376  -3.42639   1.93255 
 C                     4.51414  -2.39034   2.39776 
 C                     3.93784  -1.4671    1.53435 
 C                     4.24494  -1.61093   0.17133 
 N                     0.68711   0.92956  -1.22277 
 C                     1.16562   2.29128  -1.49646 
 C                     1.59559   3.0918   -0.28364 
 C                     2.28357   4.34747  -0.39355 
 C                     2.5664    4.91182   0.82133 
 S                     2.0025    3.92335   2.13288 
 C                     1.37806   2.73807   1.02639 
 C                    -0.72939   0.71054  -1.15463 
 C                    -1.30665  -0.4882   -1.60854 
 C                    -2.68932  -0.65604  -1.57177 
 C                    -3.52698   0.35065  -1.07643 
 C                    -2.95298   1.5433   -0.62348 
 C                    -1.57058   1.72451  -0.6664 
 N                    -4.94533   0.13611  -1.07266 
 S                    -5.68793  -0.40796   0.40651 
 O                    -4.85416  -0.05189   1.58347 
 O                    -7.08836   0.0616    0.28725 
 C                    -5.635    -2.18732   0.22368 
 C                    -5.68053  -3.00198   1.49566 
 C                    -4.41057  -2.93868   0.69129 
 H                     3.27852   0.58658  -2.17167 
 H                     3.36803   1.03378  -0.45061 
 H                     6.31116  -4.35826   0.21185 
 H                     5.78688  -4.12691   2.65536 
 H                     4.30283  -2.32109   3.46716 
 H                     3.27312  -0.68348   1.89932 
 H                     1.99714   2.24815  -2.21669 
 H                     0.35546   2.81707  -2.02299 
 H                     2.55679   4.80771  -1.34455 
 H                     3.07879   5.85004   1.02446 
 H                     0.87716   1.84943   1.40521 
 H                    -0.67683  -1.28585  -1.99294 
 H                    -3.13643  -1.5774   -1.94799 
 H                    -3.58833   2.33004  -0.21248 
 H                    -1.14987   2.65542  -0.28529 
 H                    -5.4808    0.97777  -1.30095 
 H                    -6.19172  -2.50755  -0.65859 
 H                    -5.69738  -2.44975   2.43719 
 H                    -6.28712  -3.90931   1.46865 
 H                    -4.11304  -3.80449   0.09576 
 H                    -3.59325  -2.34449   1.10333 
 
 NAtoms=     53 NQM=        0 NQMF=       0 NMMI=     53 NMMIF=      0
                NMic=       0 NMicF=      0.
                    Isotopes and Nuclear Properties:
 (Nuclear quadrupole moments (NQMom) in fm**2, nuclear magnetic moments (NMagM)
  in nuclear magnetons)

  Atom         1           2           3           4           5           6           7           8           9          10
 IAtWgt=          16          12          12          14          14          14          12          12          12          12
 AtmWgt=  15.9949146  12.0000000  12.0000000  14.0030740  14.0030740  14.0030740  12.0000000  12.0000000  12.0000000  12.0000000
 NucSpn=           0           0           0           2           2           2           0           0           0           0
 AtZEff=   0.0000000   0.0000000   0.0000000   0.0000000   0.0000000   0.0000000   0.0000000   0.0000000   0.0000000   0.0000000
 NQMom=    0.0000000   0.0000000   0.0000000   2.0440000   2.0440000   2.0440000   0.0000000   0.0000000   0.0000000   0.0000000
 NMagM=    0.0000000   0.0000000   0.0000000   0.4037610   0.4037610   0.4037610   0.0000000   0.0000000   0.0000000   0.0000000

  Atom        11          12          13          14          15          16          17          18          19          20
 IAtWgt=          12          12          14          12          12          12          12          32          12          12
 AtmWgt=  12.0000000  12.0000000  14.0030740  12.0000000  12.0000000  12.0000000  12.0000000  31.9720718  12.0000000  12.0000000
 NucSpn=           0           0           2           0           0           0           0           0           0           0
 AtZEff=   0.0000000   0.0000000   0.0000000   0.0000000   0.0000000   0.0000000   0.0000000   0.0000000   0.0000000   0.0000000
 NQMom=    0.0000000   0.0000000   2.0440000   0.0000000   0.0000000   0.0000000   0.0000000   0.0000000   0.0000000   0.0000000
 NMagM=    0.0000000   0.0000000   0.4037610   0.0000000   0.0000000   0.0000000   0.0000000   0.0000000   0.0000000   0.0000000

  Atom        21          22          23          24          25          26          27          28          29          30
 IAtWgt=          12          12          12          12          12          14          32          16          16          12
 AtmWgt=  12.0000000  12.0000000  12.0000000  12.0000000  12.0000000  14.0030740  31.9720718  15.9949146  15.9949146  12.0000000
 NucSpn=           0           0           0           0           0           2           0           0           0           0
 AtZEff=   0.0000000   0.0000000   0.0000000   0.0000000   0.0000000   0.0000000   0.0000000   0.0000000   0.0000000   0.0000000
 NQMom=    0.0000000   0.0000000   0.0000000   0.0000000   0.0000000   2.0440000   0.0000000   0.0000000   0.0000000   0.0000000
 NMagM=    0.0000000   0.0000000   0.0000000   0.0000000   0.0000000   0.4037610   0.0000000   0.0000000   0.0000000   0.0000000

  Atom        31          32          33          34          35          36          37          38          39          40
 IAtWgt=          12          12           1           1           1           1           1           1           1           1
 AtmWgt=  12.0000000  12.0000000   1.0078250   1.0078250   1.0078250   1.0078250   1.0078250   1.0078250   1.0078250   1.0078250
 NucSpn=           0           0           1           1           1           1           1           1           1           1
 AtZEff=   0.0000000   0.0000000   0.0000000   0.0000000   0.0000000   0.0000000   0.0000000   0.0000000   0.0000000   0.0000000
 NQMom=    0.0000000   0.0000000   0.0000000   0.0000000   0.0000000   0.0000000   0.0000000   0.0000000   0.0000000   0.0000000
 NMagM=    0.0000000   0.0000000   2.7928460   2.7928460   2.7928460   2.7928460   2.7928460   2.7928460   2.7928460   2.7928460

  Atom        41          42          43          44          45          46          47          48          49          50
 IAtWgt=           1           1           1           1           1           1           1           1           1           1
 AtmWgt=   1.0078250   1.0078250   1.0078250   1.0078250   1.0078250   1.0078250   1.0078250   1.0078250   1.0078250   1.0078250
 NucSpn=           1           1           1           1           1           1           1           1           1           1
 AtZEff=   0.0000000   0.0000000   0.0000000   0.0000000   0.0000000   0.0000000   0.0000000   0.0000000   0.0000000   0.0000000
 NQMom=    0.0000000   0.0000000   0.0000000   0.0000000   0.0000000   0.0000000   0.0000000   0.0000000   0.0000000   0.0000000
 NMagM=    2.7928460   2.7928460   2.7928460   2.7928460   2.7928460   2.7928460   2.7928460   2.7928460   2.7928460   2.7928460

  Atom        51          52          53
 IAtWgt=           1           1           1
 AtmWgt=   1.0078250   1.0078250   1.0078250
 NucSpn=           1           1           1
 AtZEff=   0.0000000   0.0000000   0.0000000
 NQMom=    0.0000000   0.0000000   0.0000000
 NMagM=    2.7928460   2.7928460   2.7928460
 Leave Link  101 at Sat Sep 10 08:18:34 2022, MaxMem=  209715200 cpu:       0.7
 (Enter /opt/gaussian/l202.exe)
 Stoichiometry    C22H21N5O3S2
 Framework group  C1[X(C22H21N5O3S2)]
 Deg. of freedom   153
 Full point group                 C1      NOp   1
 Largest Abelian subgroup         C1      NOp   1
 Largest concise Abelian subgroup C1      NOp   1
                         Standard orientation:                         
 ---------------------------------------------------------------------
 Center     Atomic      Atomic             Coordinates (Angstroms)
 Number     Number       Type             X           Y           Z
 ---------------------------------------------------------------------
      1          8           0        1.239641   -1.230789   -0.657860
      2          6           0        1.581101   -0.108769   -0.981650
      3          6           0        3.076381    0.234811   -1.150200
      4          7           0        3.914841   -0.920339   -0.962280
      5          7           0        4.507102   -1.498589   -2.052790
      6          7           0        5.205902   -2.512479   -1.675440
      7          6           0        5.089172   -2.637229   -0.304120
      8          6           0        5.660622   -3.565439    0.584020
      9          6           0        5.363762   -3.426389    1.932550
     10          6           0        4.514142   -2.390339    2.397760
     11          6           0        3.937842   -1.467099    1.534350
     12          6           0        4.244942   -1.610929    0.171330
     13          7           0        0.687111    0.929561   -1.222770
     14          6           0        1.165621    2.291281   -1.496460
     15          6           0        1.595591    3.091801   -0.283640
     16          6           0        2.283571    4.347471   -0.393550
     17          6           0        2.566401    4.911821    0.821330
     18         16           0        2.002501    3.923351    2.132880
     19          6           0        1.378061    2.738071    1.026390
     20          6           0       -0.729389    0.710541   -1.154630
     21          6           0       -1.306649   -0.488199   -1.608540
     22          6           0       -2.689319   -0.656040   -1.571770
     23          6           0       -3.526979    0.350650   -1.076430
     24          6           0       -2.952979    1.543300   -0.623480
     25          6           0       -1.570579    1.724511   -0.666400
     26          7           0       -4.945329    0.136110   -1.072660
     27         16           0       -5.687929   -0.407960    0.406510
     28          8           0       -4.854159   -0.051890    1.583470
     29          8           0       -7.088359    0.061600    0.287250
     30          6           0       -5.634998   -2.187320    0.223680
     31          6           0       -5.680528   -3.001980    1.495660
     32          6           0       -4.410568   -2.938680    0.691290
     33          1           0        3.278521    0.586581   -2.171670
     34          1           0        3.368031    1.033781   -0.450610
     35          1           0        6.311162   -4.358258    0.211850
     36          1           0        5.786882   -4.126909    2.655360
     37          1           0        4.302832   -2.321089    3.467160
     38          1           0        3.273121   -0.683479    1.899320
     39          1           0        1.997141    2.248151   -2.216690
     40          1           0        0.355461    2.817071   -2.022990
     41          1           0        2.556791    4.807711   -1.344550
     42          1           0        3.078791    5.850041    1.024460
     43          1           0        0.877161    1.849431    1.405210
     44          1           0       -0.676828   -1.285849   -1.992940
     45          1           0       -3.136428   -1.577400   -1.947990
     46          1           0       -3.588329    2.330040   -0.212480
     47          1           0       -1.149869    2.655421   -0.285290
     48          1           0       -5.480799    0.977770   -1.300950
     49          1           0       -6.191718   -2.507550   -0.658590
     50          1           0       -5.697378   -2.449750    2.437190
     51          1           0       -6.287118   -3.909310    1.468650
     52          1           0       -4.113038   -3.804490    0.095760
     53          1           0       -3.593248   -2.344490    1.103330
 ---------------------------------------------------------------------
 Rotational constants (GHZ):      0.1553525      0.0620346      0.0512246
 Leave Link  202 at Sat Sep 10 08:18:34 2022, MaxMem=  209715200 cpu:       0.1
 (Enter /opt/gaussian/l301.exe)
 Standard basis: CC-pVDZ (5D, 7F)
 Ernie: Thresh=  0.10000D-02 Tol=  0.10000D-05 Strict=F.
 Ernie:  80 primitive shells out of 865 were deleted.
 There are   561 symmetry adapted basis functions of A   symmetry.
 Integral buffers will be    131072 words long.
 Raffenetti 2 integral format.
 Two-electron integral symmetry is turned on.
   561 basis functions,  1279 primitive gaussians,   593 cartesian basis functions
   122 alpha electrons      122 beta electrons
       nuclear repulsion energy      3406.5720220491 Hartrees.
 IExCor=  402 DFT=T Ex+Corr=B3LYP ExCW=0 ScaHFX=  0.200000
 ScaDFX=  0.800000  0.720000  1.000000  0.810000 ScalE2=  1.000000  1.000000
 IRadAn=      0 IRanWt=     -1 IRanGd=            0 ICorTp=0
 NAtoms=   53 NActive=   53 NUniq=   53 SFac= 1.00D+00 NAtFMM=   60 NAOKFM=F Big=F
 Leave Link  301 at Sat Sep 10 08:18:34 2022, MaxMem=  209715200 cpu:       0.3
 (Enter /opt/gaussian/l302.exe)
 NPDir=0 NMtPBC=     1 NCelOv=     1 NCel=       1 NClECP=     1 NCelD=      1
         NCelK=      1 NCelE2=     1 NClLst=     1 CellRange=     0.0.
 One-electron integrals computed using PRISM.
 NBasis=   561 RedAO= T  NBF=   561
 NBsUse=   561 1.00D-06 NBFU=   561
 Precomputing XC quadrature grid using
 IXCGrd= 2 IRadAn=           0 IRanWt=          -1 IRanGd=           0 AccXCQ= 0.00D+00.
 NRdTot=    3414 NPtTot=      436834 NUsed=      461434 NTot=      461466
 NSgBfM=   571   571   571   571   571 NAtAll=    53    53.
 Leave Link  302 at Sat Sep 10 08:18:35 2022, MaxMem=  209715200 cpu:       8.9
 (Enter /opt/gaussian/l303.exe)
 DipDrv:  MaxL=1.
 Leave Link  303 at Sat Sep 10 08:18:35 2022, MaxMem=  209715200 cpu:       1.3
 (Enter /opt/gaussian/l401.exe)
 Harris functional with IExCor=  402 diagonalized for initial guess.
 ExpMin= 1.22D-01 ExpMax= 1.11D+05 ExpMxC= 1.07D+03 IAcc=2 IRadAn=         4 AccDes= 0.00D+00
 HarFok:  IExCor=  402 AccDes= 0.00D+00 IRadAn=         4 IDoV= 1
 ScaDFX=  1.000000  1.000000  1.000000  1.000000
 FoFCou: FMM=F IPFlag=           0 FMFlag=      100000 FMFlg1=           0
         NFxFlg=           0 DoJE=T BraDBF=F KetDBF=T FulRan=T
         Omega=  0.000000  0.000000  1.000000  0.000000  0.000000 ICntrl=     500 IOpCl=  0
         NMat0=    1 NMatS0=    1 NMatT0=    0 NMatD0=    1 NMtDS0=    0 NMtDT0=    0
         I1Cent=           4 NGrid=           0.
 Petite list used in FoFCou.
 Harris En= -2146.58996002212    
 Initial guess orbital symmetries:
       Occupied  (A) (A) (A) (A) (A) (A) (A) (A) (A) (A) (A) (A)
                 (A) (A) (A) (A) (A) (A) (A) (A) (A) (A) (A) (A)
                 (A) (A) (A) (A) (A) (A) (A) (A) (A) (A) (A) (A)
                 (A) (A) (A) (A) (A) (A) (A) (A) (A) (A) (A) (A)
                 (A) (A) (A) (A) (A) (A) (A) (A) (A) (A) (A) (A)
                 (A) (A) (A) (A) (A) (A) (A) (A) (A) (A) (A) (A)
                 (A) (A) (A) (A) (A) (A) (A) (A) (A) (A) (A) (A)
                 (A) (A) (A) (A) (A) (A) (A) (A) (A) (A) (A) (A)
                 (A) (A) (A) (A) (A) (A) (A) (A) (A) (A) (A) (A)
                 (A) (A) (A) (A) (A) (A) (A) (A) (A) (A) (A) (A)
                 (A) (A)
       Virtual   (A) (A) (A) (A) (A) (A) (A) (A) (A) (A) (A) (A)
                 (A) (A) (A) (A) (A) (A) (A) (A) (A) (A) (A) (A)
                 (A) (A) (A) (A) (A) (A) (A) (A) (A) (A) (A) (A)
                 (A) (A) (A) (A) (A) (A) (A) (A) (A) (A) (A) (A)
                 (A) (A) (A) (A) (A) (A) (A) (A) (A) (A) (A) (A)
                 (A) (A) (A) (A) (A) (A) (A) (A) (A) (A) (A) (A)
                 (A) (A) (A) (A) (A) (A) (A) (A) (A) (A) (A) (A)
                 (A) (A) (A) (A) (A) (A) (A) (A) (A) (A) (A) (A)
                 (A) (A) (A) (A) (A) (A) (A) (A) (A) (A) (A) (A)
                 (A) (A) (A) (A) (A) (A) (A) (A) (A) (A) (A) (A)
                 (A) (A) (A) (A) (A) (A) (A) (A) (A) (A) (A) (A)
                 (A) (A) (A) (A) (A) (A) (A) (A) (A) (A) (A) (A)
                 (A) (A) (A) (A) (A) (A) (A) (A) (A) (A) (A) (A)
                 (A) (A) (A) (A) (A) (A) (A) (A) (A) (A) (A) (A)
                 (A) (A) (A) (A) (A) (A) (A) (A) (A) (A) (A) (A)
                 (A) (A) (A) (A) (A) (A) (A) (A) (A) (A) (A) (A)
                 (A) (A) (A) (A) (A) (A) (A) (A) (A) (A) (A) (A)
                 (A) (A) (A) (A) (A) (A) (A) (A) (A) (A) (A) (A)
                 (A) (A) (A) (A) (A) (A) (A) (A) (A) (A) (A) (A)
                 (A) (A) (A) (A) (A) (A) (A) (A) (A) (A) (A) (A)
                 (A) (A) (A) (A) (A) (A) (A) (A) (A) (A) (A) (A)
                 (A) (A) (A) (A) (A) (A) (A) (A) (A) (A) (A) (A)
                 (A) (A) (A) (A) (A) (A) (A) (A) (A) (A) (A) (A)
                 (A) (A) (A) (A) (A) (A) (A) (A) (A) (A) (A) (A)
                 (A) (A) (A) (A) (A) (A) (A) (A) (A) (A) (A) (A)
                 (A) (A) (A) (A) (A) (A) (A) (A) (A) (A) (A) (A)
                 (A) (A) (A) (A) (A) (A) (A) (A) (A) (A) (A) (A)
                 (A) (A) (A) (A) (A) (A) (A) (A) (A) (A) (A) (A)
                 (A) (A) (A) (A) (A) (A) (A) (A) (A) (A) (A) (A)
                 (A) (A) (A) (A) (A) (A) (A) (A) (A) (A) (A) (A)
                 (A) (A) (A) (A) (A) (A) (A) (A) (A) (A) (A) (A)
                 (A) (A) (A) (A) (A) (A) (A) (A) (A) (A) (A) (A)
                 (A) (A) (A) (A) (A) (A) (A) (A) (A) (A) (A) (A)
                 (A) (A) (A) (A) (A) (A) (A) (A) (A) (A) (A) (A)
                 (A) (A) (A) (A) (A) (A) (A) (A) (A) (A) (A) (A)
                 (A) (A) (A) (A) (A) (A) (A) (A) (A) (A) (A) (A)
                 (A) (A) (A) (A) (A) (A) (A)
 The electronic state of the initial guess is 1-A.
 Leave Link  401 at Sat Sep 10 08:18:39 2022, MaxMem=  209715200 cpu:      26.8
 (Enter /opt/gaussian/l502.exe)
 Closed shell SCF:
 Requested convergence on RMS density matrix=1.00D-08 within 128 cycles.
 Requested convergence on MAX density matrix=1.00D-06.
 Requested convergence on             energy=1.00D-06.
 No special actions if energy rises.
 Using DIIS extrapolation, IDIIS=  1040.
 Integral symmetry usage will be decided dynamically.
       460944 words used for storage of precomputed grid.
 IEnd=     1543265 IEndB=     1543265 NGot=   209715200 MDV=   208540818
 LenX=   208540818 LenY=   208188576
 Fock matrices will be formed incrementally for  20 cycles.
 Integral accuracy reduced to 1.0D-05 until final iterations.

 Cycle   1  Pass 0  IDiag  1:
 FoFCou: FMM=F IPFlag=           0 FMFlag=      100000 FMFlg1=           0
         NFxFlg=           0 DoJE=F BraDBF=F KetDBF=F FulRan=T
         Omega=  0.000000  0.000000  1.000000  0.000000  0.000000 ICntrl=       0 IOpCl=  0
         NMat0=    1 NMatS0=    1 NMatT0=    0 NMatD0=    1 NMtDS0=    0 NMtDT0=    0
         I1Cent=           0 NGrid=           0.
 Symmetry not used in FoFCou.
 E= -2145.83136298986    
 DIIS: error= 2.45D-02 at cycle   1 NSaved=   1.
 NSaved= 1 IEnMin= 1 EnMin= -2145.83136298986     IErMin= 1 ErrMin= 2.45D-02
 ErrMax= 2.45D-02 EMaxC= 1.00D-01 BMatC= 9.45D-01 BMatP= 9.45D-01
 IDIUse=3 WtCom= 7.55D-01 WtEn= 2.45D-01
 Coeff-Com:  0.100D+01
 Coeff-En:   0.100D+01
 Coeff:      0.100D+01
 Gap=     0.306 Goal=   None    Shift=    0.000
 GapD=    0.306 DampG=1.000 DampE=0.500 DampFc=0.5000 IDamp=-1.
 Damping current iteration by 5.00D-01
 RMSDP=4.48D-03 MaxDP=3.00D-01              OVMax= 3.08D-01

 Cycle   2  Pass 0  IDiag  1:
 RMSU=  1.57D-03    CP:  9.85D-01
 E= -2145.98723526458     Delta-E=       -0.155872274715 Rises=F Damp=T
 DIIS: error= 1.29D-02 at cycle   2 NSaved=   2.
 NSaved= 2 IEnMin= 2 EnMin= -2145.98723526458     IErMin= 2 ErrMin= 1.29D-02
 ErrMax= 1.29D-02 EMaxC= 1.00D-01 BMatC= 2.00D-01 BMatP= 9.45D-01
 IDIUse=3 WtCom= 8.71D-01 WtEn= 1.29D-01
 Coeff-Com:  0.277D+00 0.723D+00
 Coeff-En:   0.422D+00 0.578D+00
 Coeff:      0.296D+00 0.704D+00
 Gap=     0.252 Goal=   None    Shift=    0.000
 RMSDP=1.43D-03 MaxDP=7.47D-02 DE=-1.56D-01 OVMax= 2.97D-01

 Cycle   3  Pass 0  IDiag  1:
 RMSU=  8.89D-04    CP:  9.75D-01  7.05D-01
 E= -2146.66213585060     Delta-E=       -0.674900586019 Rises=F Damp=F
 DIIS: error= 7.58D-03 at cycle   3 NSaved=   3.
 NSaved= 3 IEnMin= 3 EnMin= -2146.66213585060     IErMin= 3 ErrMin= 7.58D-03
 ErrMax= 7.58D-03 EMaxC= 1.00D-01 BMatC= 9.92D-02 BMatP= 2.00D-01
 IDIUse=3 WtCom= 9.24D-01 WtEn= 7.58D-02
 Coeff-Com:  0.117D+00 0.420D+00 0.464D+00
 Coeff-En:   0.000D+00 0.000D+00 0.100D+01
 Coeff:      0.108D+00 0.388D+00 0.504D+00
 Gap=     0.201 Goal=   None    Shift=    0.000
 RMSDP=7.45D-04 MaxDP=4.50D-02 DE=-6.75D-01 OVMax= 6.38D-02

 Cycle   4  Pass 0  IDiag  1:
 RMSU=  3.96D-04    CP:  9.79D-01  7.57D-01  6.22D-01
 E= -2146.73996964734     Delta-E=       -0.077833796749 Rises=F Damp=F
 DIIS: error= 3.45D-03 at cycle   4 NSaved=   4.
 NSaved= 4 IEnMin= 4 EnMin= -2146.73996964734     IErMin= 4 ErrMin= 3.45D-03
 ErrMax= 3.45D-03 EMaxC= 1.00D-01 BMatC= 1.68D-02 BMatP= 9.92D-02
 IDIUse=3 WtCom= 9.66D-01 WtEn= 3.45D-02
 Coeff-Com:  0.237D-01 0.110D+00 0.303D+00 0.563D+00
 Coeff-En:   0.000D+00 0.000D+00 0.152D+00 0.848D+00
 Coeff:      0.228D-01 0.106D+00 0.298D+00 0.573D+00
 Gap=     0.195 Goal=   None    Shift=    0.000
 RMSDP=2.97D-04 MaxDP=1.80D-02 DE=-7.78D-02 OVMax= 3.82D-02

 Cycle   5  Pass 0  IDiag  1:
 RMSU=  1.31D-04    CP:  9.78D-01  7.44D-01  6.88D-01  6.16D-01
 E= -2146.75323532153     Delta-E=       -0.013265674189 Rises=F Damp=F
 DIIS: error= 1.81D-03 at cycle   5 NSaved=   5.
 NSaved= 5 IEnMin= 5 EnMin= -2146.75323532153     IErMin= 5 ErrMin= 1.81D-03
 ErrMax= 1.81D-03 EMaxC= 1.00D-01 BMatC= 2.27D-03 BMatP= 1.68D-02
 IDIUse=3 WtCom= 9.82D-01 WtEn= 1.81D-02
 Coeff-Com:  0.330D-02 0.255D-01 0.136D+00 0.359D+00 0.477D+00
 Coeff-En:   0.000D+00 0.000D+00 0.000D+00 0.990D-01 0.901D+00
 Coeff:      0.324D-02 0.250D-01 0.133D+00 0.354D+00 0.484D+00
 Gap=     0.192 Goal=   None    Shift=    0.000
 RMSDP=1.13D-04 MaxDP=6.84D-03 DE=-1.33D-02 OVMax= 1.54D-02

 Cycle   6  Pass 0  IDiag  1:
 RMSU=  3.78D-05    CP:  9.78D-01  7.45D-01  7.02D-01  6.88D-01  5.14D-01
 E= -2146.75525677772     Delta-E=       -0.002021456184 Rises=F Damp=F
 DIIS: error= 5.62D-04 at cycle   6 NSaved=   6.
 NSaved= 6 IEnMin= 6 EnMin= -2146.75525677772     IErMin= 6 ErrMin= 5.62D-04
 ErrMax= 5.62D-04 EMaxC= 1.00D-01 BMatC= 2.86D-04 BMatP= 2.27D-03
 IDIUse=3 WtCom= 9.94D-01 WtEn= 5.62D-03
 Coeff-Com: -0.976D-03 0.689D-03 0.437D-01 0.147D+00 0.307D+00 0.503D+00
 Coeff-En:   0.000D+00 0.000D+00 0.000D+00 0.000D+00 0.885D-01 0.911D+00
 Coeff:     -0.970D-03 0.685D-03 0.435D-01 0.146D+00 0.306D+00 0.505D+00
 Gap=     0.192 Goal=   None    Shift=    0.000
 RMSDP=3.46D-05 MaxDP=1.75D-03 DE=-2.02D-03 OVMax= 3.54D-03

 Cycle   7  Pass 0  IDiag  1:
 RMSU=  1.48D-05    CP:  9.78D-01  7.45D-01  7.02D-01  6.90D-01  5.87D-01
                    CP:  5.48D-01
 E= -2146.75550829538     Delta-E=       -0.000251517664 Rises=F Damp=F
 DIIS: error= 1.02D-04 at cycle   7 NSaved=   7.
 NSaved= 7 IEnMin= 7 EnMin= -2146.75550829538     IErMin= 7 ErrMin= 1.02D-04
 ErrMax= 1.02D-04 EMaxC= 1.00D-01 BMatC= 2.58D-05 BMatP= 2.86D-04
 IDIUse=3 WtCom= 9.99D-01 WtEn= 1.02D-03
 Coeff-Com: -0.707D-03-0.182D-02 0.133D-01 0.525D-01 0.135D+00 0.303D+00
 Coeff-Com:  0.499D+00
 Coeff-En:   0.000D+00 0.000D+00 0.000D+00 0.000D+00 0.000D+00 0.260D-01
 Coeff-En:   0.974D+00
 Coeff:     -0.706D-03-0.182D-02 0.133D-01 0.525D-01 0.135D+00 0.303D+00
 Coeff:      0.499D+00
 Gap=     0.192 Goal=   None    Shift=    0.000
 RMSDP=1.17D-05 MaxDP=6.98D-04 DE=-2.52D-04 OVMax= 1.40D-03

 Cycle   8  Pass 0  IDiag  1:
 RMSU=  5.01D-06    CP:  9.78D-01  7.45D-01  7.03D-01  6.88D-01  5.88D-01
                    CP:  6.04D-01  5.81D-01
 E= -2146.75553203028     Delta-E=       -0.000023734900 Rises=F Damp=F
 DIIS: error= 5.74D-05 at cycle   8 NSaved=   8.
 NSaved= 8 IEnMin= 8 EnMin= -2146.75553203028     IErMin= 8 ErrMin= 5.74D-05
 ErrMax= 5.74D-05 EMaxC= 1.00D-01 BMatC= 3.45D-06 BMatP= 2.58D-05
 IDIUse=1 WtCom= 1.00D+00 WtEn= 0.00D+00
 Coeff-Com: -0.334D-03-0.148D-02 0.391D-02 0.182D-01 0.542D-01 0.141D+00
 Coeff-Com:  0.321D+00 0.464D+00
 Coeff:     -0.334D-03-0.148D-02 0.391D-02 0.182D-01 0.542D-01 0.141D+00
 Coeff:      0.321D+00 0.464D+00
 Gap=     0.192 Goal=   None    Shift=    0.000
 RMSDP=3.95D-06 MaxDP=2.41D-04 DE=-2.37D-05 OVMax= 4.76D-04

 Initial convergence to 1.0D-05 achieved.  Increase integral accuracy.
 Cycle   9  Pass 1  IDiag  1:
 E= -2146.75534178590     Delta-E=        0.000190244386 Rises=F Damp=F
 DIIS: error= 1.55D-04 at cycle   1 NSaved=   1.
 NSaved= 1 IEnMin= 1 EnMin= -2146.75534178590     IErMin= 1 ErrMin= 1.55D-04
 ErrMax= 1.55D-04 EMaxC= 1.00D-01 BMatC= 9.15D-06 BMatP= 9.15D-06
 IDIUse=3 WtCom= 9.98D-01 WtEn= 1.55D-03
 Coeff-Com:  0.100D+01
 Coeff-En:   0.100D+01
 Coeff:      0.100D+01
 Gap=     0.192 Goal=   None    Shift=    0.000
 RMSDP=3.95D-06 MaxDP=2.41D-04 DE= 1.90D-04 OVMax= 5.30D-04

 Cycle  10  Pass 1  IDiag  1:
 RMSU=  7.36D-05    CP:  1.00D+00
 E= -2146.75535023203     Delta-E=       -0.000008446138 Rises=F Damp=F
 DIIS: error= 3.27D-05 at cycle   2 NSaved=   2.
 NSaved= 2 IEnMin= 2 EnMin= -2146.75535023203     IErMin= 2 ErrMin= 3.27D-05
 ErrMax= 3.27D-05 EMaxC= 1.00D-01 BMatC= 8.12D-07 BMatP= 9.15D-06
 IDIUse=1 WtCom= 1.00D+00 WtEn= 0.00D+00
 Coeff-Com:  0.106D+00 0.894D+00
 Coeff:      0.106D+00 0.894D+00
 Gap=     0.192 Goal=   None    Shift=    0.000
 RMSDP=4.40D-06 MaxDP=2.85D-04 DE=-8.45D-06 OVMax= 5.66D-04

 Cycle  11  Pass 1  IDiag  1:
 RMSU=  3.03D-06    CP:  1.00D+00  1.01D+00
 E= -2146.75534850361     Delta-E=        0.000001728426 Rises=F Damp=F
 DIIS: error= 4.75D-05 at cycle   3 NSaved=   3.
 NSaved= 3 IEnMin= 2 EnMin= -2146.75535023203     IErMin= 2 ErrMin= 3.27D-05
 ErrMax= 4.75D-05 EMaxC= 1.00D-01 BMatC= 2.59D-06 BMatP= 8.12D-07
 IDIUse=1 WtCom= 1.00D+00 WtEn= 0.00D+00
 Coeff-Com: -0.369D-02 0.644D+00 0.360D+00
 Coeff:     -0.369D-02 0.644D+00 0.360D+00
 Gap=     0.192 Goal=   None    Shift=    0.000
 RMSDP=2.88D-06 MaxDP=1.67D-04 DE= 1.73D-06 OVMax= 3.44D-04

 Cycle  12  Pass 1  IDiag  1:
 RMSU=  4.09D-07    CP:  1.00D+00  1.01D+00  3.42D-01
 E= -2146.75535099365     Delta-E=       -0.000002490044 Rises=F Damp=F
 DIIS: error= 6.37D-06 at cycle   4 NSaved=   4.
 NSaved= 4 IEnMin= 4 EnMin= -2146.75535099365     IErMin= 4 ErrMin= 6.37D-06
 ErrMax= 6.37D-06 EMaxC= 1.00D-01 BMatC= 2.98D-08 BMatP= 8.12D-07
 IDIUse=1 WtCom= 1.00D+00 WtEn= 0.00D+00
 Coeff-Com: -0.395D-02 0.392D+00 0.228D+00 0.384D+00
 Coeff:     -0.395D-02 0.392D+00 0.228D+00 0.384D+00
 Gap=     0.192 Goal=   None    Shift=    0.000
 RMSDP=3.23D-07 MaxDP=2.35D-05 DE=-2.49D-06 OVMax= 3.62D-05

 Cycle  13  Pass 1  IDiag  1:
 RMSU=  1.30D-07    CP:  1.00D+00  1.01D+00  3.62D-01  5.65D-01
 E= -2146.75535102212     Delta-E=       -0.000000028470 Rises=F Damp=F
 DIIS: error= 1.21D-06 at cycle   5 NSaved=   5.
 NSaved= 5 IEnMin= 5 EnMin= -2146.75535102212     IErMin= 5 ErrMin= 1.21D-06
 ErrMax= 1.21D-06 EMaxC= 1.00D-01 BMatC= 1.04D-09 BMatP= 2.98D-08
 IDIUse=1 WtCom= 1.00D+00 WtEn= 0.00D+00
 Coeff-Com: -0.205D-02 0.186D+00 0.110D+00 0.219D+00 0.487D+00
 Coeff:     -0.205D-02 0.186D+00 0.110D+00 0.219D+00 0.487D+00
 Gap=     0.192 Goal=   None    Shift=    0.000
 RMSDP=7.49D-08 MaxDP=4.55D-06 DE=-2.85D-08 OVMax= 8.31D-06

 Cycle  14  Pass 1  IDiag  1:
 RMSU=  4.62D-08    CP:  1.00D+00  1.01D+00  3.63D-01  5.82D-01  8.14D-01
 E= -2146.75535102309     Delta-E=       -0.000000000970 Rises=F Damp=F
 DIIS: error= 3.35D-07 at cycle   6 NSaved=   6.
 NSaved= 6 IEnMin= 6 EnMin= -2146.75535102309     IErMin= 6 ErrMin= 3.35D-07
 ErrMax= 3.35D-07 EMaxC= 1.00D-01 BMatC= 1.60D-10 BMatP= 1.04D-09
 IDIUse=1 WtCom= 1.00D+00 WtEn= 0.00D+00
 Coeff-Com: -0.723D-03 0.614D-01 0.367D-01 0.829D-01 0.308D+00 0.512D+00
 Coeff:     -0.723D-03 0.614D-01 0.367D-01 0.829D-01 0.308D+00 0.512D+00
 Gap=     0.192 Goal=   None    Shift=    0.000
 RMSDP=2.97D-08 MaxDP=1.80D-06 DE=-9.70D-10 OVMax= 4.33D-06

 Cycle  15  Pass 1  IDiag  1:
 RMSU=  1.39D-08    CP:  1.00D+00  1.01D+00  3.63D-01  5.84D-01  8.56D-01
                    CP:  6.83D-01
 E= -2146.75535102327     Delta-E=       -0.000000000176 Rises=F Damp=F
 DIIS: error= 1.09D-07 at cycle   7 NSaved=   7.
 NSaved= 7 IEnMin= 7 EnMin= -2146.75535102327     IErMin= 7 ErrMin= 1.09D-07
 ErrMax= 1.09D-07 EMaxC= 1.00D-01 BMatC= 1.80D-11 BMatP= 1.60D-10
 IDIUse=1 WtCom= 1.00D+00 WtEn= 0.00D+00
 Coeff-Com: -0.829D-04 0.492D-02 0.324D-02 0.118D-01 0.975D-01 0.299D+00
 Coeff-Com:  0.583D+00
 Coeff:     -0.829D-04 0.492D-02 0.324D-02 0.118D-01 0.975D-01 0.299D+00
 Coeff:      0.583D+00
 Gap=     0.192 Goal=   None    Shift=    0.000
 RMSDP=9.64D-09 MaxDP=5.10D-07 DE=-1.76D-10 OVMax= 1.08D-06

 SCF Done:  E(RB3LYP) =  -2146.75535102     A.U. after   15 cycles
             Convg  =    0.9645D-08             -V/T =  2.0051
 KE= 2.135880394469D+03 PE=-1.184699953204D+04 EE= 4.157791764502D+03
 Leave Link  502 at Sat Sep 10 08:32:01 2022, MaxMem=  209715200 cpu:    5943.6
 (Enter /opt/gaussian/l601.exe)
 Copying SCF densities to generalized density rwf, IOpCl= 0 IROHF=0.

 **********************************************************************

            Population analysis using the SCF density.

 **********************************************************************

 Orbital symmetries:
       Occupied  (A) (A) (A) (A) (A) (A) (A) (A) (A) (A) (A) (A)
                 (A) (A) (A) (A) (A) (A) (A) (A) (A) (A) (A) (A)
                 (A) (A) (A) (A) (A) (A) (A) (A) (A) (A) (A) (A)
                 (A) (A) (A) (A) (A) (A) (A) (A) (A) (A) (A) (A)
                 (A) (A) (A) (A) (A) (A) (A) (A) (A) (A) (A) (A)
                 (A) (A) (A) (A) (A) (A) (A) (A) (A) (A) (A) (A)
                 (A) (A) (A) (A) (A) (A) (A) (A) (A) (A) (A) (A)
                 (A) (A) (A) (A) (A) (A) (A) (A) (A) (A) (A) (A)
                 (A) (A) (A) (A) (A) (A) (A) (A) (A) (A) (A) (A)
                 (A) (A) (A) (A) (A) (A) (A) (A) (A) (A) (A) (A)
                 (A) (A)
       Virtual   (A) (A) (A) (A) (A) (A) (A) (A) (A) (A) (A) (A)
                 (A) (A) (A) (A) (A) (A) (A) (A) (A) (A) (A) (A)
                 (A) (A) (A) (A) (A) (A) (A) (A) (A) (A) (A) (A)
                 (A) (A) (A) (A) (A) (A) (A) (A) (A) (A) (A) (A)
                 (A) (A) (A) (A) (A) (A) (A) (A) (A) (A) (A) (A)
                 (A) (A) (A) (A) (A) (A) (A) (A) (A) (A) (A) (A)
                 (A) (A) (A) (A) (A) (A) (A) (A) (A) (A) (A) (A)
                 (A) (A) (A) (A) (A) (A) (A) (A) (A) (A) (A) (A)
                 (A) (A) (A) (A) (A) (A) (A) (A) (A) (A) (A) (A)
                 (A) (A) (A) (A) (A) (A) (A) (A) (A) (A) (A) (A)
                 (A) (A) (A) (A) (A) (A) (A) (A) (A) (A) (A) (A)
                 (A) (A) (A) (A) (A) (A) (A) (A) (A) (A) (A) (A)
                 (A) (A) (A) (A) (A) (A) (A) (A) (A) (A) (A) (A)
                 (A) (A) (A) (A) (A) (A) (A) (A) (A) (A) (A) (A)
                 (A) (A) (A) (A) (A) (A) (A) (A) (A) (A) (A) (A)
                 (A) (A) (A) (A) (A) (A) (A) (A) (A) (A) (A) (A)
                 (A) (A) (A) (A) (A) (A) (A) (A) (A) (A) (A) (A)
                 (A) (A) (A) (A) (A) (A) (A) (A) (A) (A) (A) (A)
                 (A) (A) (A) (A) (A) (A) (A) (A) (A) (A) (A) (A)
                 (A) (A) (A) (A) (A) (A) (A) (A) (A) (A) (A) (A)
                 (A) (A) (A) (A) (A) (A) (A) (A) (A) (A) (A) (A)
                 (A) (A) (A) (A) (A) (A) (A) (A) (A) (A) (A) (A)
                 (A) (A) (A) (A) (A) (A) (A) (A) (A) (A) (A) (A)
                 (A) (A) (A) (A) (A) (A) (A) (A) (A) (A) (A) (A)
                 (A) (A) (A) (A) (A) (A) (A) (A) (A) (A) (A) (A)
                 (A) (A) (A) (A) (A) (A) (A) (A) (A) (A) (A) (A)
                 (A) (A) (A) (A) (A) (A) (A) (A) (A) (A) (A) (A)
                 (A) (A) (A) (A) (A) (A) (A) (A) (A) (A) (A) (A)
                 (A) (A) (A) (A) (A) (A) (A) (A) (A) (A) (A) (A)
                 (A) (A) (A) (A) (A) (A) (A) (A) (A) (A) (A) (A)
                 (A) (A) (A) (A) (A) (A) (A) (A) (A) (A) (A) (A)
                 (A) (A) (A) (A) (A) (A) (A) (A) (A) (A) (A) (A)
                 (A) (A) (A) (A) (A) (A) (A) (A) (A) (A) (A) (A)
                 (A) (A) (A) (A) (A) (A) (A) (A) (A) (A) (A) (A)
                 (A) (A) (A) (A) (A) (A) (A) (A) (A) (A) (A) (A)
                 (A) (A) (A) (A) (A) (A) (A) (A) (A) (A) (A) (A)
                 (A) (A) (A) (A) (A) (A) (A)
 The electronic state is 1-A.
 Alpha  occ. eigenvalues --  -89.10425 -88.92672 -19.13392 -19.13256 -19.13036
 Alpha  occ. eigenvalues --  -14.41277 -14.39391 -14.39096 -14.36671 -14.34884
 Alpha  occ. eigenvalues --  -10.31343 -10.26344 -10.26044 -10.25113 -10.23898
 Alpha  occ. eigenvalues --  -10.23823 -10.23519 -10.23297 -10.23287 -10.22427
 Alpha  occ. eigenvalues --  -10.21717 -10.21696 -10.21490 -10.21195 -10.20957
 Alpha  occ. eigenvalues --  -10.20861 -10.20571 -10.20531 -10.20453 -10.20157
 Alpha  occ. eigenvalues --  -10.19979 -10.19562  -8.13776  -7.98875  -6.10116
 Alpha  occ. eigenvalues --   -6.10073  -6.09903  -5.95198  -5.94817  -5.94511
 Alpha  occ. eigenvalues --   -1.10211  -1.09560  -1.06464  -0.99435  -0.97260
 Alpha  occ. eigenvalues --   -0.93476  -0.92646  -0.90122  -0.88863  -0.86547
 Alpha  occ. eigenvalues --   -0.85905  -0.79208  -0.78332  -0.77276  -0.76637
 Alpha  occ. eigenvalues --   -0.75637  -0.74849  -0.73944  -0.70840  -0.70072
 Alpha  occ. eigenvalues --   -0.65320  -0.64952  -0.63064  -0.62402  -0.62183
 Alpha  occ. eigenvalues --   -0.60297  -0.59076  -0.58425  -0.57460  -0.56465
 Alpha  occ. eigenvalues --   -0.54870  -0.53995  -0.53061  -0.52832  -0.52678
 Alpha  occ. eigenvalues --   -0.52121  -0.50758  -0.50315  -0.49715  -0.48240
 Alpha  occ. eigenvalues --   -0.47066  -0.46827  -0.46647  -0.45856  -0.44835
 Alpha  occ. eigenvalues --   -0.44732  -0.44184  -0.43852  -0.43532  -0.43359
 Alpha  occ. eigenvalues --   -0.42807  -0.42634  -0.41858  -0.41053  -0.40244
 Alpha  occ. eigenvalues --   -0.39577  -0.38901  -0.38703  -0.38286  -0.37730
 Alpha  occ. eigenvalues --   -0.37178  -0.36799  -0.36341  -0.35690  -0.34454
 Alpha  occ. eigenvalues --   -0.33831  -0.33586  -0.33169  -0.31475  -0.31326
 Alpha  occ. eigenvalues --   -0.31169  -0.30006  -0.29437  -0.28303  -0.27887
 Alpha  occ. eigenvalues --   -0.26992  -0.26760  -0.26720  -0.25909  -0.25058
 Alpha  occ. eigenvalues --   -0.23737  -0.23481
 Alpha virt. eigenvalues --   -0.04324  -0.03955  -0.03707  -0.02552   0.00444
 Alpha virt. eigenvalues --    0.00745   0.01416   0.02101   0.03425   0.04129
 Alpha virt. eigenvalues --    0.04479   0.04683   0.05595   0.05912   0.06599
 Alpha virt. eigenvalues --    0.06658   0.07354   0.07886   0.08253   0.08580
 Alpha virt. eigenvalues --    0.08959   0.09416   0.10091   0.10280   0.10837
 Alpha virt. eigenvalues --    0.11006   0.11774   0.12068   0.13118   0.13348
 Alpha virt. eigenvalues --    0.13621   0.13771   0.14465   0.15237   0.15558
 Alpha virt. eigenvalues --    0.15719   0.15937   0.16557   0.17294   0.17707
 Alpha virt. eigenvalues --    0.19581   0.20304   0.20753   0.21258   0.22765
 Alpha virt. eigenvalues --    0.23057   0.23961   0.24372   0.25145   0.25316
 Alpha virt. eigenvalues --    0.26507   0.28014   0.28461   0.29572   0.29667
 Alpha virt. eigenvalues --    0.30098   0.30737   0.31275   0.33498   0.34471
 Alpha virt. eigenvalues --    0.34733   0.35999   0.36128   0.37553   0.39460
 Alpha virt. eigenvalues --    0.39914   0.40550   0.41067   0.41808   0.42710
 Alpha virt. eigenvalues --    0.43233   0.43587   0.43900   0.44084   0.44324
 Alpha virt. eigenvalues --    0.45109   0.45500   0.45693   0.45755   0.46224
 Alpha virt. eigenvalues --    0.46358   0.46710   0.46959   0.47084   0.47545
 Alpha virt. eigenvalues --    0.47620   0.48070   0.48620   0.48770   0.49450
 Alpha virt. eigenvalues --    0.49902   0.50148   0.50223   0.50519   0.50765
 Alpha virt. eigenvalues --    0.51177   0.51565   0.51877   0.52811   0.52866
 Alpha virt. eigenvalues --    0.53418   0.53723   0.54069   0.54455   0.54659
 Alpha virt. eigenvalues --    0.55026   0.55177   0.55745   0.56094   0.56607
 Alpha virt. eigenvalues --    0.57377   0.57915   0.58214   0.58608   0.59247
 Alpha virt. eigenvalues --    0.59575   0.59814   0.60102   0.60859   0.61104
 Alpha virt. eigenvalues --    0.61480   0.62251   0.62910   0.62993   0.63650
 Alpha virt. eigenvalues --    0.63726   0.64528   0.64609   0.64858   0.65180
 Alpha virt. eigenvalues --    0.65391   0.65983   0.66201   0.66541   0.67204
 Alpha virt. eigenvalues --    0.67644   0.68093   0.68329   0.69434   0.69852
 Alpha virt. eigenvalues --    0.70407   0.70773   0.71657   0.71933   0.72294
 Alpha virt. eigenvalues --    0.73230   0.73829   0.74286   0.74756   0.75079
 Alpha virt. eigenvalues --    0.75884   0.77128   0.77232   0.78215   0.78438
 Alpha virt. eigenvalues --    0.79331   0.80812   0.81091   0.81694   0.83313
 Alpha virt. eigenvalues --    0.83695   0.84107   0.84754   0.85445   0.86155
 Alpha virt. eigenvalues --    0.87176   0.87384   0.87833   0.88576   0.89010
 Alpha virt. eigenvalues --    0.89704   0.90580   0.90978   0.91800   0.92202
 Alpha virt. eigenvalues --    0.92693   0.92958   0.93057   0.94015   0.94590
 Alpha virt. eigenvalues --    0.94846   0.96194   0.96872   0.97430   0.98044
 Alpha virt. eigenvalues --    0.98681   0.99705   1.00031   1.00495   1.00663
 Alpha virt. eigenvalues --    1.00907   1.01906   1.02553   1.02606   1.03369
 Alpha virt. eigenvalues --    1.03979   1.04279   1.04607   1.06036   1.06186
 Alpha virt. eigenvalues --    1.06474   1.06919   1.06972   1.07745   1.08528
 Alpha virt. eigenvalues --    1.10200   1.10495   1.11396   1.11922   1.12975
 Alpha virt. eigenvalues --    1.13111   1.14167   1.14888   1.15865   1.16998
 Alpha virt. eigenvalues --    1.17604   1.17838   1.18438   1.19289   1.19783
 Alpha virt. eigenvalues --    1.20767   1.21793   1.22772   1.23363   1.23768
 Alpha virt. eigenvalues --    1.24116   1.24653   1.25961   1.27512   1.29121
 Alpha virt. eigenvalues --    1.29751   1.30675   1.31123   1.31757   1.32708
 Alpha virt. eigenvalues --    1.33785   1.34616   1.35148   1.35302   1.36299
 Alpha virt. eigenvalues --    1.37624   1.38626   1.39304   1.41757   1.42711
 Alpha virt. eigenvalues --    1.43412   1.44806   1.45364   1.45827   1.46432
 Alpha virt. eigenvalues --    1.46606   1.48056   1.48678   1.48878   1.49836
 Alpha virt. eigenvalues --    1.50276   1.51255   1.51585   1.52009   1.52448
 Alpha virt. eigenvalues --    1.53042   1.54299   1.55077   1.55350   1.55662
 Alpha virt. eigenvalues --    1.56146   1.57032   1.57270   1.57885   1.58673
 Alpha virt. eigenvalues --    1.58755   1.59367   1.59786   1.60234   1.61281
 Alpha virt. eigenvalues --    1.61561   1.62413   1.63528   1.64406   1.64561
 Alpha virt. eigenvalues --    1.64711   1.64951   1.65485   1.66577   1.66681
 Alpha virt. eigenvalues --    1.67572   1.67909   1.68088   1.68449   1.69158
 Alpha virt. eigenvalues --    1.69696   1.70288   1.70437   1.71092   1.71634
 Alpha virt. eigenvalues --    1.73034   1.73680   1.74082   1.74552   1.75084
 Alpha virt. eigenvalues --    1.75397   1.76444   1.76946   1.77299   1.77416
 Alpha virt. eigenvalues --    1.78326   1.78810   1.79209   1.79700   1.80403
 Alpha virt. eigenvalues --    1.80635   1.81533   1.81839   1.82374   1.82926
 Alpha virt. eigenvalues --    1.83606   1.84336   1.84459   1.84775   1.85380
 Alpha virt. eigenvalues --    1.86680   1.87152   1.88142   1.88231   1.89167
 Alpha virt. eigenvalues --    1.90235   1.91288   1.91658   1.91785   1.92875
 Alpha virt. eigenvalues --    1.93741   1.94802   1.95788   1.96534   1.96826
 Alpha virt. eigenvalues --    1.97213   1.97809   1.99299   1.99940   2.00111
 Alpha virt. eigenvalues --    2.01729   2.02699   2.03524   2.03551   2.04035
 Alpha virt. eigenvalues --    2.04837   2.05333   2.06239   2.06600   2.08107
 Alpha virt. eigenvalues --    2.09246   2.09549   2.10381   2.11330   2.11984
 Alpha virt. eigenvalues --    2.12813   2.14612   2.15641   2.16237   2.16839
 Alpha virt. eigenvalues --    2.17403   2.17537   2.20229   2.20932   2.21890
 Alpha virt. eigenvalues --    2.23328   2.24420   2.25096   2.26276   2.26944
 Alpha virt. eigenvalues --    2.28229   2.29155   2.29235   2.31983   2.33483
 Alpha virt. eigenvalues --    2.34994   2.36135   2.37792   2.39597   2.39760
 Alpha virt. eigenvalues --    2.40196   2.41105   2.42037   2.42656   2.43548
 Alpha virt. eigenvalues --    2.44590   2.45340   2.46029   2.46723   2.47443
 Alpha virt. eigenvalues --    2.49103   2.50270   2.51485   2.52476   2.53214
 Alpha virt. eigenvalues --    2.57741   2.58346   2.59167   2.60620   2.61194
 Alpha virt. eigenvalues --    2.61941   2.62595   2.63281   2.63904   2.63964
 Alpha virt. eigenvalues --    2.66030   2.67592   2.68170   2.68425   2.69831
 Alpha virt. eigenvalues --    2.70015   2.70574   2.71239   2.73506   2.73818
 Alpha virt. eigenvalues --    2.75528   2.77316   2.77992   2.78344   2.79800
 Alpha virt. eigenvalues --    2.82180   2.86607   2.89740   2.91731   2.93275
 Alpha virt. eigenvalues --    2.94994   2.96070   2.98046   3.01915   3.03395
 Alpha virt. eigenvalues --    3.07294   3.09946   3.14437   3.24951   3.33163
 Alpha virt. eigenvalues --    3.40125   3.48364   3.51680   3.53561
          Condensed to atoms (all electrons):
 Mulliken atomic charges:
              1
     1  O   -0.237623
     2  C    0.133768
     3  C    0.122010
     4  N   -0.227708
     5  N   -0.061177
     6  N   -0.181738
     7  C    0.011189
     8  C    0.044689
     9  C    0.037896
    10  C    0.039666
    11  C    0.029348
    12  C    0.213364
    13  N   -0.279943
    14  C    0.140123
    15  C   -0.027638
    16  C    0.047781
    17  C   -0.099663
    18  S    0.166779
    19  C   -0.150518
    20  C    0.105802
    21  C    0.075252
    22  C    0.087071
    23  C   -0.002357
    24  C    0.086446
    25  C    0.015126
    26  N   -0.316405
    27  S    0.914377
    28  O   -0.443911
    29  O   -0.454165
    30  C   -0.207435
    31  C    0.017110
    32  C    0.010992
    33  H    0.062197
    34  H    0.061404
    35  H   -0.021905
    36  H   -0.026637
    37  H   -0.024671
    38  H   -0.031213
    39  H    0.038331
    40  H    0.048421
    41  H   -0.026480
    42  H    0.020695
    43  H    0.026021
    44  H   -0.009643
    45  H   -0.031087
    46  H   -0.032402
    47  H   -0.013669
    48  H    0.122447
    49  H    0.037707
    50  H    0.055062
    51  H    0.040039
    52  H    0.037329
    53  H    0.059551
 Sum of Mulliken atomic charges =   0.00000
 Mulliken charges with hydrogens summed into heavy atoms:
              1
     1  O   -0.237623
     2  C    0.133768
     3  C    0.245610
     4  N   -0.227708
     5  N   -0.061177
     6  N   -0.181738
     7  C    0.011189
     8  C    0.022783
     9  C    0.011258
    10  C    0.014995
    11  C   -0.001866
    12  C    0.213364
    13  N   -0.279943
    14  C    0.226875
    15  C   -0.027638
    16  C    0.021300
    17  C   -0.078969
    18  S    0.166779
    19  C   -0.124497
    20  C    0.105802
    21  C    0.065609
    22  C    0.055984
    23  C   -0.002357
    24  C    0.054044
    25  C    0.001457
    26  N   -0.193958
    27  S    0.914377
    28  O   -0.443911
    29  O   -0.454165
    30  C   -0.169728
    31  C    0.112211
    32  C    0.107872
 Sum of Mulliken charges with hydrogens summed into heavy atoms =   0.00000
 Electronic spatial extent (au):  <R**2>=          20472.5668
 Charge=              0.0000 electrons
 Dipole moment (field-independent basis, Debye):
    X=              0.7207    Y=              3.2053    Z=             -0.0885  Tot=              3.2865
 Quadrupole moment (field-independent basis, Debye-Ang):
   XX=           -230.6322   YY=           -176.6743   ZZ=           -199.1656
   XY=             27.7978   XZ=             22.1102   YZ=            -13.6617
 Traceless Quadrupole moment (field-independent basis, Debye-Ang):
   XX=            -28.4748   YY=             25.4830   ZZ=              2.9917
   XY=             27.7978   XZ=             22.1102   YZ=            -13.6617
 Octapole moment (field-independent basis, Debye-Ang**2):
  XXX=             57.6539  YYY=             35.4521  ZZZ=             27.9093  XYY=            -38.2839
  XXY=            -41.2282  XXZ=             27.8675  XZZ=            -22.8938  YZZ=             10.8340
  YYZ=             17.2542  XYZ=            -37.4046
 Hexadecapole moment (field-independent basis, Debye-Ang**3):
 XXXX=         -21003.4051 YYYY=          -6221.8818 ZZZZ=          -2190.0357 XXXY=            593.3149
 XXXZ=            582.3104 YYYX=            352.2380 YYYZ=            -19.5827 ZZZX=             59.1146
 ZZZY=            -68.7482 XXYY=          -3625.6255 XXZZ=          -3602.8095 YYZZ=          -1450.9336
 XXYZ=           -336.8538 YYXZ=            125.4392 ZZXY=             96.6783
 N-N= 3.406572022049D+03 E-N=-1.184699962247D+04  KE= 2.135880394469D+03
 No NMR shielding tensors so no spin-rotation constants.
 Leave Link  601 at Sat Sep 10 08:32:01 2022, MaxMem=  209715200 cpu:       4.2
 (Enter /opt/gaussian/l602.exe)
 Breneman (CHELPG) radii used.
 Read replacement radii for each type of atom:
 Rad(35) =   1.900000000000D+00
 Atom Element Radius
    1     8    1.70
    2     6    1.50
    3     6    1.50
    4     7    1.70
    5     7    1.70
    6     7    1.70
    7     6    1.50
    8     6    1.50
    9     6    1.50
   10     6    1.50
   11     6    1.50
   12     6    1.50
   13     7    1.70
   14     6    1.50
   15     6    1.50
   16     6    1.50
   17     6    1.50
   18    16    2.00
   19     6    1.50
   20     6    1.50
   21     6    1.50
   22     6    1.50
   23     6    1.50
   24     6    1.50
   25     6    1.50
   26     7    1.70
   27    16    2.00
   28     8    1.70
   29     8    1.70
   30     6    1.50
   31     6    1.50
   32     6    1.50
   33     1    1.45
   34     1    1.45
   35     1    1.45
   36     1    1.45
   37     1    1.45
   38     1    1.45
   39     1    1.45
   40     1    1.45
   41     1    1.45
   42     1    1.45
   43     1    1.45
   44     1    1.45
   45     1    1.45
   46     1    1.45
   47     1    1.45
   48     1    1.45
   49     1    1.45
   50     1    1.45
   51     1    1.45
   52     1    1.45
   53     1    1.45
 Generate Potential Derived Charges using the Breneman model, NDens= 1.
 Grid spacing= 0.300 Box extension= 2.800
 NStep X,Y,Z=   65     54     39   Total possible points=      136890
 Number of Points to Fit=   29488

 **********************************************************************

            Electrostatic Properties Using The SCF Density

 **********************************************************************

       Atomic Center    1 is at   1.239641 -1.230789 -0.657860
       Atomic Center    2 is at   1.581101 -0.108769 -0.981650
       Atomic Center    3 is at   3.076381  0.234811 -1.150200
       Atomic Center    4 is at   3.914841 -0.920339 -0.962280
       Atomic Center    5 is at   4.507102 -1.498589 -2.052790
       Atomic Center    6 is at   5.205902 -2.512479 -1.675440
       Atomic Center    7 is at   5.089172 -2.637229 -0.304120
       Atomic Center    8 is at   5.660622 -3.565439  0.584020
       Atomic Center    9 is at   5.363762 -3.426389  1.932550
       Atomic Center   10 is at   4.514142 -2.390339  2.397760
       Atomic Center   11 is at   3.937842 -1.467099  1.534350
       Atomic Center   12 is at   4.244942 -1.610929  0.171330
       Atomic Center   13 is at   0.687111  0.929561 -1.222770
       Atomic Center   14 is at   1.165621  2.291281 -1.496460
       Atomic Center   15 is at   1.595591  3.091801 -0.283640
       Atomic Center   16 is at   2.283571  4.347471 -0.393550
       Atomic Center   17 is at   2.566401  4.911821  0.821330
       Atomic Center   18 is at   2.002501  3.923351  2.132880
       Atomic Center   19 is at   1.378061  2.738071  1.026390
       Atomic Center   20 is at  -0.729389  0.710541 -1.154630
       Atomic Center   21 is at  -1.306649 -0.488199 -1.608540
       Atomic Center   22 is at  -2.689319 -0.656040 -1.571770
       Atomic Center   23 is at  -3.526979  0.350650 -1.076430
       Atomic Center   24 is at  -2.952979  1.543300 -0.623480
       Atomic Center   25 is at  -1.570579  1.724511 -0.666400
       Atomic Center   26 is at  -4.945329  0.136110 -1.072660
       Atomic Center   27 is at  -5.687929 -0.407960  0.406510
       Atomic Center   28 is at  -4.854159 -0.051890  1.583470
       Atomic Center   29 is at  -7.088359  0.061600  0.287250
       Atomic Center   30 is at  -5.634998 -2.187320  0.223680
       Atomic Center   31 is at  -5.680528 -3.001980  1.495660
       Atomic Center   32 is at  -4.410568 -2.938680  0.691290
       Atomic Center   33 is at   3.278521  0.586581 -2.171670
       Atomic Center   34 is at   3.368031  1.033781 -0.450610
       Atomic Center   35 is at   6.311162 -4.358258  0.211850
       Atomic Center   36 is at   5.786882 -4.126909  2.655360
       Atomic Center   37 is at   4.302832 -2.321089  3.467160
       Atomic Center   38 is at   3.273121 -0.683479  1.899320
       Atomic Center   39 is at   1.997141  2.248151 -2.216690
       Atomic Center   40 is at   0.355461  2.817071 -2.022990
       Atomic Center   41 is at   2.556791  4.807711 -1.344550
       Atomic Center   42 is at   3.078791  5.850041  1.024460
       Atomic Center   43 is at   0.877161  1.849431  1.405210
       Atomic Center   44 is at  -0.676828 -1.285849 -1.992940
       Atomic Center   45 is at  -3.136428 -1.577400 -1.947990
       Atomic Center   46 is at  -3.588329  2.330040 -0.212480
       Atomic Center   47 is at  -1.149869  2.655421 -0.285290
       Atomic Center   48 is at  -5.480799  0.977770 -1.300950
       Atomic Center   49 is at  -6.191718 -2.507550 -0.658590
       Atomic Center   50 is at  -5.697378 -2.449750  2.437190
       Atomic Center   51 is at  -6.287118 -3.909310  1.468650
       Atomic Center   52 is at  -4.113038 -3.804490  0.095760
       Atomic Center   53 is at  -3.593248 -2.344490  1.103330
   29488 points will be used for fitting atomic charges
 Fitting point charges to electrostatic potential
 Charges from ESP fit, RMS=   0.00378 RRMS=   0.21298:
 Charge=   0.00000 Dipole=     0.9873     3.2987    -0.1493 Tot=     3.4466
              1
     1  O   -0.498515
     2  C    0.592354
     3  C   -0.000627
     4  N    0.298477
     5  N   -0.228964
     6  N   -0.340846
     7  C    0.410290
     8  C   -0.253120
     9  C   -0.050818
    10  C   -0.110313
    11  C   -0.140550
    12  C   -0.074888
    13  N   -0.425583
    14  C    0.102568
    15  C    0.163396
    16  C   -0.212088
    17  C   -0.155632
    18  S    0.023435
    19  C   -0.201579
    20  C    0.248059
    21  C   -0.215015
    22  C   -0.100026
    23  C    0.333488
    24  C   -0.225262
    25  C   -0.090752
    26  N   -0.733461
    27  S    1.006278
    28  O   -0.483283
    29  O   -0.519822
    30  C   -0.061827
    31  C   -0.277154
    32  C   -0.039672
    33  H    0.012353
    34  H   -0.029990
    35  H    0.127353
    36  H    0.086204
    37  H    0.099242
    38  H    0.106331
    39  H    0.076565
    40  H    0.020755
    41  H    0.115873
    42  H    0.171689
    43  H    0.170496
    44  H    0.160706
    45  H    0.082462
    46  H    0.142401
    47  H    0.060754
    48  H    0.368522
    49  H    0.103906
    50  H    0.128699
    51  H    0.125051
    52  H    0.074377
    53  H    0.057704
 Charges from ESP fit with hydrogens summed into heavy atoms:
              1
     1  O   -0.498515
     2  C    0.592354
     3  C   -0.018265
     4  N    0.298477
     5  N   -0.228964
     6  N   -0.340846
     7  C    0.410290
     8  C   -0.125767
     9  C    0.035385
    10  C   -0.011070
    11  C   -0.034220
    12  C   -0.074888
    13  N   -0.425583
    14  C    0.199888
    15  C    0.163396
    16  C   -0.096215
    17  C    0.016057
    18  S    0.023435
    19  C   -0.031083
    20  C    0.248059
    21  C   -0.054309
    22  C   -0.017565
    23  C    0.333488
    24  C   -0.082861
    25  C   -0.029998
    26  N   -0.364939
    27  S    1.006278
    28  O   -0.483283
    29  O   -0.519822
    30  C    0.042079
    31  C   -0.023404
    32  C    0.092409
    33  H    0.000000
    34  H    0.000000
    35  H    0.000000
    36  H    0.000000
    37  H    0.000000
    38  H    0.000000
    39  H    0.000000
    40  H    0.000000
    41  H    0.000000
    42  H    0.000000
    43  H    0.000000
    44  H    0.000000
    45  H    0.000000
    46  H    0.000000
    47  H    0.000000
    48  H    0.000000
    49  H    0.000000
    50  H    0.000000
    51  H    0.000000
    52  H    0.000000
    53  H    0.000000
 -----------------------------------------------------------------

              Electrostatic Properties (Atomic Units)

 -----------------------------------------------------------------
    Center     Electric         -------- Electric Field --------
               Potential          X             Y             Z
 -----------------------------------------------------------------
    1 Atom    -22.357608
    2 Atom    -14.629420
    3 Atom    -14.679358
    4 Atom    -18.291834
    5 Atom    -18.329523
    6 Atom    -18.367905
    7 Atom    -14.736037
    8 Atom    -14.746771
    9 Atom    -14.750223
   10 Atom    -14.744534
   11 Atom    -14.740094
   12 Atom    -14.713081
   13 Atom    -18.307776
   14 Atom    -14.675440
   15 Atom    -14.722426
   16 Atom    -14.731413
   17 Atom    -14.711865
   18 Atom    -59.169776
   19 Atom    -14.714001
   20 Atom    -14.692484
   21 Atom    -14.742408
   22 Atom    -14.741970
   23 Atom    -14.705091
   24 Atom    -14.738752
   25 Atom    -14.737302
   26 Atom    -18.341680
   27 Atom    -58.984288
   28 Atom    -22.361247
   29 Atom    -22.364630
   30 Atom    -14.704311
   31 Atom    -14.722324
   32 Atom    -14.722519
   33 Atom     -1.050908
   34 Atom     -1.054848
   35 Atom     -1.088144
   36 Atom     -1.094091
   37 Atom     -1.090540
   38 Atom     -1.079270
   39 Atom     -1.060602
   40 Atom     -1.060727
   41 Atom     -1.061249
   42 Atom     -1.048600
   43 Atom     -1.048650
   44 Atom     -1.086970
   45 Atom     -1.082115
   46 Atom     -1.077356
   47 Atom     -1.074157
   48 Atom     -0.999298
   49 Atom     -1.060993
   50 Atom     -1.082005
   51 Atom     -1.079222
   52 Atom     -1.078524
   53 Atom     -1.082394
 -----------------------------------------------------------------
 Leave Link  602 at Sat Sep 10 08:32:17 2022, MaxMem=  209715200 cpu:     117.8
 (Enter /opt/gaussian/l9999.exe)
 1\1\GINC-LQCAPF-6\SP\RB3LYP\CC-pVDZ\C22H21N5O3S2\LQCAPF-6\10-Sep-2022\
 0\\#p b3lyp/cc-pvdz pop=(chelpg,readradii)\\Mol13.log\\0,1\O,0,1.23964
 ,-1.23079,-0.65786\C,0,1.5811,-0.10877,-0.98165\C,0,3.07638,0.23481,-1
 .1502\N,0,3.91484,-0.92034,-0.96228\N,0,4.5071,-1.49859,-2.05279\N,0,5
 .2059,-2.51248,-1.67544\C,0,5.08917,-2.63723,-0.30412\C,0,5.66062,-3.5
 6544,0.58402\C,0,5.36376,-3.42639,1.93255\C,0,4.51414,-2.39034,2.39776
 \C,0,3.93784,-1.4671,1.53435\C,0,4.24494,-1.61093,0.17133\N,0,0.68711,
 0.92956,-1.22277\C,0,1.16562,2.29128,-1.49646\C,0,1.59559,3.0918,-0.28
 364\C,0,2.28357,4.34747,-0.39355\C,0,2.5664,4.91182,0.82133\S,0,2.0025
 ,3.92335,2.13288\C,0,1.37806,2.73807,1.02639\C,0,-0.72939,0.71054,-1.1
 5463\C,0,-1.30665,-0.4882,-1.60854\C,0,-2.68932,-0.65604,-1.57177\C,0,
 -3.52698,0.35065,-1.07643\C,0,-2.95298,1.5433,-0.62348\C,0,-1.57058,1.
 72451,-0.6664\N,0,-4.94533,0.13611,-1.07266\S,0,-5.68793,-0.40796,0.40
 651\O,0,-4.85416,-0.05189,1.58347\O,0,-7.08836,0.0616,0.28725\C,0,-5.6
 35,-2.18732,0.22368\C,0,-5.68053,-3.00198,1.49566\C,0,-4.41057,-2.9386
 8,0.69129\H,0,3.27852,0.58658,-2.17167\H,0,3.36803,1.03378,-0.45061\H,
 0,6.31116,-4.35826,0.21185\H,0,5.78688,-4.12691,2.65536\H,0,4.30283,-2
 .32109,3.46716\H,0,3.27312,-0.68348,1.89932\H,0,1.99714,2.24815,-2.216
 69\H,0,0.35546,2.81707,-2.02299\H,0,2.55679,4.80771,-1.34455\H,0,3.078
 79,5.85004,1.02446\H,0,0.87716,1.84943,1.40521\H,0,-0.67683,-1.28585,-
 1.99294\H,0,-3.13643,-1.5774,-1.94799\H,0,-3.58833,2.33004,-0.21248\H,
 0,-1.14987,2.65542,-0.28529\H,0,-5.4808,0.97777,-1.30095\H,0,-6.19172,
 -2.50755,-0.65859\H,0,-5.69738,-2.44975,2.43719\H,0,-6.28712,-3.90931,
 1.46865\H,0,-4.11304,-3.80449,0.09576\H,0,-3.59325,-2.34449,1.10333\\V
 ersion=EM64L-G09RevC.01\State=1-A\HF=-2146.755351\RMSD=9.645e-09\Dipol
 e=0.2835402,1.2610448,-0.0348064\Quadrupole=-21.1703047,18.9460177,2.2
 24287,20.6669808,16.4384279,-10.1571465\PG=C01 [X(C22H21N5O3S2)]\\@


 IT CANNOT BE MY BEAUTY, FOR I HAVE NONE; AND IT CANNOT BE MY WIT,
 FOR HE HAS NOT ENOUGH TO KNOW THAT I HAVE ANY.
 -- CATHARINE SEDLEY, PUZZLED ABOUT WHY SHE WAS MISTRESS TO JAMES II
 Job cpu time:  0 days  1 hours 41 minutes 44.3 seconds.
 File lengths (MBytes):  RWF=    174 Int=      0 D2E=      0 Chk=     12 Scr=      1
 Normal termination of Gaussian 09 at Sat Sep 10 08:32:17 2022.
