 Entering Gaussian System, Link 0=g09
 Input=Mol10.gjf
 Output=Mol10.log
 Initial command:
 /opt/gaussian/l1.exe /home/scr/lqcapf-6/Gau-545406.inp -scrdir=/home/scr/lqcapf-6/
 Entering Link 1 = /opt/gaussian/l1.exe PID=    545408.
  
 Copyright (c) 1988,1990,1992,1993,1995,1998,2003,2009,2011,
            Gaussian, Inc.  All Rights Reserved.
  
 This is part of the Gaussian(R) 09 program.  It is based on
 the Gaussian(R) 03 system (copyright 2003, Gaussian, Inc.),
 the Gaussian(R) 98 system (copyright 1998, Gaussian, Inc.),
 the Gaussian(R) 94 system (copyright 1995, Gaussian, Inc.),
 the Gaussian 92(TM) system (copyright 1992, Gaussian, Inc.),
 the Gaussian 90(TM) system (copyright 1990, Gaussian, Inc.),
 the Gaussian 88(TM) system (copyright 1988, Gaussian, Inc.),
 the Gaussian 86(TM) system (copyright 1986, Carnegie Mellon
 University), and the Gaussian 82(TM) system (copyright 1983,
 Carnegie Mellon University). Gaussian is a federally registered
 trademark of Gaussian, Inc.
  
 This software contains proprietary and confidential information,
 including trade secrets, belonging to Gaussian, Inc.
  
 This software is provided under written license and may be
 used, copied, transmitted, or stored only in accord with that
 written license.
  
 The following legend is applicable only to US Government
 contracts under FAR:
  
                    RESTRICTED RIGHTS LEGEND
  
 Use, reproduction and disclosure by the US Government is
 subject to restrictions as set forth in subparagraphs (a)
 and (c) of the Commercial Computer Software - Restricted
 Rights clause in FAR 52.227-19.
  
 Gaussian, Inc.
 340 Quinnipiac St., Bldg. 40, Wallingford CT 06492
  
  
 ---------------------------------------------------------------
 Warning -- This program may not be used in any manner that
 competes with the business of Gaussian, Inc. or will provide
 assistance to any competitor of Gaussian, Inc.  The licensee
 of this program is prohibited from giving any competitor of
 Gaussian, Inc. access to this program.  By using this program,
 the user acknowledges that Gaussian, Inc. is engaged in the
 business of creating and licensing software in the field of
 computational chemistry and represents and warrants to the
 licensee that it is not a competitor of Gaussian, Inc. and that
 it will not use this program in any manner prohibited above.
 ---------------------------------------------------------------
  

 Cite this work as:
 Gaussian 09, Revision C.01,
 M. J. Frisch, G. W. Trucks, H. B. Schlegel, G. E. Scuseria, 
 M. A. Robb, J. R. Cheeseman, G. Scalmani, V. Barone, B. Mennucci, 
 G. A. Petersson, H. Nakatsuji, M. Caricato, X. Li, H. P. Hratchian, 
 A. F. Izmaylov, J. Bloino, G. Zheng, J. L. Sonnenberg, M. Hada, 
 M. Ehara, K. Toyota, R. Fukuda, J. Hasegawa, M. Ishida, T. Nakajima, 
 Y. Honda, O. Kitao, H. Nakai, T. Vreven, J. A. Montgomery, Jr., 
 J. E. Peralta, F. Ogliaro, M. Bearpark, J. J. Heyd, E. Brothers, 
 K. N. Kudin, V. N. Staroverov, T. Keith, R. Kobayashi, J. Normand, 
 K. Raghavachari, A. Rendell, J. C. Burant, S. S. Iyengar, J. Tomasi, 
 M. Cossi, N. Rega, J. M. Millam, M. Klene, J. E. Knox, J. B. Cross, 
 V. Bakken, C. Adamo, J. Jaramillo, R. Gomperts, R. E. Stratmann, 
 O. Yazyev, A. J. Austin, R. Cammi, C. Pomelli, J. W. Ochterski, 
 R. L. Martin, K. Morokuma, V. G. Zakrzewski, G. A. Voth, 
 P. Salvador, J. J. Dannenberg, S. Dapprich, A. D. Daniels, 
 O. Farkas, J. B. Foresman, J. V. Ortiz, J. Cioslowski, 
 and D. J. Fox, Gaussian, Inc., Wallingford CT, 2010.
 
 ******************************************
 Gaussian 09:  EM64L-G09RevC.01 23-Sep-2011
                10-Sep-2022 
 ******************************************
 %nprocshared=8
 Will use up to    8 processors via shared memory.
 %mem=1600MB
 ---------------------------------------
 #p b3lyp/cc-pvdz pop=(chelpg,readradii)
 ---------------------------------------
 1/38=1/1;
 2/12=2,17=6,18=5,40=1/2;
 3/5=16,11=2,16=1,25=1,30=1,74=-5/1,2,3;
 4//1;
 5/5=2,38=5/2;
 6/7=2,8=2,9=2,10=2,15=8,20=103,28=1/1,2;
 99/5=1,9=1/99;
 Leave Link    1 at Sat Sep 10 07:44:26 2022, MaxMem=  209715200 cpu:       0.2
 (Enter /opt/gaussian/l101.exe)
 ---------
 Mol10.log
 ---------
 Charge =  0 Multiplicity = 1
 Symbolic Z-Matrix:
 N                     6.87118  -1.1658    0.62905 
 C                     5.79444  -2.02053   0.52105 
 O                     5.90015  -3.22063   0.73196 
 C                     4.47819  -1.38895   0.1663 
 C                     3.43193  -2.23521  -0.2296 
 C                     2.18171  -1.73137  -0.57381 
 C                     1.93895  -0.34637  -0.51225 
 C                     2.97519   0.50499  -0.09174 
 C                     4.22802  -0.01224   0.23965 
 N                     0.67848   0.21174  -0.90593 
 C                     0.67598   1.53658  -1.54136 
 C                     0.33723   2.69994  -0.63151 
 C                     0.08123   4.02108  -1.13284 
 C                    -0.19129   4.92679  -0.14301 
 S                    -0.14577   4.18973   1.42872 
 C                     0.24767   2.64417   0.73859 
 C                    -0.51446  -0.46252  -0.65539 
 O                    -0.57942  -1.50957  -0.04044 
 C                    -1.79324   0.2014   -1.20705 
 N                    -2.95818  -0.61845  -0.9973 
 N                    -3.54564  -1.22451  -2.07589 
 N                    -4.57176  -1.89711  -1.68499 
 C                    -4.69174  -1.75451  -0.31571 
 C                    -5.64226  -2.27541   0.57993 
 C                    -5.50695  -1.94286   1.92039 
 C                    -4.44857  -1.1131    2.37109 
 C                    -3.49832  -0.59343   1.50125 
 C                    -3.64333  -0.9296    0.14523 
 H                     6.8765   -0.30652   0.09227 
 H                     7.76883  -1.63074   0.72259 
 H                     3.62546  -3.30794  -0.26817 
 H                     1.39037  -2.41018  -0.87988 
 H                     2.80278   1.57706   0.00641 
 H                     4.99815   0.67512   0.5957 
 H                     1.6725    1.6844   -1.98256 
 H                    -0.01817   1.52973  -2.39569 
 H                     0.09819   4.28097  -2.1926 
 H                    -0.42298   5.98514  -0.24439 
 H                     0.39685   1.78096   1.38399 
 H                    -1.9365    1.19259  -0.74807 
 H                    -1.72098   0.33833  -2.29508 
 H                    -6.44935  -2.9147    0.21913 
 H                    -6.22352  -2.3274    2.64898 
 H                    -4.37572  -0.88248   3.43627 
 H                    -2.67667   0.02736   1.85946 
 
 NAtoms=     45 NQM=        0 NQMF=       0 NMMI=     45 NMMIF=      0
                NMic=       0 NMicF=      0.
                    Isotopes and Nuclear Properties:
 (Nuclear quadrupole moments (NQMom) in fm**2, nuclear magnetic moments (NMagM)
  in nuclear magnetons)

  Atom         1           2           3           4           5           6           7           8           9          10
 IAtWgt=          14          12          16          12          12          12          12          12          12          14
 AtmWgt=  14.0030740  12.0000000  15.9949146  12.0000000  12.0000000  12.0000000  12.0000000  12.0000000  12.0000000  14.0030740
 NucSpn=           2           0           0           0           0           0           0           0           0           2
 AtZEff=   0.0000000   0.0000000   0.0000000   0.0000000   0.0000000   0.0000000   0.0000000   0.0000000   0.0000000   0.0000000
 NQMom=    2.0440000   0.0000000   0.0000000   0.0000000   0.0000000   0.0000000   0.0000000   0.0000000   0.0000000   2.0440000
 NMagM=    0.4037610   0.0000000   0.0000000   0.0000000   0.0000000   0.0000000   0.0000000   0.0000000   0.0000000   0.4037610

  Atom        11          12          13          14          15          16          17          18          19          20
 IAtWgt=          12          12          12          12          32          12          12          16          12          14
 AtmWgt=  12.0000000  12.0000000  12.0000000  12.0000000  31.9720718  12.0000000  12.0000000  15.9949146  12.0000000  14.0030740
 NucSpn=           0           0           0           0           0           0           0           0           0           2
 AtZEff=   0.0000000   0.0000000   0.0000000   0.0000000   0.0000000   0.0000000   0.0000000   0.0000000   0.0000000   0.0000000
 NQMom=    0.0000000   0.0000000   0.0000000   0.0000000   0.0000000   0.0000000   0.0000000   0.0000000   0.0000000   2.0440000
 NMagM=    0.0000000   0.0000000   0.0000000   0.0000000   0.0000000   0.0000000   0.0000000   0.0000000   0.0000000   0.4037610

  Atom        21          22          23          24          25          26          27          28          29          30
 IAtWgt=          14          14          12          12          12          12          12          12           1           1
 AtmWgt=  14.0030740  14.0030740  12.0000000  12.0000000  12.0000000  12.0000000  12.0000000  12.0000000   1.0078250   1.0078250
 NucSpn=           2           2           0           0           0           0           0           0           1           1
 AtZEff=   0.0000000   0.0000000   0.0000000   0.0000000   0.0000000   0.0000000   0.0000000   0.0000000   0.0000000   0.0000000
 NQMom=    2.0440000   2.0440000   0.0000000   0.0000000   0.0000000   0.0000000   0.0000000   0.0000000   0.0000000   0.0000000
 NMagM=    0.4037610   0.4037610   0.0000000   0.0000000   0.0000000   0.0000000   0.0000000   0.0000000   2.7928460   2.7928460

  Atom        31          32          33          34          35          36          37          38          39          40
 IAtWgt=           1           1           1           1           1           1           1           1           1           1
 AtmWgt=   1.0078250   1.0078250   1.0078250   1.0078250   1.0078250   1.0078250   1.0078250   1.0078250   1.0078250   1.0078250
 NucSpn=           1           1           1           1           1           1           1           1           1           1
 AtZEff=   0.0000000   0.0000000   0.0000000   0.0000000   0.0000000   0.0000000   0.0000000   0.0000000   0.0000000   0.0000000
 NQMom=    0.0000000   0.0000000   0.0000000   0.0000000   0.0000000   0.0000000   0.0000000   0.0000000   0.0000000   0.0000000
 NMagM=    2.7928460   2.7928460   2.7928460   2.7928460   2.7928460   2.7928460   2.7928460   2.7928460   2.7928460   2.7928460

  Atom        41          42          43          44          45
 IAtWgt=           1           1           1           1           1
 AtmWgt=   1.0078250   1.0078250   1.0078250   1.0078250   1.0078250
 NucSpn=           1           1           1           1           1
 AtZEff=   0.0000000   0.0000000   0.0000000   0.0000000   0.0000000
 NQMom=    0.0000000   0.0000000   0.0000000   0.0000000   0.0000000
 NMagM=    2.7928460   2.7928460   2.7928460   2.7928460   2.7928460
 Leave Link  101 at Sat Sep 10 07:44:26 2022, MaxMem=  209715200 cpu:       0.7
 (Enter /opt/gaussian/l202.exe)
                          Input orientation:                          
 ---------------------------------------------------------------------
 Center     Atomic      Atomic             Coordinates (Angstroms)
 Number     Number       Type             X           Y           Z
 ---------------------------------------------------------------------
      1          7           0        6.871180   -1.165800    0.629050
      2          6           0        5.794440   -2.020530    0.521050
      3          8           0        5.900150   -3.220630    0.731960
      4          6           0        4.478190   -1.388950    0.166300
      5          6           0        3.431930   -2.235210   -0.229600
      6          6           0        2.181710   -1.731370   -0.573810
      7          6           0        1.938950   -0.346370   -0.512250
      8          6           0        2.975190    0.504990   -0.091740
      9          6           0        4.228020   -0.012240    0.239650
     10          7           0        0.678480    0.211740   -0.905930
     11          6           0        0.675980    1.536580   -1.541360
     12          6           0        0.337230    2.699940   -0.631510
     13          6           0        0.081230    4.021080   -1.132840
     14          6           0       -0.191290    4.926790   -0.143010
     15         16           0       -0.145770    4.189730    1.428720
     16          6           0        0.247670    2.644170    0.738590
     17          6           0       -0.514460   -0.462520   -0.655390
     18          8           0       -0.579420   -1.509570   -0.040440
     19          6           0       -1.793240    0.201400   -1.207050
     20          7           0       -2.958180   -0.618450   -0.997300
     21          7           0       -3.545640   -1.224510   -2.075890
     22          7           0       -4.571760   -1.897110   -1.684990
     23          6           0       -4.691740   -1.754510   -0.315710
     24          6           0       -5.642260   -2.275410    0.579930
     25          6           0       -5.506950   -1.942860    1.920390
     26          6           0       -4.448570   -1.113100    2.371090
     27          6           0       -3.498320   -0.593430    1.501250
     28          6           0       -3.643330   -0.929600    0.145230
     29          1           0        6.876500   -0.306520    0.092270
     30          1           0        7.768830   -1.630740    0.722590
     31          1           0        3.625460   -3.307940   -0.268170
     32          1           0        1.390370   -2.410180   -0.879880
     33          1           0        2.802780    1.577060    0.006410
     34          1           0        4.998150    0.675120    0.595700
     35          1           0        1.672500    1.684400   -1.982560
     36          1           0       -0.018170    1.529730   -2.395690
     37          1           0        0.098190    4.280970   -2.192600
     38          1           0       -0.422980    5.985140   -0.244390
     39          1           0        0.396850    1.780960    1.383990
     40          1           0       -1.936500    1.192590   -0.748070
     41          1           0       -1.720980    0.338330   -2.295080
     42          1           0       -6.449350   -2.914700    0.219130
     43          1           0       -6.223520   -2.327400    2.648980
     44          1           0       -4.375720   -0.882480    3.436270
     45          1           0       -2.676670    0.027360    1.859460
 ---------------------------------------------------------------------
                    Distance matrix (angstroms):
                    1          2          3          4          5
     1  N    0.000000
     2  C    1.378984   0.000000
     3  O    2.275042   1.223069   0.000000
     4  C    2.447516   1.502416   2.386837   0.000000
     5  C    3.702615   2.488175   2.826263   1.402695   0.000000
     6  C    4.874205   3.786047   4.213042   2.436972   1.391181
     7  C    5.128443   4.328432   5.049805   2.827568   2.424169
     8  C    4.299979   3.834310   4.807714   2.431584   2.781423
     9  C    2.910091   2.562438   3.651322   1.401177   2.407395
    10  N    6.527121   5.761280   6.459852   4.260244   3.745193
    11  C    7.098876   6.565455   7.422330   5.092311   4.852048
    12  C    7.695808   7.307008   8.237614   5.873932   5.839041
    13  C    8.724185   8.478041   9.475214   7.091505   7.154313
    14  C    9.359178   9.194302  10.210371   7.860553   8.026797
    15  S    8.863338   8.641602   9.589164   7.355024   7.538555
    16  C    7.641908   7.250752   8.145333   5.872893   5.906374
    17  C    7.529413   6.604061   7.118928   5.143929   4.347151
    18  O    7.488514   6.418913   6.746047   5.063271   4.080841
    19  C    8.961734   8.092972   8.640503   6.614086   5.847639
    20  N    9.978022   8.993307   9.393173   7.566190   6.636022
    21  N   10.762448   9.727016  10.054425   8.332845   7.288126
    22  N   11.697456  10.599054  10.828400   9.251329   8.141961
    23  C   11.616379  10.522875  10.744080   9.189863   8.138335
    24  C   12.562636  11.439691  11.582046  10.167616   9.110317
    25  C   12.469542  11.387959  11.539800  10.153161   9.198451
    26  C   11.453131  10.448221  10.687583   9.199143   8.374067
    27  C   10.421846   9.452661   9.789036   8.126479   7.329369
    28  C   10.528285   9.508042   9.832145   8.134527   7.204472
    29  H    1.013175   2.071844   3.139188   2.632304   3.960872
    30  H    1.015231   2.022565   2.453529   3.346077   4.481155
    31  H    3.991048   2.642871   2.486382   2.144396   1.090730
    32  H    5.819332   4.637916   4.857260   3.416436   2.149755
    33  H    4.945992   4.707179   5.756557   3.410246   3.871038
    34  H    2.626469   2.811793   4.001130   2.171434   3.406492
    35  H    6.478458   6.081526   7.021464   4.683479   4.640238
    36  H    7.992376   7.409329   8.208205   5.941358   5.547063
    37  H    9.137965   8.917402   9.924202   7.542997   7.578113
    38  H   10.252005  10.165282  11.210773   8.863822   9.079356
    39  H    7.153340   6.658076   7.465076   5.309278   5.286304
    40  H    9.221371   8.467717   9.114828   6.974860   6.390514
    41  H    9.199900   8.365187   8.939284   6.889963   6.118970
    42  H   13.441101  12.280109  12.363929  11.033668   9.914775
    43  H   13.300398  12.208752  12.306754  11.025923  10.075834
    44  H   11.595409  10.640762  10.879970   9.452034   8.730858
    45  H    9.700463   8.817307   9.240267   7.487640   6.840935
                    6          7          8          9         10
     6  C    0.000000
     7  C    1.407461   0.000000
     8  C    2.421427   1.405502   0.000000
     9  C    2.793655   2.432455   1.395324   0.000000
    10  N    2.479048   1.433616   2.454339   3.736543   0.000000
    11  C    3.725973   2.489912   2.907223   4.264719   1.469346
    12  C    4.800203   3.443797   3.473901   4.822145   2.526440
    13  C    6.149407   4.786531   4.671379   5.945357   3.862547
    14  C    7.081512   5.699165   5.438891   6.638580   4.854919
    15  S    6.669836   5.356270   5.062559   6.180654   4.685550
    16  C    4.960671   3.656277   3.564394   4.811303   2.967618
    17  C    2.980934   2.460325   3.664892   4.847161   1.393019
    18  O    2.820907   2.813863   4.086115   5.043008   2.300933
    19  C    4.465067   3.835628   4.906527   6.196302   2.490016
    20  N    5.276022   4.928609   6.106311   7.317035   3.731335
    21  N    5.942701   5.770340   7.032016   8.201287   4.612462
    22  N    6.846280   6.794811   8.078675   9.202886   5.711322
    23  C    6.878333   6.781411   7.996081   9.105276   5.749240
    24  C    7.927270   7.898658   9.079769  10.132135   6.953089
    25  C    8.085868   7.994244   9.054686  10.065874   7.133718
    26  C    7.281161   7.049960   7.987237   9.002119   6.227415
    27  C    6.153334   5.803372   6.756514   7.850207   4.887584
    28  C    5.923761   5.651043   6.776357   7.925189   4.591910
    29  H    4.951254   4.974579   3.989064   2.668851   6.299242
    30  H    5.736435   6.096059   5.310693   3.923023   7.504657
    31  H    2.159491   3.416839   3.872004   3.388598   4.634606
    32  H    1.086591   2.166888   3.410430   3.880170   2.716971
    33  H    3.415859   2.171358   1.090272   2.147460   2.684979
    34  H    3.884750   3.410235   2.143335   1.091941   4.596647
    35  H    3.729793   2.521276   2.581319   3.787808   2.077483
    36  H    4.335146   3.301123   3.913883   5.229992   2.107559
    37  H    6.565803   5.255878   5.191220   6.434515   4.307074
    38  H    8.150917   6.763023   6.450031   7.604910   5.914643
    39  H    4.399451   3.240267   3.233221   4.382116   2.790251
    40  H    5.053668   4.176496   5.002825   6.358342   2.797339
    41  H    4.741036   4.128242   5.190038   6.475983   2.775459
    42  H    8.747812   8.803114  10.030597  11.064851   7.864245
    43  H    9.021614   8.974618  10.007509  10.972672   8.168367
    44  H    7.733126   7.466812   8.270901   9.219547   6.752552
    45  H    5.711199   5.202752   5.998236   7.092256   4.351828
                   11         12         13         14         15
    11  C    0.000000
    12  C    1.515251   0.000000
    13  C    2.587152   1.436064   0.000000
    14  C    3.768430   2.340262   1.369066   0.000000
    15  S    4.066430   2.587916   2.577123   1.736567   0.000000
    16  C    2.570676   1.374156   2.329342   2.486013   1.737766
    17  C    2.489677   3.275225   4.548129   5.423249   5.111054
    18  O    3.620472   4.348515   5.676080   6.448868   5.901568
    19  C    2.826927   3.333594   4.255479   5.101738   5.056502
    20  N    4.259962   4.690974   5.548119   6.255812   6.075674
    21  N    5.072614   5.706507   6.446685   7.268162   7.290775
    22  N    6.272928   6.807413   7.548520   8.254201   8.144581
    23  C    6.414508   6.725503   7.537001   8.057521   7.683936
    24  C    7.677975   7.872483   8.679730   9.061313   8.528182
    25  C    7.894228   7.888107   8.724595   8.927819   8.160432
    26  C    6.970587   6.816066   7.691321   7.805473   6.893631
    27  C    5.587414   5.486929   6.406661   6.641752   5.841530
    28  C    5.251959   5.442586   6.325744   6.804187   6.331494
    29  H    6.671747   7.233582   8.148909   8.797531   8.444800
    30  H    8.091100   8.707299   9.720334  10.349588   9.849740
    31  H    5.812901   6.858505   8.186804   9.077115   8.562515
    32  H    4.065074   5.223420   6.568024   7.541602   7.158783
    33  H    2.630686   2.783296   3.831182   4.495272   4.188431
    34  H    4.897989   5.227821   6.193497   6.749272   6.285405
    35  H    1.099800   2.153974   2.951989   4.167823   4.606475
    36  H    1.100805   2.146633   2.794905   4.079774   4.660257
    37  H    2.879172   2.234681   1.091294   2.168341   3.630675
    38  H    4.762303   3.394160   2.213843   1.088147   2.469745
    39  H    2.948781   2.215924   3.384108   3.545967   2.469536
    40  H    2.751852   2.730483   3.495660   4.166066   4.114362
    41  H    2.783759   3.546956   4.261621   5.293895   5.584018
    42  H    8.583912   8.849036   9.621920  10.039095   9.574505
    43  H    8.949435   8.892649   9.713662   9.839018   8.994502
    44  H    7.493219   7.182789   8.048979   8.004269   6.902901
    45  H    5.008351   4.736160   5.701725   5.847342   4.890431
                   16         17         18         19         20
    16  C    0.000000
    17  C    3.489347   0.000000
    18  O    4.306335   1.216017   0.000000
    19  C    3.730677   1.542853   2.400366   0.000000
    20  N    4.892390   2.472445   2.714438   1.439873   0.000000
    21  N    6.105504   3.433147   3.608708   2.420539   1.369589
    22  N    7.051515   4.424908   4.335148   3.514590   2.170606
    23  C    6.697590   4.385691   4.128795   3.608514   2.181840
    24  C    7.675853   5.577358   5.157879   4.913536   3.526678
    25  C    7.453398   5.809562   5.321010   5.307577   4.094289
    26  C    6.231918   5.006002   4.576351   4.645619   3.716449
    27  C    5.009605   3.683973   3.425799   3.297566   2.556390
    28  C    5.316370   3.263278   3.123841   2.555515   1.368072
    29  H    7.284620   7.430318   7.553521   8.781265   9.899767
    30  H    8.651183   8.477999   8.383924   9.925393  10.911072
    31  H    6.917416   5.038382   4.578975   6.523747   7.149077
    32  H    5.428781   2.733524   2.322893   4.130710   4.704675
    33  H    2.864158   3.949930   4.579165   4.948568   6.246308
    34  H    5.144379   5.766136   6.023855   7.042535   8.216700
    35  H    3.218067   3.339677   4.363991   3.848644   5.264699
    36  H    3.337118   2.691469   3.885814   2.515591   3.900491
    37  H    3.360556   5.023848   6.214604   4.603445   5.896987
    38  H    3.546562   6.461394   7.499116   6.021293   7.113474
    39  H    1.088084   3.165874   3.716139   3.742324   4.762766
    40  H    3.014605   2.184073   3.105491   1.101655   2.094233
    41  H    4.289013   2.187609   3.130702   1.098991   2.032320
    42  H    8.718999   6.480809   6.041345   5.781300   4.352095
    43  H    8.381074   6.854926   6.305370   6.394621   5.184430
    44  H    6.410185   5.641576   5.185812   5.422584   4.662153
    45  H    4.081153   3.352552   3.220284   3.195970   2.942345
                   21         22         23         24         25
    21  N    0.000000
    22  N    1.287678   0.000000
    23  C    2.166259   1.381904   0.000000
    24  C    3.543104   2.533563   1.406057   0.000000
    25  C    4.509215   3.724975   2.387506   1.387707   0.000000
    26  C    4.539089   4.132993   2.772983   2.446245   1.418379
    27  C    3.632689   3.606103   2.464488   2.876520   2.455857
    28  C    2.242741   2.268868   1.411420   2.448651   2.766038
    29  H   10.684785  11.694071  11.665646  12.682022  12.624162
    30  H   11.662493  12.576071  12.504367  13.427334  13.333360
    31  H    7.683307   8.437549   8.461160   9.363548   9.489687
    32  H    5.215405   6.038082   6.143310   7.183808   7.458748
    33  H    7.244805   8.325535   8.207981   9.299954   9.225225
    34  H    9.151084  10.168633  10.031338  11.041929  10.907142
    35  H    5.974902   7.204620   7.423479   8.703572   8.940612
    36  H    4.486776   5.743127   6.079046   7.413757   7.798342
    37  H    6.603138   7.761106   7.930521   9.144715   9.331149
    38  H    8.067493   9.023168   8.839094   9.805971   9.663654
    39  H    6.045399   6.901733   6.425129   7.319255   7.000672
    40  H    3.192931   4.167572   4.057546   5.246262   5.449756
    41  H    2.412446   3.673738   4.138031   5.520304   6.107993
    42  H    4.068832   2.861207   2.172852   1.090992   2.174138
    43  H    5.541823   4.657978   3.385844   2.149775   1.091873
    44  H    5.584794   5.224482   3.864927   3.420973   2.168405
    45  H    4.220103   4.456240   3.459325   3.966695   3.449053
                   26         27         28         29         30
    26  C    0.000000
    27  C    1.389120   0.000000
    28  C    2.374139   1.404574   0.000000
    29  H   11.580190  10.473988  10.538399   0.000000
    30  H   12.338978  11.341560  11.448246   1.716716   0.000000
    31  H    8.773424   7.826088   7.659158   4.439336   4.578441
    32  H    6.807675   5.733206   5.346130   5.955509   6.622703
    33  H    8.087691   6.830039   6.917727   4.488924   5.955212
    34  H    9.777027   8.638243   8.800751   2.178361   3.606904
    35  H    8.015471   6.637983   6.294326   5.945612   7.448035
    36  H    7.023901   5.639627   5.064224   7.556337   8.963794
    37  H    8.402159   7.095011   6.827478   8.497716  10.113623
    38  H    8.569196   7.468772   7.637806   9.642652  11.226862
    39  H    5.729576   4.563313   5.020430   6.929068   8.150045
    40  H    4.621240   3.269341   2.866172   8.979002  10.214082
    41  H    5.596386   4.294093   3.355322   8.946057  10.150865
    42  H    3.446711   3.967456   3.437998  13.579285  14.284910
    43  H    2.168454   3.427922   3.857459  13.499305  14.141505
    44  H    1.092292   2.144221   3.371878  11.752724  12.466517
    45  H    2.168420   1.090323   2.188330   9.720982  10.637210
                   31         32         33         34         35
    31  H    0.000000
    32  H    2.485114   0.000000
    33  H    4.961393   4.321862   0.000000
    34  H    4.300618   4.971166   2.445487   0.000000
    35  H    5.628201   4.249834   2.290209   4.327357   0.000000
    36  H    6.419146   4.450231   3.705413   5.902731   1.747273
    37  H    8.587003   6.940061   4.411528   6.692263   3.043804
    38  H   10.136655   8.612403   5.468052   7.634836   5.090053
    39  H    6.249037   4.865988   2.779892   4.797525   3.601426
    40  H    7.170807   4.905649   4.814336   7.082575   3.845871
    41  H    6.781450   4.386069   5.224530   7.322346   3.664052
    42  H   10.094251   7.932438  10.287034  12.003077   9.589766
    43  H   10.318606   8.392319  10.183422  11.796481   9.994640
    44  H    9.144649   7.362799   8.327313   9.917883   8.516663
    45  H    7.440959   5.475984   5.988300   7.805097   6.035079
                   36         37         38         39         40
    36  H    0.000000
    37  H    2.761179   0.000000
    38  H    4.964135   2.640329   0.000000
    39  H    3.810687   4.373928   4.582453   0.000000
    40  H    2.551138   3.970481   5.051037   3.215024   0.000000
    41  H    2.080653   4.343304   6.146267   4.483519   1.780295
    42  H    8.243198  10.023193  10.758213   8.383113   6.178278
    43  H    8.878768  10.347728  10.541166   7.893549   6.504523
    44  H    7.669339   8.852190   8.737026   5.838081   5.269195
    45  H    5.237465   6.497094   6.708237   3.570394   2.950394
                   41         42         43         44         45
    41  H    0.000000
    42  H    6.265855   0.000000
    43  H    7.198799   2.509998   0.000000
    44  H    6.433226   4.333572   2.474264   0.000000
    45  H    4.274371   5.057619   4.329940   2.490163   0.000000
 Stoichiometry    C20H17N5O2S
 Framework group  C1[X(C20H17N5O2S)]
 Deg. of freedom   129
 Full point group                 C1      NOp   1
 Largest Abelian subgroup         C1      NOp   1
 Largest concise Abelian subgroup C1      NOp   1
                         Standard orientation:                         
 ---------------------------------------------------------------------
 Center     Atomic      Atomic             Coordinates (Angstroms)
 Number     Number       Type             X           Y           Z
 ---------------------------------------------------------------------
      1          7           0        6.871180   -1.165798    0.629051
      2          6           0        5.794440   -2.020529    0.521051
      3          8           0        5.900150   -3.220629    0.731961
      4          6           0        4.478190   -1.388949    0.166301
      5          6           0        3.431930   -2.235209   -0.229599
      6          6           0        2.181710   -1.731369   -0.573809
      7          6           0        1.938950   -0.346369   -0.512249
      8          6           0        2.975189    0.504991   -0.091739
      9          6           0        4.228020   -0.012239    0.239651
     10          7           0        0.678479    0.211740   -0.905929
     11          6           0        0.675979    1.536580   -1.541359
     12          6           0        0.337229    2.699940   -0.631509
     13          6           0        0.081229    4.021080   -1.132839
     14          6           0       -0.191292    4.926790   -0.143009
     15         16           0       -0.145771    4.189730    1.428721
     16          6           0        0.247669    2.644170    0.738591
     17          6           0       -0.514460   -0.462520   -0.655389
     18          8           0       -0.579420   -1.509570   -0.040439
     19          6           0       -1.793241    0.201400   -1.207049
     20          7           0       -2.958180   -0.618450   -0.997299
     21          7           0       -3.545640   -1.224511   -2.075889
     22          7           0       -4.571760   -1.897111   -1.684989
     23          6           0       -4.691740   -1.754511   -0.315709
     24          6           0       -5.642260   -2.275411    0.579931
     25          6           0       -5.506950   -1.942861    1.920391
     26          6           0       -4.448570   -1.113101    2.371091
     27          6           0       -3.498320   -0.593431    1.501251
     28          6           0       -3.643330   -0.929601    0.145231
     29          1           0        6.876500   -0.306518    0.092271
     30          1           0        7.768830   -1.630738    0.722591
     31          1           0        3.625460   -3.307939   -0.268169
     32          1           0        1.390370   -2.410180   -0.879879
     33          1           0        2.802779    1.577061    0.006411
     34          1           0        4.998149    0.675121    0.595701
     35          1           0        1.672499    1.684401   -1.982559
     36          1           0       -0.018171    1.529730   -2.395689
     37          1           0        0.098189    4.280970   -2.192599
     38          1           0       -0.422982    5.985140   -0.244389
     39          1           0        0.396849    1.780960    1.383991
     40          1           0       -1.936501    1.192590   -0.748069
     41          1           0       -1.720981    0.338330   -2.295079
     42          1           0       -6.449350   -2.914701    0.219131
     43          1           0       -6.223520   -2.327401    2.648981
     44          1           0       -4.375720   -0.882481    3.436271
     45          1           0       -2.676670    0.027360    1.859461
 ---------------------------------------------------------------------
 Rotational constants (GHZ):      0.2035985      0.0937102      0.0731993
 Leave Link  202 at Sat Sep 10 07:44:26 2022, MaxMem=  209715200 cpu:       0.2
 (Enter /opt/gaussian/l301.exe)
 Standard basis: CC-pVDZ (5D, 7F)
 Ernie: Thresh=  0.10000D-02 Tol=  0.10000D-05 Strict=F.
 Ernie:  64 primitive shells out of 729 were deleted.
 There are   481 symmetry adapted basis functions of A   symmetry.
 Integral buffers will be    131072 words long.
 Raffenetti 2 integral format.
 Two-electron integral symmetry is turned on.
   481 basis functions,  1081 primitive gaussians,   509 cartesian basis functions
   102 alpha electrons      102 beta electrons
       nuclear repulsion energy      2560.7389558351 Hartrees.
 IExCor=  402 DFT=T Ex+Corr=B3LYP ExCW=0 ScaHFX=  0.200000
 ScaDFX=  0.800000  0.720000  1.000000  0.810000 ScalE2=  1.000000  1.000000
 IRadAn=      0 IRanWt=     -1 IRanGd=            0 ICorTp=0
 NAtoms=   45 NActive=   45 NUniq=   45 SFac= 1.00D+00 NAtFMM=   60 NAOKFM=F Big=F
 Leave Link  301 at Sat Sep 10 07:44:26 2022, MaxMem=  209715200 cpu:       0.3
 (Enter /opt/gaussian/l302.exe)
 NPDir=0 NMtPBC=     1 NCelOv=     1 NCel=       1 NClECP=     1 NCelD=      1
         NCelK=      1 NCelE2=     1 NClLst=     1 CellRange=     0.0.
 One-electron integrals computed using PRISM.
 NBasis=   481 RedAO= T  NBF=   481
 NBsUse=   481 1.00D-06 NBFU=   481
 Precomputing XC quadrature grid using
 IXCGrd= 2 IRadAn=           0 IRanWt=          -1 IRanGd=           0 AccXCQ= 0.00D+00.
 NRdTot=    2893 NPtTot=      369594 NUsed=      390443 NTot=      390475
 NSgBfM=   492   492   492   492   492 NAtAll=    45    45.
 Leave Link  302 at Sat Sep 10 07:44:27 2022, MaxMem=  209715200 cpu:       6.2
 (Enter /opt/gaussian/l303.exe)
 DipDrv:  MaxL=1.
 Leave Link  303 at Sat Sep 10 07:44:27 2022, MaxMem=  209715200 cpu:       1.0
 (Enter /opt/gaussian/l401.exe)
 Harris functional with IExCor=  402 diagonalized for initial guess.
 ExpMin= 1.22D-01 ExpMax= 1.11D+05 ExpMxC= 1.07D+03 IAcc=2 IRadAn=         4 AccDes= 0.00D+00
 HarFok:  IExCor=  402 AccDes= 0.00D+00 IRadAn=         4 IDoV= 1
 ScaDFX=  1.000000  1.000000  1.000000  1.000000
 FoFCou: FMM=F IPFlag=           0 FMFlag=      100000 FMFlg1=           0
         NFxFlg=           0 DoJE=T BraDBF=F KetDBF=T FulRan=T
         Omega=  0.000000  0.000000  1.000000  0.000000  0.000000 ICntrl=     500 IOpCl=  0
         NMat0=    1 NMatS0=    1 NMatT0=    0 NMatD0=    1 NMtDS0=    0 NMtDT0=    0
         I1Cent=           4 NGrid=           0.
 Petite list used in FoFCou.
 Harris En= -1594.64808851922    
 Initial guess orbital symmetries:
       Occupied  (A) (A) (A) (A) (A) (A) (A) (A) (A) (A) (A) (A)
                 (A) (A) (A) (A) (A) (A) (A) (A) (A) (A) (A) (A)
                 (A) (A) (A) (A) (A) (A) (A) (A) (A) (A) (A) (A)
                 (A) (A) (A) (A) (A) (A) (A) (A) (A) (A) (A) (A)
                 (A) (A) (A) (A) (A) (A) (A) (A) (A) (A) (A) (A)
                 (A) (A) (A) (A) (A) (A) (A) (A) (A) (A) (A) (A)
                 (A) (A) (A) (A) (A) (A) (A) (A) (A) (A) (A) (A)
                 (A) (A) (A) (A) (A) (A) (A) (A) (A) (A) (A) (A)
                 (A) (A) (A) (A) (A) (A)
       Virtual   (A) (A) (A) (A) (A) (A) (A) (A) (A) (A) (A) (A)
                 (A) (A) (A) (A) (A) (A) (A) (A) (A) (A) (A) (A)
                 (A) (A) (A) (A) (A) (A) (A) (A) (A) (A) (A) (A)
                 (A) (A) (A) (A) (A) (A) (A) (A) (A) (A) (A) (A)
                 (A) (A) (A) (A) (A) (A) (A) (A) (A) (A) (A) (A)
                 (A) (A) (A) (A) (A) (A) (A) (A) (A) (A) (A) (A)
                 (A) (A) (A) (A) (A) (A) (A) (A) (A) (A) (A) (A)
                 (A) (A) (A) (A) (A) (A) (A) (A) (A) (A) (A) (A)
                 (A) (A) (A) (A) (A) (A) (A) (A) (A) (A) (A) (A)
                 (A) (A) (A) (A) (A) (A) (A) (A) (A) (A) (A) (A)
                 (A) (A) (A) (A) (A) (A) (A) (A) (A) (A) (A) (A)
                 (A) (A) (A) (A) (A) (A) (A) (A) (A) (A) (A) (A)
                 (A) (A) (A) (A) (A) (A) (A) (A) (A) (A) (A) (A)
                 (A) (A) (A) (A) (A) (A) (A) (A) (A) (A) (A) (A)
                 (A) (A) (A) (A) (A) (A) (A) (A) (A) (A) (A) (A)
                 (A) (A) (A) (A) (A) (A) (A) (A) (A) (A) (A) (A)
                 (A) (A) (A) (A) (A) (A) (A) (A) (A) (A) (A) (A)
                 (A) (A) (A) (A) (A) (A) (A) (A) (A) (A) (A) (A)
                 (A) (A) (A) (A) (A) (A) (A) (A) (A) (A) (A) (A)
                 (A) (A) (A) (A) (A) (A) (A) (A) (A) (A) (A) (A)
                 (A) (A) (A) (A) (A) (A) (A) (A) (A) (A) (A) (A)
                 (A) (A) (A) (A) (A) (A) (A) (A) (A) (A) (A) (A)
                 (A) (A) (A) (A) (A) (A) (A) (A) (A) (A) (A) (A)
                 (A) (A) (A) (A) (A) (A) (A) (A) (A) (A) (A) (A)
                 (A) (A) (A) (A) (A) (A) (A) (A) (A) (A) (A) (A)
                 (A) (A) (A) (A) (A) (A) (A) (A) (A) (A) (A) (A)
                 (A) (A) (A) (A) (A) (A) (A) (A) (A) (A) (A) (A)
                 (A) (A) (A) (A) (A) (A) (A) (A) (A) (A) (A) (A)
                 (A) (A) (A) (A) (A) (A) (A) (A) (A) (A) (A) (A)
                 (A) (A) (A) (A) (A) (A) (A) (A) (A) (A) (A) (A)
                 (A) (A) (A) (A) (A) (A) (A) (A) (A) (A) (A) (A)
                 (A) (A) (A) (A) (A) (A) (A)
 The electronic state of the initial guess is 1-A.
 Leave Link  401 at Sat Sep 10 07:44:29 2022, MaxMem=  209715200 cpu:      20.8
 (Enter /opt/gaussian/l502.exe)
 Closed shell SCF:
 Requested convergence on RMS density matrix=1.00D-08 within 128 cycles.
 Requested convergence on MAX density matrix=1.00D-06.
 Requested convergence on             energy=1.00D-06.
 No special actions if energy rises.
 Using DIIS extrapolation, IDIIS=  1040.
 Integral symmetry usage will be decided dynamically.
       390025 words used for storage of precomputed grid.
 IEnd=     1193332 IEndB=     1193332 NGot=   209715200 MDV=   208798099
 LenX=   208798099 LenY=   208538509
 Fock matrices will be formed incrementally for  20 cycles.
 Integral accuracy reduced to 1.0D-05 until final iterations.

 Cycle   1  Pass 0  IDiag  1:
 FoFCou: FMM=F IPFlag=           0 FMFlag=      100000 FMFlg1=           0
         NFxFlg=           0 DoJE=F BraDBF=F KetDBF=F FulRan=T
         Omega=  0.000000  0.000000  1.000000  0.000000  0.000000 ICntrl=       0 IOpCl=  0
         NMat0=    1 NMatS0=    1 NMatT0=    0 NMatD0=    1 NMtDS0=    0 NMtDT0=    0
         I1Cent=           0 NGrid=           0.
 Symmetry not used in FoFCou.
 E= -1594.17347941001    
 DIIS: error= 1.82D-02 at cycle   1 NSaved=   1.
 NSaved= 1 IEnMin= 1 EnMin= -1594.17347941001     IErMin= 1 ErrMin= 1.82D-02
 ErrMax= 1.82D-02 EMaxC= 1.00D-01 BMatC= 6.37D-01 BMatP= 6.37D-01
 IDIUse=3 WtCom= 8.18D-01 WtEn= 1.82D-01
 Coeff-Com:  0.100D+01
 Coeff-En:   0.100D+01
 Coeff:      0.100D+01
 Gap=     0.287 Goal=   None    Shift=    0.000
 GapD=    0.287 DampG=1.000 DampE=0.500 DampFc=0.5000 IDamp=-1.
 Damping current iteration by 5.00D-01
 RMSDP=4.97D-03 MaxDP=2.06D-01              OVMax= 2.96D-01

 Cycle   2  Pass 0  IDiag  1:
 RMSU=  1.75D-03    CP:  9.84D-01
 E= -1594.30203855334     Delta-E=       -0.128559143328 Rises=F Damp=T
 DIIS: error= 9.11D-03 at cycle   2 NSaved=   2.
 NSaved= 2 IEnMin= 2 EnMin= -1594.30203855334     IErMin= 2 ErrMin= 9.11D-03
 ErrMax= 9.11D-03 EMaxC= 1.00D-01 BMatC= 1.38D-01 BMatP= 6.37D-01
 IDIUse=3 WtCom= 9.09D-01 WtEn= 9.11D-02
 Coeff-Com:  0.270D+00 0.730D+00
 Coeff-En:   0.405D+00 0.595D+00
 Coeff:      0.282D+00 0.718D+00
 Gap=     0.274 Goal=   None    Shift=    0.000
 RMSDP=1.61D-03 MaxDP=7.67D-02 DE=-1.29D-01 OVMax= 3.08D-01

 Cycle   3  Pass 0  IDiag  1:
 RMSU=  9.99D-04    CP:  9.70D-01  7.00D-01
 E= -1594.74932647998     Delta-E=       -0.447287926643 Rises=F Damp=F
 DIIS: error= 9.16D-03 at cycle   3 NSaved=   3.
 NSaved= 3 IEnMin= 3 EnMin= -1594.74932647998     IErMin= 2 ErrMin= 9.11D-03
 ErrMax= 9.16D-03 EMaxC= 1.00D-01 BMatC= 9.21D-02 BMatP= 1.38D-01
 IDIUse=3 WtCom= 9.08D-01 WtEn= 9.16D-02
 Coeff-Com:  0.103D+00 0.444D+00 0.453D+00
 Coeff-En:   0.000D+00 0.000D+00 0.100D+01
 Coeff:      0.934D-01 0.403D+00 0.503D+00
 Gap=     0.194 Goal=   None    Shift=    0.000
 RMSDP=8.16D-04 MaxDP=4.68D-02 DE=-4.47D-01 OVMax= 6.77D-02

 Cycle   4  Pass 0  IDiag  1:
 RMSU=  4.33D-04    CP:  9.74D-01  7.87D-01  6.54D-01
 E= -1594.81784335469     Delta-E=       -0.068516874707 Rises=F Damp=F
 DIIS: error= 3.66D-03 at cycle   4 NSaved=   4.
 NSaved= 4 IEnMin= 4 EnMin= -1594.81784335469     IErMin= 4 ErrMin= 3.66D-03
 ErrMax= 3.66D-03 EMaxC= 1.00D-01 BMatC= 1.82D-02 BMatP= 9.21D-02
 IDIUse=3 WtCom= 9.63D-01 WtEn= 3.66D-02
 Coeff-Com:  0.251D-01 0.124D+00 0.318D+00 0.532D+00
 Coeff-En:   0.000D+00 0.000D+00 0.189D+00 0.811D+00
 Coeff:      0.242D-01 0.120D+00 0.314D+00 0.543D+00
 Gap=     0.183 Goal=   None    Shift=    0.000
 RMSDP=3.55D-04 MaxDP=2.11D-02 DE=-6.85D-02 OVMax= 3.75D-02

 Cycle   5  Pass 0  IDiag  1:
 RMSU=  1.53D-04    CP:  9.73D-01  7.58D-01  7.18D-01  5.83D-01
 E= -1594.83243376074     Delta-E=       -0.014590406050 Rises=F Damp=F
 DIIS: error= 2.15D-03 at cycle   5 NSaved=   5.
 NSaved= 5 IEnMin= 5 EnMin= -1594.83243376074     IErMin= 5 ErrMin= 2.15D-03
 ErrMax= 2.15D-03 EMaxC= 1.00D-01 BMatC= 1.93D-03 BMatP= 1.82D-02
 IDIUse=3 WtCom= 9.78D-01 WtEn= 2.15D-02
 Coeff-Com:  0.464D-02 0.218D-01 0.139D+00 0.343D+00 0.492D+00
 Coeff-En:   0.000D+00 0.000D+00 0.000D+00 0.871D-01 0.913D+00
 Coeff:      0.454D-02 0.213D-01 0.136D+00 0.337D+00 0.501D+00
 Gap=     0.183 Goal=   None    Shift=    0.000
 RMSDP=1.29D-04 MaxDP=7.63D-03 DE=-1.46D-02 OVMax= 1.79D-02

 Cycle   6  Pass 0  IDiag  1:
 RMSU=  3.99D-05    CP:  9.73D-01  7.57D-01  7.33D-01  6.69D-01  5.34D-01
 E= -1594.83439994165     Delta-E=       -0.001966180910 Rises=F Damp=F
 DIIS: error= 6.63D-04 at cycle   6 NSaved=   6.
 NSaved= 6 IEnMin= 6 EnMin= -1594.83439994165     IErMin= 6 ErrMin= 6.63D-04
 ErrMax= 6.63D-04 EMaxC= 1.00D-01 BMatC= 2.00D-04 BMatP= 1.93D-03
 IDIUse=3 WtCom= 9.93D-01 WtEn= 6.63D-03
 Coeff-Com:  0.102D-03-0.344D-02 0.432D-01 0.137D+00 0.301D+00 0.522D+00
 Coeff-En:   0.000D+00 0.000D+00 0.000D+00 0.000D+00 0.526D-01 0.947D+00
 Coeff:      0.102D-03-0.341D-02 0.429D-01 0.136D+00 0.300D+00 0.525D+00
 Gap=     0.183 Goal=   None    Shift=    0.000
 RMSDP=3.42D-05 MaxDP=2.41D-03 DE=-1.97D-03 OVMax= 4.35D-03

 Cycle   7  Pass 0  IDiag  1:
 RMSU=  1.56D-05    CP:  9.73D-01  7.59D-01  7.34D-01  6.62D-01  5.91D-01
                    CP:  6.07D-01
 E= -1594.83459355875     Delta-E=       -0.000193617099 Rises=F Damp=F
 DIIS: error= 1.66D-04 at cycle   7 NSaved=   7.
 NSaved= 7 IEnMin= 7 EnMin= -1594.83459355875     IErMin= 7 ErrMin= 1.66D-04
 ErrMax= 1.66D-04 EMaxC= 1.00D-01 BMatC= 1.90D-05 BMatP= 2.00D-04
 IDIUse=3 WtCom= 9.98D-01 WtEn= 1.66D-03
 Coeff-Com: -0.118D-03-0.381D-02 0.122D-01 0.452D-01 0.123D+00 0.306D+00
 Coeff-Com:  0.517D+00
 Coeff-En:   0.000D+00 0.000D+00 0.000D+00 0.000D+00 0.000D+00 0.247D-01
 Coeff-En:   0.975D+00
 Coeff:     -0.118D-03-0.381D-02 0.122D-01 0.452D-01 0.123D+00 0.306D+00
 Coeff:      0.518D+00
 Gap=     0.183 Goal=   None    Shift=    0.000
 RMSDP=1.17D-05 MaxDP=7.42D-04 DE=-1.94D-04 OVMax= 1.22D-03

 Cycle   8  Pass 0  IDiag  1:
 RMSU=  4.75D-06    CP:  9.73D-01  7.58D-01  7.34D-01  6.64D-01  5.96D-01
                    CP:  6.59D-01  6.08D-01
 E= -1594.83461106025     Delta-E=       -0.000017501504 Rises=F Damp=F
 DIIS: error= 6.65D-05 at cycle   8 NSaved=   8.
 NSaved= 8 IEnMin= 8 EnMin= -1594.83461106025     IErMin= 8 ErrMin= 6.65D-05
 ErrMax= 6.65D-05 EMaxC= 1.00D-01 BMatC= 2.61D-06 BMatP= 1.90D-05
 IDIUse=1 WtCom= 1.00D+00 WtEn= 0.00D+00
 Coeff-Com: -0.250D-04-0.237D-02 0.449D-02 0.179D-01 0.550D-01 0.155D+00
 Coeff-Com:  0.330D+00 0.440D+00
 Coeff:     -0.250D-04-0.237D-02 0.449D-02 0.179D-01 0.550D-01 0.155D+00
 Coeff:      0.330D+00 0.440D+00
 Gap=     0.183 Goal=   None    Shift=    0.000
 RMSDP=3.84D-06 MaxDP=3.10D-04 DE=-1.75D-05 OVMax= 4.17D-04

 Initial convergence to 1.0D-05 achieved.  Increase integral accuracy.
 Cycle   9  Pass 1  IDiag  1:
 E= -1594.83453548488     Delta-E=        0.000075575373 Rises=F Damp=F
 DIIS: error= 1.92D-04 at cycle   1 NSaved=   1.
 NSaved= 1 IEnMin= 1 EnMin= -1594.83453548488     IErMin= 1 ErrMin= 1.92D-04
 ErrMax= 1.92D-04 EMaxC= 1.00D-01 BMatC= 7.29D-06 BMatP= 7.29D-06
 IDIUse=3 WtCom= 9.98D-01 WtEn= 1.92D-03
 Coeff-Com:  0.100D+01
 Coeff-En:   0.100D+01
 Coeff:      0.100D+01
 Gap=     0.183 Goal=   None    Shift=    0.000
 RMSDP=3.84D-06 MaxDP=3.10D-04 DE= 7.56D-05 OVMax= 4.68D-04

 Cycle  10  Pass 1  IDiag  1:
 RMSU=  7.68D-05    CP:  1.00D+00
 E= -1594.83454190671     Delta-E=       -0.000006421827 Rises=F Damp=F
 DIIS: error= 5.73D-05 at cycle   2 NSaved=   2.
 NSaved= 2 IEnMin= 2 EnMin= -1594.83454190671     IErMin= 2 ErrMin= 5.73D-05
 ErrMax= 5.73D-05 EMaxC= 1.00D-01 BMatC= 1.04D-06 BMatP= 7.29D-06
 IDIUse=1 WtCom= 1.00D+00 WtEn= 0.00D+00
 Coeff-Com:  0.158D+00 0.842D+00
 Coeff:      0.158D+00 0.842D+00
 Gap=     0.183 Goal=   None    Shift=    0.000
 RMSDP=5.83D-06 MaxDP=5.51D-04 DE=-6.42D-06 OVMax= 7.84D-04

 Cycle  11  Pass 1  IDiag  1:
 RMSU=  4.07D-06    CP:  1.00D+00  1.01D+00
 E= -1594.83454010958     Delta-E=        0.000001797129 Rises=F Damp=F
 DIIS: error= 1.05D-04 at cycle   3 NSaved=   3.
 NSaved= 3 IEnMin= 2 EnMin= -1594.83454190671     IErMin= 2 ErrMin= 5.73D-05
 ErrMax= 1.05D-04 EMaxC= 1.00D-01 BMatC= 3.19D-06 BMatP= 1.04D-06
 IDIUse=3 WtCom= 4.94D-01 WtEn= 5.06D-01
 Coeff-Com: -0.378D-02 0.639D+00 0.365D+00
 Coeff-En:   0.000D+00 0.695D+00 0.305D+00
 Coeff:     -0.187D-02 0.668D+00 0.334D+00
 Gap=     0.183 Goal=   None    Shift=    0.000
 RMSDP=3.38D-06 MaxDP=3.30D-04 DE= 1.80D-06 OVMax= 4.79D-04

 Cycle  12  Pass 1  IDiag  1:
 RMSU=  3.58D-07    CP:  1.00D+00  1.01D+00  4.22D-01
 E= -1594.83454275893     Delta-E=       -0.000002649351 Rises=F Damp=F
 DIIS: error= 7.36D-06 at cycle   4 NSaved=   4.
 NSaved= 4 IEnMin= 4 EnMin= -1594.83454275893     IErMin= 4 ErrMin= 7.36D-06
 ErrMax= 7.36D-06 EMaxC= 1.00D-01 BMatC= 4.17D-08 BMatP= 1.04D-06
 IDIUse=1 WtCom= 1.00D+00 WtEn= 0.00D+00
 Coeff-Com: -0.390D-02 0.379D+00 0.174D+00 0.452D+00
 Coeff:     -0.390D-02 0.379D+00 0.174D+00 0.452D+00
 Gap=     0.183 Goal=   None    Shift=    0.000
 RMSDP=4.13D-07 MaxDP=3.25D-05 DE=-2.65D-06 OVMax= 4.74D-05

 Cycle  13  Pass 1  IDiag  1:
 RMSU=  1.24D-07    CP:  1.00D+00  1.01D+00  3.65D-01  6.60D-01
 E= -1594.83454279766     Delta-E=       -0.000000038726 Rises=F Damp=F
 DIIS: error= 9.86D-07 at cycle   5 NSaved=   5.
 NSaved= 5 IEnMin= 5 EnMin= -1594.83454279766     IErMin= 5 ErrMin= 9.86D-07
 ErrMax= 9.86D-07 EMaxC= 1.00D-01 BMatC= 4.48D-10 BMatP= 4.17D-08
 IDIUse=1 WtCom= 1.00D+00 WtEn= 0.00D+00
 Coeff-Com: -0.183D-02 0.164D+00 0.716D-01 0.233D+00 0.533D+00
 Coeff:     -0.183D-02 0.164D+00 0.716D-01 0.233D+00 0.533D+00
 Gap=     0.183 Goal=   None    Shift=    0.000
 RMSDP=5.72D-08 MaxDP=3.65D-06 DE=-3.87D-08 OVMax= 7.36D-06

 Cycle  14  Pass 1  IDiag  1:
 RMSU=  3.74D-08    CP:  1.00D+00  1.01D+00  3.65D-01  6.74D-01  8.84D-01
 E= -1594.83454279796     Delta-E=       -0.000000000300 Rises=F Damp=F
 DIIS: error= 3.63D-07 at cycle   6 NSaved=   6.
 NSaved= 6 IEnMin= 6 EnMin= -1594.83454279796     IErMin= 6 ErrMin= 3.63D-07
 ErrMax= 3.63D-07 EMaxC= 1.00D-01 BMatC= 8.85D-11 BMatP= 4.48D-10
 IDIUse=1 WtCom= 1.00D+00 WtEn= 0.00D+00
 Coeff-Com: -0.616D-03 0.520D-01 0.214D-01 0.853D-01 0.330D+00 0.512D+00
 Coeff:     -0.616D-03 0.520D-01 0.214D-01 0.853D-01 0.330D+00 0.512D+00
 Gap=     0.183 Goal=   None    Shift=    0.000
 RMSDP=2.70D-08 MaxDP=1.64D-06 DE=-3.00D-10 OVMax= 3.66D-06

 Cycle  15  Pass 1  IDiag  1:
 RMSU=  1.27D-08    CP:  1.00D+00  1.01D+00  3.65D-01  6.81D-01  9.16D-01
                    CP:  6.42D-01
 E= -1594.83454279807     Delta-E=       -0.000000000111 Rises=F Damp=F
 DIIS: error= 1.31D-07 at cycle   7 NSaved=   7.
 NSaved= 7 IEnMin= 7 EnMin= -1594.83454279807     IErMin= 7 ErrMin= 1.31D-07
 ErrMax= 1.31D-07 EMaxC= 1.00D-01 BMatC= 1.55D-11 BMatP= 8.85D-11
 IDIUse=1 WtCom= 1.00D+00 WtEn= 0.00D+00
 Coeff-Com: -0.418D-04 0.158D-02-0.141D-03 0.931D-02 0.106D+00 0.333D+00
 Coeff-Com:  0.550D+00
 Coeff:     -0.418D-04 0.158D-02-0.141D-03 0.931D-02 0.106D+00 0.333D+00
 Coeff:      0.550D+00
 Gap=     0.183 Goal=   None    Shift=    0.000
 RMSDP=1.01D-08 MaxDP=6.32D-07 DE=-1.11D-10 OVMax= 1.23D-06

 Cycle  16  Pass 1  IDiag  1:
 RMSU=  4.26D-09    CP:  1.00D+00  1.01D+00  3.65D-01  6.85D-01  9.22D-01
                    CP:  7.02D-01  6.16D-01
 E= -1594.83454279810     Delta-E=       -0.000000000035 Rises=F Damp=F
 DIIS: error= 4.48D-08 at cycle   8 NSaved=   8.
 NSaved= 8 IEnMin= 8 EnMin= -1594.83454279810     IErMin= 8 ErrMin= 4.48D-08
 ErrMax= 4.48D-08 EMaxC= 1.00D-01 BMatC= 1.93D-12 BMatP= 1.55D-11
 IDIUse=1 WtCom= 1.00D+00 WtEn= 0.00D+00
 Coeff-Com:  0.442D-04-0.506D-02-0.259D-02-0.400D-02 0.300D-01 0.153D+00
 Coeff-Com:  0.345D+00 0.483D+00
 Coeff:      0.442D-04-0.506D-02-0.259D-02-0.400D-02 0.300D-01 0.153D+00
 Coeff:      0.345D+00 0.483D+00
 Gap=     0.183 Goal=   None    Shift=    0.000
 RMSDP=3.76D-09 MaxDP=1.68D-07 DE=-3.46D-11 OVMax= 3.95D-07

 SCF Done:  E(RB3LYP) =  -1594.83454280     A.U. after   16 cycles
             Convg  =    0.3762D-08             -V/T =  2.0055
 KE= 1.586069586050D+03 PE=-8.851733120626D+03 EE= 3.110090035943D+03
 Leave Link  502 at Sat Sep 10 07:54:32 2022, MaxMem=  209715200 cpu:    4461.0
 (Enter /opt/gaussian/l601.exe)
 Copying SCF densities to generalized density rwf, IOpCl= 0 IROHF=0.

 **********************************************************************

            Population analysis using the SCF density.

 **********************************************************************

 Orbital symmetries:
       Occupied  (A) (A) (A) (A) (A) (A) (A) (A) (A) (A) (A) (A)
                 (A) (A) (A) (A) (A) (A) (A) (A) (A) (A) (A) (A)
                 (A) (A) (A) (A) (A) (A) (A) (A) (A) (A) (A) (A)
                 (A) (A) (A) (A) (A) (A) (A) (A) (A) (A) (A) (A)
                 (A) (A) (A) (A) (A) (A) (A) (A) (A) (A) (A) (A)
                 (A) (A) (A) (A) (A) (A) (A) (A) (A) (A) (A) (A)
                 (A) (A) (A) (A) (A) (A) (A) (A) (A) (A) (A) (A)
                 (A) (A) (A) (A) (A) (A) (A) (A) (A) (A) (A) (A)
                 (A) (A) (A) (A) (A) (A)
       Virtual   (A) (A) (A) (A) (A) (A) (A) (A) (A) (A) (A) (A)
                 (A) (A) (A) (A) (A) (A) (A) (A) (A) (A) (A) (A)
                 (A) (A) (A) (A) (A) (A) (A) (A) (A) (A) (A) (A)
                 (A) (A) (A) (A) (A) (A) (A) (A) (A) (A) (A) (A)
                 (A) (A) (A) (A) (A) (A) (A) (A) (A) (A) (A) (A)
                 (A) (A) (A) (A) (A) (A) (A) (A) (A) (A) (A) (A)
                 (A) (A) (A) (A) (A) (A) (A) (A) (A) (A) (A) (A)
                 (A) (A) (A) (A) (A) (A) (A) (A) (A) (A) (A) (A)
                 (A) (A) (A) (A) (A) (A) (A) (A) (A) (A) (A) (A)
                 (A) (A) (A) (A) (A) (A) (A) (A) (A) (A) (A) (A)
                 (A) (A) (A) (A) (A) (A) (A) (A) (A) (A) (A) (A)
                 (A) (A) (A) (A) (A) (A) (A) (A) (A) (A) (A) (A)
                 (A) (A) (A) (A) (A) (A) (A) (A) (A) (A) (A) (A)
                 (A) (A) (A) (A) (A) (A) (A) (A) (A) (A) (A) (A)
                 (A) (A) (A) (A) (A) (A) (A) (A) (A) (A) (A) (A)
                 (A) (A) (A) (A) (A) (A) (A) (A) (A) (A) (A) (A)
                 (A) (A) (A) (A) (A) (A) (A) (A) (A) (A) (A) (A)
                 (A) (A) (A) (A) (A) (A) (A) (A) (A) (A) (A) (A)
                 (A) (A) (A) (A) (A) (A) (A) (A) (A) (A) (A) (A)
                 (A) (A) (A) (A) (A) (A) (A) (A) (A) (A) (A) (A)
                 (A) (A) (A) (A) (A) (A) (A) (A) (A) (A) (A) (A)
                 (A) (A) (A) (A) (A) (A) (A) (A) (A) (A) (A) (A)
                 (A) (A) (A) (A) (A) (A) (A) (A) (A) (A) (A) (A)
                 (A) (A) (A) (A) (A) (A) (A) (A) (A) (A) (A) (A)
                 (A) (A) (A) (A) (A) (A) (A) (A) (A) (A) (A) (A)
                 (A) (A) (A) (A) (A) (A) (A) (A) (A) (A) (A) (A)
                 (A) (A) (A) (A) (A) (A) (A) (A) (A) (A) (A) (A)
                 (A) (A) (A) (A) (A) (A) (A) (A) (A) (A) (A) (A)
                 (A) (A) (A) (A) (A) (A) (A) (A) (A) (A) (A) (A)
                 (A) (A) (A) (A) (A) (A) (A) (A) (A) (A) (A) (A)
                 (A) (A) (A) (A) (A) (A) (A) (A) (A) (A) (A) (A)
                 (A) (A) (A) (A) (A) (A) (A)
 The electronic state is 1-A.
 Alpha  occ. eigenvalues --  -88.92811 -19.13334 -19.10817 -14.41216 -14.39487
 Alpha  occ. eigenvalues --  -14.39029 -14.35366 -14.34810 -10.31409 -10.29176
 Alpha  occ. eigenvalues --  -10.26422 -10.26042 -10.25292 -10.23657 -10.23432
 Alpha  occ. eigenvalues --  -10.23203 -10.22554 -10.21621 -10.21224 -10.21105
 Alpha  occ. eigenvalues --  -10.20911 -10.20623 -10.20420 -10.20115 -10.20063
 Alpha  occ. eigenvalues --  -10.20049 -10.19871 -10.19456  -7.99014  -5.95338
 Alpha  occ. eigenvalues --   -5.94957  -5.94650  -1.09487  -1.06543  -1.03619
 Alpha  occ. eigenvalues --   -0.97341  -0.92588  -0.90604  -0.90255  -0.86820
 Alpha  occ. eigenvalues --   -0.86432  -0.79616  -0.78470  -0.77321  -0.76388
 Alpha  occ. eigenvalues --   -0.76067  -0.74966  -0.74200  -0.70826  -0.66808
 Alpha  occ. eigenvalues --   -0.64907  -0.62817  -0.62381  -0.61056  -0.59278
 Alpha  occ. eigenvalues --   -0.58414  -0.57299  -0.56498  -0.55040  -0.54158
 Alpha  occ. eigenvalues --   -0.52997  -0.52612  -0.52007  -0.51504  -0.49242
 Alpha  occ. eigenvalues --   -0.48032  -0.46919  -0.46687  -0.46145  -0.45628
 Alpha  occ. eigenvalues --   -0.44750  -0.44616  -0.43808  -0.43519  -0.43200
 Alpha  occ. eigenvalues --   -0.42833  -0.42513  -0.41726  -0.41410  -0.40614
 Alpha  occ. eigenvalues --   -0.39890  -0.39204  -0.38426  -0.37711  -0.37290
 Alpha  occ. eigenvalues --   -0.36707  -0.36533  -0.35837  -0.35585  -0.33098
 Alpha  occ. eigenvalues --   -0.31245  -0.30592  -0.28213  -0.27825  -0.27129
 Alpha  occ. eigenvalues --   -0.26693  -0.26643  -0.26069  -0.25498  -0.24963
 Alpha  occ. eigenvalues --   -0.24065  -0.23475
 Alpha virt. eigenvalues --   -0.05130  -0.04220  -0.03849  -0.02320  -0.00038
 Alpha virt. eigenvalues --    0.00733   0.01318   0.01980   0.03508   0.04023
 Alpha virt. eigenvalues --    0.04697   0.05800   0.06012   0.06552   0.07337
 Alpha virt. eigenvalues --    0.07837   0.08500   0.08875   0.09848   0.10379
 Alpha virt. eigenvalues --    0.10752   0.10955   0.11791   0.13004   0.13425
 Alpha virt. eigenvalues --    0.14242   0.14827   0.15450   0.15996   0.16199
 Alpha virt. eigenvalues --    0.16811   0.17758   0.19475   0.20421   0.21024
 Alpha virt. eigenvalues --    0.23307   0.23988   0.24296   0.24752   0.25238
 Alpha virt. eigenvalues --    0.26494   0.26509   0.27738   0.28278   0.29396
 Alpha virt. eigenvalues --    0.30078   0.30512   0.30929   0.32105   0.33804
 Alpha virt. eigenvalues --    0.34209   0.36006   0.36439   0.36783   0.38686
 Alpha virt. eigenvalues --    0.39862   0.40773   0.41236   0.42185   0.43321
 Alpha virt. eigenvalues --    0.43772   0.44236   0.44771   0.45049   0.45508
 Alpha virt. eigenvalues --    0.45579   0.46013   0.46256   0.46532   0.46838
 Alpha virt. eigenvalues --    0.46942   0.47459   0.47880   0.48392   0.49132
 Alpha virt. eigenvalues --    0.49155   0.49731   0.49915   0.50329   0.50500
 Alpha virt. eigenvalues --    0.50755   0.51315   0.51575   0.52114   0.52362
 Alpha virt. eigenvalues --    0.52595   0.53248   0.53989   0.54513   0.54736
 Alpha virt. eigenvalues --    0.55059   0.55279   0.56107   0.56554   0.57735
 Alpha virt. eigenvalues --    0.58124   0.58408   0.59350   0.59487   0.59832
 Alpha virt. eigenvalues --    0.60742   0.60871   0.61385   0.62098   0.63280
 Alpha virt. eigenvalues --    0.63955   0.64244   0.64426   0.64828   0.64925
 Alpha virt. eigenvalues --    0.65708   0.66115   0.66151   0.66358   0.67105
 Alpha virt. eigenvalues --    0.67892   0.68125   0.69028   0.69666   0.70276
 Alpha virt. eigenvalues --    0.71262   0.71306   0.71788   0.72911   0.73162
 Alpha virt. eigenvalues --    0.73726   0.74324   0.75206   0.75720   0.77414
 Alpha virt. eigenvalues --    0.77717   0.78122   0.79194   0.80713   0.81291
 Alpha virt. eigenvalues --    0.82018   0.83546   0.84274   0.84924   0.85437
 Alpha virt. eigenvalues --    0.86121   0.87392   0.88105   0.88353   0.88640
 Alpha virt. eigenvalues --    0.89568   0.90628   0.90887   0.90937   0.92132
 Alpha virt. eigenvalues --    0.92889   0.93151   0.93511   0.94117   0.94634
 Alpha virt. eigenvalues --    0.94843   0.95593   0.96709   0.98165   0.98764
 Alpha virt. eigenvalues --    0.99163   0.99667   1.00275   1.00605   1.00797
 Alpha virt. eigenvalues --    1.01381   1.01898   1.03072   1.03711   1.04201
 Alpha virt. eigenvalues --    1.04368   1.04797   1.05564   1.06637   1.06969
 Alpha virt. eigenvalues --    1.07302   1.08022   1.09026   1.10163   1.10617
 Alpha virt. eigenvalues --    1.11239   1.11854   1.13218   1.14933   1.16043
 Alpha virt. eigenvalues --    1.16746   1.17245   1.18165   1.19504   1.20449
 Alpha virt. eigenvalues --    1.20958   1.22927   1.23663   1.23973   1.24757
 Alpha virt. eigenvalues --    1.27025   1.28054   1.29135   1.30488   1.30990
 Alpha virt. eigenvalues --    1.31329   1.33297   1.33969   1.35087   1.36053
 Alpha virt. eigenvalues --    1.37554   1.38075   1.38704   1.39772   1.41821
 Alpha virt. eigenvalues --    1.42885   1.43365   1.44893   1.45162   1.45826
 Alpha virt. eigenvalues --    1.46539   1.48404   1.48536   1.49447   1.49789
 Alpha virt. eigenvalues --    1.50228   1.51156   1.52245   1.52970   1.53517
 Alpha virt. eigenvalues --    1.54671   1.55312   1.55592   1.56323   1.57088
 Alpha virt. eigenvalues --    1.57790   1.58137   1.58700   1.59426   1.59922
 Alpha virt. eigenvalues --    1.60445   1.61404   1.62231   1.62994   1.63298
 Alpha virt. eigenvalues --    1.64024   1.64566   1.65001   1.65213   1.65916
 Alpha virt. eigenvalues --    1.66961   1.67337   1.67590   1.68184   1.68587
 Alpha virt. eigenvalues --    1.69559   1.69802   1.70427   1.71136   1.72024
 Alpha virt. eigenvalues --    1.73118   1.73444   1.73691   1.74480   1.75161
 Alpha virt. eigenvalues --    1.76001   1.76452   1.77107   1.78230   1.78497
 Alpha virt. eigenvalues --    1.79242   1.79722   1.80346   1.80637   1.81650
 Alpha virt. eigenvalues --    1.82308   1.82926   1.83203   1.83706   1.84387
 Alpha virt. eigenvalues --    1.84599   1.85851   1.86510   1.86925   1.88484
 Alpha virt. eigenvalues --    1.89478   1.90850   1.91596   1.91797   1.93579
 Alpha virt. eigenvalues --    1.94092   1.95404   1.95504   1.96172   1.96544
 Alpha virt. eigenvalues --    1.97333   1.97687   1.98176   1.99211   2.00181
 Alpha virt. eigenvalues --    2.01043   2.02874   2.03558   2.03748   2.04291
 Alpha virt. eigenvalues --    2.05304   2.06213   2.07839   2.08221   2.09382
 Alpha virt. eigenvalues --    2.10774   2.12359   2.13931   2.13966   2.15474
 Alpha virt. eigenvalues --    2.15856   2.17158   2.18529   2.19845   2.21522
 Alpha virt. eigenvalues --    2.21863   2.23558   2.24762   2.26797   2.28090
 Alpha virt. eigenvalues --    2.29215   2.31782   2.33550   2.34703   2.35787
 Alpha virt. eigenvalues --    2.37779   2.39328   2.39782   2.40713   2.41337
 Alpha virt. eigenvalues --    2.41722   2.42580   2.43761   2.44789   2.45441
 Alpha virt. eigenvalues --    2.46334   2.47455   2.49413   2.51620   2.52189
 Alpha virt. eigenvalues --    2.53496   2.57217   2.58371   2.59113   2.60493
 Alpha virt. eigenvalues --    2.62642   2.63520   2.64888   2.65798   2.67985
 Alpha virt. eigenvalues --    2.69672   2.69845   2.70177   2.70751   2.73253
 Alpha virt. eigenvalues --    2.73613   2.75847   2.77436   2.78760   2.79748
 Alpha virt. eigenvalues --    2.82029   2.85491   2.86928   2.93090   2.93392
 Alpha virt. eigenvalues --    2.95487   2.97969   3.03262   3.07256   3.09169
 Alpha virt. eigenvalues --    3.09872   3.14366   3.22037   3.37280   3.40521
 Alpha virt. eigenvalues --    3.48477   3.48898   3.53672   3.55814
          Condensed to atoms (all electrons):
              1          2          3          4          5          6
     1  N    6.101274   0.424957  -0.078966  -0.079909   0.009578  -0.000070
     2  C    0.424957   4.681441   0.792997   0.174369  -0.069531   0.012762
     3  O   -0.078966   0.792997   7.596804  -0.118632   0.014610   0.001559
     4  C   -0.079909   0.174369  -0.118632   5.415984   0.390310   0.004462
     5  C    0.009578  -0.069531   0.014610   0.390310   4.852659   0.447256
     6  C   -0.000070   0.012762   0.001559   0.004462   0.447256   4.823632
     7  C   -0.000016  -0.000660  -0.000038  -0.082836   0.025727   0.452106
     8  C    0.000415   0.006236  -0.000045  -0.002040  -0.064036  -0.040710
     9  C   -0.006702  -0.071110   0.003401   0.414355  -0.036712  -0.067746
    10  N    0.000000   0.000002   0.000000   0.000495   0.003244  -0.048895
    11  C    0.000000  -0.000001   0.000000  -0.000051   0.000138   0.002779
    12  C    0.000000   0.000000   0.000000  -0.000004   0.000003  -0.000547
    13  C    0.000000   0.000000   0.000000   0.000000   0.000000   0.000012
    14  C    0.000000   0.000000   0.000000   0.000000   0.000000   0.000000
    15  S    0.000000   0.000000   0.000000   0.000000   0.000000  -0.000001
    16  C    0.000000   0.000000   0.000000   0.000002  -0.000001   0.000005
    17  C    0.000000   0.000001   0.000000  -0.000032   0.000157  -0.012868
    18  O    0.000000   0.000000   0.000000  -0.000023   0.000094   0.001167
    19  C    0.000000   0.000000   0.000000   0.000000   0.000000   0.000491
    20  N    0.000000   0.000000   0.000000   0.000000   0.000000  -0.000020
    21  N    0.000000   0.000000   0.000000   0.000000   0.000000  -0.000001
    22  N    0.000000   0.000000   0.000000   0.000000   0.000000   0.000000
    23  C    0.000000   0.000000   0.000000   0.000000   0.000000   0.000000
    24  C    0.000000   0.000000   0.000000   0.000000   0.000000   0.000000
    25  C    0.000000   0.000000   0.000000   0.000000   0.000000   0.000000
    26  C    0.000000   0.000000   0.000000   0.000000   0.000000   0.000000
    27  C    0.000000   0.000000   0.000000   0.000000   0.000000   0.000000
    28  C    0.000000   0.000000   0.000000   0.000000   0.000000  -0.000004
    29  H    0.359999  -0.013508   0.003090  -0.007439  -0.000893  -0.000055
    30  H    0.346554  -0.009713   0.007473   0.013455  -0.000654   0.000000
    31  H    0.001214  -0.020079   0.021918  -0.056838   0.392781  -0.045941
    32  H    0.000001  -0.000225  -0.000005   0.009947  -0.043911   0.386781
    33  H    0.000001  -0.000158   0.000002   0.010321  -0.000241   0.009661
    34  H    0.009971  -0.018784   0.000019  -0.061979   0.011698  -0.000326
    35  H    0.000000  -0.000002   0.000000  -0.000096  -0.000128   0.000636
    36  H    0.000000   0.000000   0.000000   0.000001  -0.000003  -0.000049
    37  H    0.000000   0.000000   0.000000   0.000000   0.000000   0.000000
    38  H    0.000000   0.000000   0.000000   0.000000   0.000000   0.000000
    39  H    0.000000   0.000000   0.000000  -0.000010  -0.000031   0.000051
    40  H    0.000000   0.000000   0.000000   0.000000   0.000001   0.000016
    41  H    0.000000   0.000000   0.000000   0.000000  -0.000003  -0.000046
    42  H    0.000000   0.000000   0.000000   0.000000   0.000000   0.000000
    43  H    0.000000   0.000000   0.000000   0.000000   0.000000   0.000000
    44  H    0.000000   0.000000   0.000000   0.000000   0.000000   0.000000
    45  H    0.000000   0.000000   0.000000   0.000000   0.000000   0.000000
              7          8          9         10         11         12
     1  N   -0.000016   0.000415  -0.006702   0.000000   0.000000   0.000000
     2  C   -0.000660   0.006236  -0.071110   0.000002  -0.000001   0.000000
     3  O   -0.000038  -0.000045   0.003401   0.000000   0.000000   0.000000
     4  C   -0.082836  -0.002040   0.414355   0.000495  -0.000051  -0.000004
     5  C    0.025727  -0.064036  -0.036712   0.003244   0.000138   0.000003
     6  C    0.452106  -0.040710  -0.067746  -0.048895   0.002779  -0.000547
     7  C    4.902523   0.438231   0.008526   0.334053  -0.058356  -0.004806
     8  C    0.438231   4.836606   0.498589  -0.054823  -0.001261  -0.004771
     9  C    0.008526   0.498589   4.882475   0.004019  -0.000062   0.000281
    10  N    0.334053  -0.054823   0.004019   6.542105   0.361507  -0.043951
    11  C   -0.058356  -0.001261  -0.000062   0.361507   4.674585   0.378999
    12  C   -0.004806  -0.004771   0.000281  -0.043951   0.378999   4.892524
    13  C    0.000069  -0.000160   0.000001   0.003848  -0.069725   0.453650
    14  C    0.000002   0.000021  -0.000001  -0.000185   0.007732  -0.008464
    15  S   -0.000038   0.000045  -0.000003   0.000107   0.008736  -0.083148
    16  C    0.000386  -0.003940  -0.000128   0.001700  -0.092213   0.551006
    17  C   -0.053949   0.003735   0.000303   0.367816  -0.052761  -0.000461
    18  O   -0.008661  -0.000363   0.000028  -0.067540   0.002627  -0.000102
    19  C    0.006723  -0.000627   0.000005  -0.073671   0.007155  -0.008297
    20  N   -0.000007   0.000002   0.000000   0.001576   0.000117   0.000066
    21  N    0.000001   0.000000   0.000000  -0.000022   0.000030  -0.000001
    22  N    0.000000   0.000000   0.000000   0.000000   0.000000   0.000000
    23  C    0.000000   0.000000   0.000000  -0.000010   0.000001   0.000000
    24  C    0.000000   0.000000   0.000000   0.000000   0.000000   0.000000
    25  C    0.000000   0.000000   0.000000   0.000000   0.000000   0.000000
    26  C    0.000000   0.000000   0.000000  -0.000001   0.000000   0.000000
    27  C   -0.000001   0.000000   0.000000  -0.000026  -0.000001  -0.000006
    28  C    0.000002   0.000001   0.000000   0.000422   0.000012  -0.000024
    29  H   -0.000001   0.000183   0.003790   0.000000   0.000000   0.000000
    30  H    0.000004  -0.000016  -0.001006   0.000000   0.000000   0.000000
    31  H    0.010790  -0.000441   0.012341  -0.000125   0.000006   0.000000
    32  H   -0.039343   0.010053  -0.000201  -0.011251  -0.000582  -0.000036
    33  H   -0.042130   0.375287  -0.040292  -0.013065   0.009411  -0.003823
    34  H    0.011131  -0.030159   0.375661  -0.000156   0.000028   0.000004
    35  H   -0.012889   0.014247   0.001132  -0.011221   0.351974  -0.020277
    36  H    0.007299   0.000047  -0.000050  -0.017427   0.354586  -0.025131
    37  H   -0.000018  -0.000001   0.000000   0.000168  -0.008339  -0.049954
    38  H    0.000000   0.000000   0.000000   0.000002  -0.000202   0.006826
    39  H    0.001218   0.001658   0.000247   0.003381  -0.019167  -0.006251
    40  H   -0.000535   0.000058  -0.000001  -0.001386   0.003490   0.004011
    41  H    0.000032   0.000013   0.000000  -0.000474  -0.001168  -0.000858
    42  H    0.000000   0.000000   0.000000   0.000000   0.000000   0.000000
    43  H    0.000000   0.000000   0.000000   0.000000   0.000000   0.000000
    44  H    0.000000   0.000000   0.000000   0.000000   0.000000   0.000000
    45  H    0.000007   0.000003   0.000000  -0.000058  -0.000022   0.000074
             13         14         15         16         17         18
     1  N    0.000000   0.000000   0.000000   0.000000   0.000000   0.000000
     2  C    0.000000   0.000000   0.000000   0.000000   0.000001   0.000000
     3  O    0.000000   0.000000   0.000000   0.000000   0.000000   0.000000
     4  C    0.000000   0.000000   0.000000   0.000002  -0.000032  -0.000023
     5  C    0.000000   0.000000   0.000000  -0.000001   0.000157   0.000094
     6  C    0.000012   0.000000  -0.000001   0.000005  -0.012868   0.001167
     7  C    0.000069   0.000002  -0.000038   0.000386  -0.053949  -0.008661
     8  C   -0.000160   0.000021   0.000045  -0.003940   0.003735  -0.000363
     9  C    0.000001  -0.000001  -0.000003  -0.000128   0.000303   0.000028
    10  N    0.003848  -0.000185   0.000107   0.001700   0.367816  -0.067540
    11  C   -0.069725   0.007732   0.008736  -0.092213  -0.052761   0.002627
    12  C    0.453650  -0.008464  -0.083148   0.551006  -0.000461  -0.000102
    13  C    4.756450   0.549086  -0.091568  -0.039463  -0.000085  -0.000003
    14  C    0.549086   4.953254   0.366843  -0.102559  -0.000003   0.000000
    15  S   -0.091568   0.366843  15.353279   0.358304  -0.000103   0.000000
    16  C   -0.039463  -0.102559   0.358304   5.069381   0.000431  -0.000240
    17  C   -0.000085  -0.000003  -0.000103   0.000431   4.636176   0.759130
    18  O   -0.000003   0.000000   0.000000  -0.000240   0.759130   7.606668
    19  C   -0.000515   0.000062   0.000103  -0.003211   0.288554  -0.088642
    20  N   -0.000001   0.000000   0.000000  -0.000008  -0.041515  -0.003467
    21  N    0.000000   0.000000   0.000000  -0.000001  -0.000615   0.000007
    22  N    0.000000   0.000000   0.000000   0.000000  -0.000321   0.000010
    23  C    0.000000   0.000000   0.000000  -0.000001  -0.000955  -0.000948
    24  C    0.000000   0.000000   0.000000   0.000000   0.000022  -0.000020
    25  C    0.000000   0.000000   0.000000   0.000000  -0.000002   0.000014
    26  C    0.000000   0.000000   0.000000   0.000001   0.000067   0.000010
    27  C    0.000000   0.000001  -0.000023  -0.000145   0.002003   0.004158
    28  C    0.000000   0.000000  -0.000001  -0.000045   0.001722   0.010093
    29  H    0.000000   0.000000   0.000000   0.000000   0.000000   0.000000
    30  H    0.000000   0.000000   0.000000   0.000000   0.000000   0.000000
    31  H    0.000000   0.000000   0.000000   0.000000  -0.000004  -0.000011
    32  H    0.000000   0.000000   0.000000   0.000006  -0.000252   0.014380
    33  H   -0.000058  -0.000181  -0.000142   0.005239  -0.001002  -0.000007
    34  H   -0.000001   0.000000   0.000000   0.000004   0.000004   0.000000
    35  H   -0.000799   0.000080  -0.000034  -0.001927   0.005887  -0.000171
    36  H   -0.006286   0.000165  -0.000127   0.005287  -0.015639   0.000289
    37  H    0.402540  -0.055459   0.008119   0.011585  -0.000021   0.000000
    38  H   -0.016287   0.387690  -0.043154   0.003331   0.000000   0.000000
    39  H    0.011111   0.001933  -0.042326   0.383955   0.002453   0.000217
    40  H    0.000587  -0.000200  -0.000402   0.002123  -0.016050   0.000948
    41  H   -0.000077  -0.000012   0.000003   0.000243  -0.006770   0.000965
    42  H    0.000000   0.000000   0.000000   0.000000   0.000000   0.000000
    43  H    0.000000   0.000000   0.000000   0.000000   0.000000   0.000000
    44  H    0.000000   0.000000   0.000000  -0.000001   0.000000  -0.000003
    45  H   -0.000011  -0.000008   0.000152   0.000950   0.000216   0.002437
             19         20         21         22         23         24
     1  N    0.000000   0.000000   0.000000   0.000000   0.000000   0.000000
     2  C    0.000000   0.000000   0.000000   0.000000   0.000000   0.000000
     3  O    0.000000   0.000000   0.000000   0.000000   0.000000   0.000000
     4  C    0.000000   0.000000   0.000000   0.000000   0.000000   0.000000
     5  C    0.000000   0.000000   0.000000   0.000000   0.000000   0.000000
     6  C    0.000491  -0.000020  -0.000001   0.000000   0.000000   0.000000
     7  C    0.006723  -0.000007   0.000001   0.000000   0.000000   0.000000
     8  C   -0.000627   0.000002   0.000000   0.000000   0.000000   0.000000
     9  C    0.000005   0.000000   0.000000   0.000000   0.000000   0.000000
    10  N   -0.073671   0.001576  -0.000022   0.000000  -0.000010   0.000000
    11  C    0.007155   0.000117   0.000030   0.000000   0.000001   0.000000
    12  C   -0.008297   0.000066  -0.000001   0.000000   0.000000   0.000000
    13  C   -0.000515  -0.000001   0.000000   0.000000   0.000000   0.000000
    14  C    0.000062   0.000000   0.000000   0.000000   0.000000   0.000000
    15  S    0.000103   0.000000   0.000000   0.000000   0.000000   0.000000
    16  C   -0.003211  -0.000008  -0.000001   0.000000  -0.000001   0.000000
    17  C    0.288554  -0.041515  -0.000615  -0.000321  -0.000955   0.000022
    18  O   -0.088642  -0.003467   0.000007   0.000010  -0.000948  -0.000020
    19  C    4.792740   0.367535  -0.049391   0.006734   0.010545  -0.000459
    20  N    0.367535   6.507620   0.291237  -0.113159  -0.005053   0.007240
    21  N   -0.049391   0.291237   6.548088   0.460331  -0.125861   0.000548
    22  N    0.006734  -0.113159   0.460331   6.428633   0.508923  -0.050665
    23  C    0.010545  -0.005053  -0.125861   0.508923   4.979169   0.428217
    24  C   -0.000459   0.007240   0.000548  -0.050665   0.428217   4.777235
    25  C    0.000040   0.000512   0.000119   0.004317   0.028446   0.497592
    26  C   -0.000349   0.002479  -0.000121  -0.000691  -0.078323   0.013870
    27  C   -0.005509  -0.059601   0.003340   0.011557  -0.016153  -0.071926
    28  C   -0.075707   0.322246  -0.091035  -0.072936   0.281903   0.013493
    29  H    0.000000   0.000000   0.000000   0.000000   0.000000   0.000000
    30  H    0.000000   0.000000   0.000000   0.000000   0.000000   0.000000
    31  H    0.000000   0.000000   0.000000   0.000000   0.000000   0.000000
    32  H    0.000262  -0.000010   0.000001   0.000000  -0.000001   0.000000
    33  H   -0.000013   0.000000   0.000000   0.000000   0.000000   0.000000
    34  H    0.000000   0.000000   0.000000   0.000000   0.000000   0.000000
    35  H   -0.000878  -0.000010   0.000000   0.000000   0.000000   0.000000
    36  H    0.013877   0.000477  -0.000228   0.000002  -0.000002   0.000000
    37  H   -0.000028   0.000000   0.000000   0.000000   0.000000   0.000000
    38  H    0.000000   0.000000   0.000000   0.000000   0.000000   0.000000
    39  H   -0.000233   0.000004   0.000000   0.000000   0.000000   0.000000
    40  H    0.352985  -0.020615   0.002002  -0.000354   0.000841   0.000027
    41  H    0.335516  -0.022627   0.023750   0.000151  -0.000669  -0.000021
    42  H    0.000003  -0.000010  -0.000556  -0.000940  -0.040994   0.377143
    43  H   -0.000001   0.000003   0.000008  -0.000096   0.010762  -0.048233
    44  H   -0.000014  -0.000134   0.000005  -0.000008  -0.000739   0.010963
    45  H    0.001869  -0.006254  -0.000274  -0.000233   0.009523  -0.000020
             25         26         27         28         29         30
     1  N    0.000000   0.000000   0.000000   0.000000   0.359999   0.346554
     2  C    0.000000   0.000000   0.000000   0.000000  -0.013508  -0.009713
     3  O    0.000000   0.000000   0.000000   0.000000   0.003090   0.007473
     4  C    0.000000   0.000000   0.000000   0.000000  -0.007439   0.013455
     5  C    0.000000   0.000000   0.000000   0.000000  -0.000893  -0.000654
     6  C    0.000000   0.000000   0.000000  -0.000004  -0.000055   0.000000
     7  C    0.000000   0.000000  -0.000001   0.000002  -0.000001   0.000004
     8  C    0.000000   0.000000   0.000000   0.000001   0.000183  -0.000016
     9  C    0.000000   0.000000   0.000000   0.000000   0.003790  -0.001006
    10  N    0.000000  -0.000001  -0.000026   0.000422   0.000000   0.000000
    11  C    0.000000   0.000000  -0.000001   0.000012   0.000000   0.000000
    12  C    0.000000   0.000000  -0.000006  -0.000024   0.000000   0.000000
    13  C    0.000000   0.000000   0.000000   0.000000   0.000000   0.000000
    14  C    0.000000   0.000000   0.000001   0.000000   0.000000   0.000000
    15  S    0.000000   0.000000  -0.000023  -0.000001   0.000000   0.000000
    16  C    0.000000   0.000001  -0.000145  -0.000045   0.000000   0.000000
    17  C   -0.000002   0.000067   0.002003   0.001722   0.000000   0.000000
    18  O    0.000014   0.000010   0.004158   0.010093   0.000000   0.000000
    19  C    0.000040  -0.000349  -0.005509  -0.075707   0.000000   0.000000
    20  N    0.000512   0.002479  -0.059601   0.322246   0.000000   0.000000
    21  N    0.000119  -0.000121   0.003340  -0.091035   0.000000   0.000000
    22  N    0.004317  -0.000691   0.011557  -0.072936   0.000000   0.000000
    23  C    0.028446  -0.078323  -0.016153   0.281903   0.000000   0.000000
    24  C    0.497592   0.013870  -0.071926   0.013493   0.000000   0.000000
    25  C    4.758863   0.464564   0.006904  -0.089336   0.000000   0.000000
    26  C    0.464564   4.716381   0.513596   0.027466   0.000000   0.000000
    27  C    0.006904   0.513596   4.856074   0.393058   0.000000   0.000000
    28  C   -0.089336   0.027466   0.393058   5.060839   0.000000   0.000000
    29  H    0.000000   0.000000   0.000000   0.000000   0.587793  -0.024243
    30  H    0.000000   0.000000   0.000000   0.000000  -0.024243   0.571281
    31  H    0.000000   0.000000   0.000000   0.000000  -0.000171  -0.000128
    32  H    0.000000   0.000000   0.000000   0.000022   0.000000   0.000000
    33  H    0.000000   0.000000   0.000000   0.000000   0.000018  -0.000002
    34  H    0.000000   0.000000   0.000000   0.000000  -0.002542  -0.000529
    35  H    0.000000   0.000000   0.000000   0.000001   0.000000   0.000000
    36  H    0.000000   0.000000   0.000000  -0.000015   0.000000   0.000000
    37  H    0.000000   0.000000   0.000000   0.000000   0.000000   0.000000
    38  H    0.000000   0.000000   0.000000   0.000000   0.000000   0.000000
    39  H    0.000000   0.000000  -0.000024  -0.000006   0.000000   0.000000
    40  H   -0.000018   0.000028   0.001712  -0.001386   0.000000   0.000000
    41  H    0.000003   0.000016   0.000328   0.010694   0.000000   0.000000
    42  H   -0.058467   0.010112  -0.001354   0.015948   0.000000   0.000000
    43  H    0.389625  -0.050996   0.011372  -0.000928   0.000000   0.000000
    44  H   -0.049993   0.386272  -0.046891   0.010776   0.000000   0.000000
    45  H    0.008727  -0.044326   0.366116  -0.030406   0.000000   0.000000
             31         32         33         34         35         36
     1  N    0.001214   0.000001   0.000001   0.009971   0.000000   0.000000
     2  C   -0.020079  -0.000225  -0.000158  -0.018784  -0.000002   0.000000
     3  O    0.021918  -0.000005   0.000002   0.000019   0.000000   0.000000
     4  C   -0.056838   0.009947   0.010321  -0.061979  -0.000096   0.000001
     5  C    0.392781  -0.043911  -0.000241   0.011698  -0.000128  -0.000003
     6  C   -0.045941   0.386781   0.009661  -0.000326   0.000636  -0.000049
     7  C    0.010790  -0.039343  -0.042130   0.011131  -0.012889   0.007299
     8  C   -0.000441   0.010053   0.375287  -0.030159   0.014247   0.000047
     9  C    0.012341  -0.000201  -0.040292   0.375661   0.001132  -0.000050
    10  N   -0.000125  -0.011251  -0.013065  -0.000156  -0.011221  -0.017427
    11  C    0.000006  -0.000582   0.009411   0.000028   0.351974   0.354586
    12  C    0.000000  -0.000036  -0.003823   0.000004  -0.020277  -0.025131
    13  C    0.000000   0.000000  -0.000058  -0.000001  -0.000799  -0.006286
    14  C    0.000000   0.000000  -0.000181   0.000000   0.000080   0.000165
    15  S    0.000000   0.000000  -0.000142   0.000000  -0.000034  -0.000127
    16  C    0.000000   0.000006   0.005239   0.000004  -0.001927   0.005287
[...]
    39  H    0.000000   0.000001  -0.000189   0.000000  -0.000023   0.000005
    40  H    0.000000  -0.000002   0.000017   0.000000   0.000717  -0.006063
    41  H    0.000000  -0.000070  -0.000005   0.000000   0.000294   0.001733
    42  H    0.000000   0.000000   0.000000   0.000000   0.000000   0.000000
    43  H    0.000000   0.000000   0.000000   0.000000   0.000000   0.000000
    44  H    0.000000   0.000000   0.000000   0.000000   0.000000   0.000000
    45  H    0.000000   0.000002  -0.000001   0.000000   0.000001  -0.000014
             37         38         39         40         41         42
     1  N    0.000000   0.000000   0.000000   0.000000   0.000000   0.000000
     2  C    0.000000   0.000000   0.000000   0.000000   0.000000   0.000000
     3  O    0.000000   0.000000   0.000000   0.000000   0.000000   0.000000
     4  C    0.000000   0.000000  -0.000010   0.000000   0.000000   0.000000
     5  C    0.000000   0.000000  -0.000031   0.000001  -0.000003   0.000000
     6  C    0.000000   0.000000   0.000051   0.000016  -0.000046   0.000000
     7  C   -0.000018   0.000000   0.001218  -0.000535   0.000032   0.000000
     8  C   -0.000001   0.000000   0.001658   0.000058   0.000013   0.000000
     9  C    0.000000   0.000000   0.000247  -0.000001   0.000000   0.000000
    10  N    0.000168   0.000002   0.003381  -0.001386  -0.000474   0.000000
    11  C   -0.008339  -0.000202  -0.019167   0.003490  -0.001168   0.000000
    12  C   -0.049954   0.006826  -0.006251   0.004011  -0.000858   0.000000
    13  C    0.402540  -0.016287   0.011111   0.000587  -0.000077   0.000000
    14  C   -0.055459   0.387690   0.001933  -0.000200  -0.000012   0.000000
    15  S    0.008119  -0.043154  -0.042326  -0.000402   0.000003   0.000000
    16  C    0.011585   0.003331   0.383955   0.002123   0.000243   0.000000
    17  C   -0.000021   0.000000   0.002453  -0.016050  -0.006770   0.000000
    18  O    0.000000   0.000000   0.000217   0.000948   0.000965   0.000000
    19  C   -0.000028   0.000000  -0.000233   0.352985   0.335516   0.000003
    20  N    0.000000   0.000000   0.000004  -0.020615  -0.022627  -0.000010
    21  N    0.000000   0.000000   0.000000   0.002002   0.023750  -0.000556
    22  N    0.000000   0.000000   0.000000  -0.000354   0.000151  -0.000940
    23  C    0.000000   0.000000   0.000000   0.000841  -0.000669  -0.040994
    24  C    0.000000   0.000000   0.000000   0.000027  -0.000021   0.377143
    25  C    0.000000   0.000000   0.000000  -0.000018   0.000003  -0.058467
    26  C    0.000000   0.000000   0.000000   0.000028   0.000016   0.010112
    27  C    0.000000   0.000000  -0.000024   0.001712   0.000328  -0.001354
    28  C    0.000000   0.000000  -0.000006  -0.001386   0.010694   0.015948
    29  H    0.000000   0.000000   0.000000   0.000000   0.000000   0.000000
    30  H    0.000000   0.000000   0.000000   0.000000   0.000000   0.000000
    31  H    0.000000   0.000000   0.000000   0.000000   0.000000   0.000000
    32  H    0.000000   0.000000   0.000001  -0.000002  -0.000070   0.000000
    33  H   -0.000031   0.000001  -0.000189   0.000017  -0.000005   0.000000
    34  H    0.000000   0.000000   0.000000   0.000000   0.000000   0.000000
    35  H    0.000978   0.000004  -0.000023   0.000717   0.000294   0.000000
    36  H    0.002824   0.000003   0.000005  -0.006063   0.001733   0.000000
    37  H    0.722653  -0.008653  -0.000143  -0.000003  -0.000011   0.000000
    38  H   -0.008653   0.649789  -0.000128   0.000002   0.000000   0.000000
    39  H   -0.000143  -0.000128   0.637585  -0.000322   0.000036   0.000000
    40  H   -0.000003   0.000002  -0.000322   0.637108  -0.021340   0.000001
    41  H   -0.000011   0.000000   0.000036  -0.021340   0.618323  -0.000002
    42  H    0.000000   0.000000   0.000000   0.000001  -0.000002   0.736314
    43  H    0.000000   0.000000   0.000000   0.000000   0.000000  -0.015345
    44  H    0.000000   0.000000   0.000000   0.000005  -0.000001  -0.000161
    45  H    0.000000   0.000000   0.000295   0.000676  -0.000025   0.000060
             43         44         45
     1  N    0.000000   0.000000   0.000000
     2  C    0.000000   0.000000   0.000000
     3  O    0.000000   0.000000   0.000000
     4  C    0.000000   0.000000   0.000000
     5  C    0.000000   0.000000   0.000000
     6  C    0.000000   0.000000   0.000000
     7  C    0.000000   0.000000   0.000007
     8  C    0.000000   0.000000   0.000003
     9  C    0.000000   0.000000   0.000000
    10  N    0.000000   0.000000  -0.000058
    11  C    0.000000   0.000000  -0.000022
    12  C    0.000000   0.000000   0.000074
    13  C    0.000000   0.000000  -0.000011
    14  C    0.000000   0.000000  -0.000008
    15  S    0.000000   0.000000   0.000152
    16  C    0.000000  -0.000001   0.000950
    17  C    0.000000   0.000000   0.000216
    18  O    0.000000  -0.000003   0.002437
    19  C   -0.000001  -0.000014   0.001869
    20  N    0.000003  -0.000134  -0.006254
    21  N    0.000008   0.000005  -0.000274
    22  N   -0.000096  -0.000008  -0.000233
    23  C    0.010762  -0.000739   0.009523
    24  C   -0.048233   0.010963  -0.000020
    25  C    0.389625  -0.049993   0.008727
    26  C   -0.050996   0.386272  -0.044326
    27  C    0.011372  -0.046891   0.366116
    28  C   -0.000928   0.010776  -0.030406
    29  H    0.000000   0.000000   0.000000
    30  H    0.000000   0.000000   0.000000
    31  H    0.000000   0.000000   0.000000
    32  H    0.000000   0.000000   0.000002
    33  H    0.000000   0.000000  -0.000001
    34  H    0.000000   0.000000   0.000000
    35  H    0.000000   0.000000   0.000001
    36  H    0.000000   0.000000  -0.000014
    37  H    0.000000   0.000000   0.000000
    38  H    0.000000   0.000000   0.000000
    39  H    0.000000   0.000000   0.000295
    40  H    0.000000   0.000005   0.000676
    41  H    0.000000  -0.000001  -0.000025
    42  H   -0.015345  -0.000161   0.000060
    43  H    0.746418  -0.015819  -0.000221
    44  H   -0.015819   0.745806  -0.015205
    45  H   -0.000221  -0.015205   0.737966
 Mulliken atomic charges:
              1
     1  N   -0.088302
     2  C    0.111004
     3  O   -0.244187
     4  C   -0.023813
     5  C    0.067883
     6  C    0.073901
     7  C    0.105455
     8  C    0.017964
     9  C    0.018860
    10  N   -0.280161
    11  C    0.139998
    12  C   -0.026531
    13  C    0.047682
    14  C   -0.099796
    15  S    0.165378
    16  C   -0.150056
    17  C    0.134732
    18  O   -0.233044
    19  C    0.122344
    20  N   -0.228621
    21  N   -0.061359
    22  N   -0.181255
    23  C    0.011376
    24  C    0.044995
    25  C    0.038090
    26  C    0.039943
    27  C    0.031440
    28  C    0.213128
    29  H    0.093980
    30  H    0.097525
    31  H   -0.017956
    32  H   -0.006252
    33  H   -0.018469
    34  H   -0.039998
    35  H    0.047770
    36  H    0.038851
    37  H   -0.026208
    38  H    0.020775
    39  H    0.024700
    40  H    0.061317
    41  H    0.062077
    42  H   -0.021755
    43  H   -0.026549
    44  H   -0.024862
    45  H   -0.031996
 Sum of Mulliken atomic charges =   0.00000
 Mulliken charges with hydrogens summed into heavy atoms:
              1
     1  N    0.103204
     2  C    0.111004
     3  O   -0.244187
     4  C   -0.023813
     5  C    0.049926
     6  C    0.067649
     7  C    0.105455
     8  C   -0.000505
     9  C   -0.021139
    10  N   -0.280161
    11  C    0.226619
    12  C   -0.026531
    13  C    0.021474
    14  C   -0.079022
    15  S    0.165378
    16  C   -0.125356
    17  C    0.134732
    18  O   -0.233044
    19  C    0.245738
    20  N   -0.228621
    21  N   -0.061359
    22  N   -0.181255
    23  C    0.011376
    24  C    0.023241
    25  C    0.011540
    26  C    0.015082
    27  C   -0.000556
    28  C    0.213128
 Sum of Mulliken charges with hydrogens summed into heavy atoms =   0.00000
 Electronic spatial extent (au):  <R**2>=          14312.7517
 Charge=              0.0000 electrons
 Dipole moment (field-independent basis, Debye):
    X=              2.8621    Y=              7.8535    Z=             -0.2503  Tot=              8.3626
 Quadrupole moment (field-independent basis, Debye-Ang):
   XX=           -163.1987   YY=           -172.5298   ZZ=           -167.0624
   XY=             11.6358   XZ=            -20.2123   YZ=             -5.5163
 Traceless Quadrupole moment (field-independent basis, Debye-Ang):
   XX=              4.3982   YY=             -4.9328   ZZ=              0.5346
   XY=             11.6358   XZ=            -20.2123   YZ=             -5.5163
 Octapole moment (field-independent basis, Debye-Ang**2):
  XXX=            218.4810  YYY=            101.7224  ZZZ=             19.6596  XYY=            -59.4326
  XXY=             79.8229  XXZ=             41.7531  XZZ=             10.8250  YZZ=             20.1689
  YYZ=            -20.8746  XYZ=             47.7319
 Hexadecapole moment (field-independent basis, Debye-Ang**3):
 XXXX=         -10884.6934 YYYY=          -4938.9991 ZZZZ=          -1429.0069 XXXY=            487.7677
 XXXZ=           -430.7567 YYYX=            102.4827 YYYZ=             -2.9346 ZZZX=           -100.5168
 ZZZY=            -63.4840 XXYY=          -3389.2021 XXZZ=          -2475.2267 YYZZ=          -1127.9824
 XXYZ=            -66.9435 YYXZ=           -109.7197 ZZXY=            -42.4668
 N-N= 2.560738955835D+03 E-N=-8.851733103973D+03  KE= 1.586069586050D+03
 No NMR shielding tensors so no spin-rotation constants.
 Leave Link  601 at Sat Sep 10 07:54:32 2022, MaxMem=  209715200 cpu:       3.2
 (Enter /opt/gaussian/l602.exe)
 Breneman (CHELPG) radii used.
 Read replacement radii for each type of atom:
 Rad(35) =   1.900000000000D+00
 Atom Element Radius
    1     7    1.70
    2     6    1.50
    3     8    1.70
    4     6    1.50
    5     6    1.50
    6     6    1.50
    7     6    1.50
    8     6    1.50
    9     6    1.50
   10     7    1.70
   11     6    1.50
   12     6    1.50
   13     6    1.50
   14     6    1.50
   15    16    2.00
   16     6    1.50
   17     6    1.50
   18     8    1.70
   19     6    1.50
   20     7    1.70
   21     7    1.70
   22     7    1.70
   23     6    1.50
   24     6    1.50
   25     6    1.50
   26     6    1.50
   27     6    1.50
   28     6    1.50
   29     1    1.45
   30     1    1.45
   31     1    1.45
   32     1    1.45
   33     1    1.45
   34     1    1.45
   35     1    1.45
   36     1    1.45
   37     1    1.45
   38     1    1.45
   39     1    1.45
   40     1    1.45
   41     1    1.45
   42     1    1.45
   43     1    1.45
   44     1    1.45
   45     1    1.45
 Generate Potential Derived Charges using the Breneman model, NDens= 1.
 Grid spacing= 0.300 Box extension= 2.800
 NStep X,Y,Z=   68     51     40   Total possible points=      138720
 Number of Points to Fit=   25313

 **********************************************************************

            Electrostatic Properties Using The SCF Density

 **********************************************************************

       Atomic Center    1 is at   6.871180 -1.165798  0.629051
       Atomic Center    2 is at   5.794440 -2.020529  0.521051
       Atomic Center    3 is at   5.900150 -3.220629  0.731961
       Atomic Center    4 is at   4.478190 -1.388949  0.166301
       Atomic Center    5 is at   3.431930 -2.235209 -0.229599
       Atomic Center    6 is at   2.181710 -1.731369 -0.573809
       Atomic Center    7 is at   1.938950 -0.346369 -0.512249
       Atomic Center    8 is at   2.975189  0.504991 -0.091739
       Atomic Center    9 is at   4.228020 -0.012239  0.239651
       Atomic Center   10 is at   0.678479  0.211740 -0.905929
       Atomic Center   11 is at   0.675979  1.536580 -1.541359
       Atomic Center   12 is at   0.337229  2.699940 -0.631509
       Atomic Center   13 is at   0.081229  4.021080 -1.132839
       Atomic Center   14 is at  -0.191292  4.926790 -0.143009
       Atomic Center   15 is at  -0.145771  4.189730  1.428721
       Atomic Center   16 is at   0.247669  2.644170  0.738591
       Atomic Center   17 is at  -0.514460 -0.462520 -0.655389
       Atomic Center   18 is at  -0.579420 -1.509570 -0.040439
       Atomic Center   19 is at  -1.793241  0.201400 -1.207049
       Atomic Center   20 is at  -2.958180 -0.618450 -0.997299
       Atomic Center   21 is at  -3.545640 -1.224511 -2.075889
       Atomic Center   22 is at  -4.571760 -1.897111 -1.684989
       Atomic Center   23 is at  -4.691740 -1.754511 -0.315709
       Atomic Center   24 is at  -5.642260 -2.275411  0.579931
       Atomic Center   25 is at  -5.506950 -1.942861  1.920391
       Atomic Center   26 is at  -4.448570 -1.113101  2.371091
       Atomic Center   27 is at  -3.498320 -0.593431  1.501251
       Atomic Center   28 is at  -3.643330 -0.929601  0.145231
       Atomic Center   29 is at   6.876500 -0.306518  0.092271
       Atomic Center   30 is at   7.768830 -1.630738  0.722591
       Atomic Center   31 is at   3.625460 -3.307939 -0.268169
       Atomic Center   32 is at   1.390370 -2.410180 -0.879879
       Atomic Center   33 is at   2.802779  1.577061  0.006411
       Atomic Center   34 is at   4.998149  0.675121  0.595701
       Atomic Center   35 is at   1.672499  1.684401 -1.982559
       Atomic Center   36 is at  -0.018171  1.529730 -2.395689
       Atomic Center   37 is at   0.098189  4.280970 -2.192599
       Atomic Center   38 is at  -0.422982  5.985140 -0.244389
       Atomic Center   39 is at   0.396849  1.780960  1.383991
       Atomic Center   40 is at  -1.936501  1.192590 -0.748069
       Atomic Center   41 is at  -1.720981  0.338330 -2.295079
       Atomic Center   42 is at  -6.449350 -2.914701  0.219131
       Atomic Center   43 is at  -6.223520 -2.327401  2.648981
       Atomic Center   44 is at  -4.375720 -0.882481  3.436271
       Atomic Center   45 is at  -2.676670  0.027360  1.859461
   25313 points will be used for fitting atomic charges
 Fitting point charges to electrostatic potential
 Charges from ESP fit, RMS=   0.00400 RRMS=   0.20093:
 Charge=   0.00000 Dipole=     2.6897     7.9440    -0.3637 Tot=     8.3949
              1
     1  N   -0.713256
     2  C    0.583340
     3  O   -0.498263
     4  C   -0.071651
     5  C   -0.031513
     6  C   -0.196539
     7  C    0.281775
     8  C   -0.134813
     9  C   -0.111439
    10  N   -0.438490
    11  C    0.094127
    12  C    0.174935
    13  C   -0.214361
    14  C   -0.148968
    15  S    0.018293
    16  C   -0.202336
    17  C    0.598216
    18  O   -0.493848
    19  C   -0.005824
    20  N    0.317138
    21  N   -0.234699
    22  N   -0.334241
    23  C    0.404227
    24  C   -0.263115
    25  C   -0.026412
    26  C   -0.121228
    27  C   -0.136634
    28  C   -0.083292
    29  H    0.292830
    30  H    0.340578
    31  H    0.089819
    32  H    0.147057
    33  H    0.055211
    34  H    0.113761
    35  H    0.024796
    36  H    0.081792
    37  H    0.113894
    38  H    0.169237
    39  H    0.167047
    40  H   -0.030447
    41  H    0.007733
    42  H    0.129390
    43  H    0.078322
    44  H    0.100337
    45  H    0.107516
 Charges from ESP fit with hydrogens summed into heavy atoms:
              1
     1  N   -0.079849
     2  C    0.583340
     3  O   -0.498263
     4  C   -0.071651
     5  C    0.058305
     6  C   -0.049482
     7  C    0.281775
     8  C   -0.079601
     9  C    0.002322
    10  N   -0.438490
    11  C    0.200716
    12  C    0.174935
    13  C   -0.100468
    14  C    0.020269
    15  S    0.018293
    16  C   -0.035289
    17  C    0.598216
    18  O   -0.493848
    19  C   -0.028538
    20  N    0.317138
    21  N   -0.234699
    22  N   -0.334241
    23  C    0.404227
    24  C   -0.133725
    25  C    0.051910
    26  C   -0.020892
    27  C   -0.029119
    28  C   -0.083292
    29  H    0.000000
    30  H    0.000000
    31  H    0.000000
    32  H    0.000000
    33  H    0.000000
    34  H    0.000000
    35  H    0.000000
    36  H    0.000000
    37  H    0.000000
    38  H    0.000000
    39  H    0.000000
    40  H    0.000000
    41  H    0.000000
    42  H    0.000000
    43  H    0.000000
    44  H    0.000000
    45  H    0.000000
 -----------------------------------------------------------------

              Electrostatic Properties (Atomic Units)

 -----------------------------------------------------------------
    Center     Electric         -------- Electric Field --------
               Potential          X             Y             Z
 -----------------------------------------------------------------
    1 Atom    -18.348528
    2 Atom    -14.650536
    3 Atom    -22.381070
    4 Atom    -14.741293
    5 Atom    -14.746925
    6 Atom    -14.746120
    7 Atom    -14.690960
    8 Atom    -14.737591
    9 Atom    -14.734792
   10 Atom    -18.306880
   11 Atom    -14.674681
   12 Atom    -14.721164
   13 Atom    -14.730109
   14 Atom    -14.710485
   15 Atom    -59.168379
   16 Atom    -14.712650
   17 Atom    -14.628794
   18 Atom    -22.356958
   19 Atom    -14.679363
   20 Atom    -18.292432
   21 Atom    -18.330210
   22 Atom    -18.368645
   23 Atom    -14.736932
   24 Atom    -14.747845
   25 Atom    -14.751285
   26 Atom    -14.745617
   27 Atom    -14.741211
   28 Atom    -14.713896
   29 Atom     -0.999173
   30 Atom     -1.006383
   31 Atom     -1.094553
   32 Atom     -1.091142
   33 Atom     -1.073550
   34 Atom     -1.074968
   35 Atom     -1.059812
   36 Atom     -1.059751
   37 Atom     -1.059989
   38 Atom     -1.047214
   39 Atom     -1.047242
   40 Atom     -1.055007
   41 Atom     -1.051039
   42 Atom     -1.089205
   43 Atom     -1.095168
   44 Atom     -1.091620
   45 Atom     -1.080540
 -----------------------------------------------------------------
 Leave Link  602 at Sat Sep 10 07:54:44 2022, MaxMem=  209715200 cpu:      85.5
 (Enter /opt/gaussian/l9999.exe)
 1\1\GINC-LQCAPF-6\SP\RB3LYP\CC-pVDZ\C20H17N5O2S1\LQCAPF-6\10-Sep-2022\
 0\\#p b3lyp/cc-pvdz pop=(chelpg,readradii)\\Mol10.log\\0,1\N,0,6.87118
 ,-1.1658,0.62905\C,0,5.79444,-2.02053,0.52105\O,0,5.90015,-3.22063,0.7
 3196\C,0,4.47819,-1.38895,0.1663\C,0,3.43193,-2.23521,-0.2296\C,0,2.18
 171,-1.73137,-0.57381\C,0,1.93895,-0.34637,-0.51225\C,0,2.97519,0.5049
 9,-0.09174\C,0,4.22802,-0.01224,0.23965\N,0,0.67848,0.21174,-0.90593\C
 ,0,0.67598,1.53658,-1.54136\C,0,0.33723,2.69994,-0.63151\C,0,0.08123,4
 .02108,-1.13284\C,0,-0.19129,4.92679,-0.14301\S,0,-0.14577,4.18973,1.4
 2872\C,0,0.24767,2.64417,0.73859\C,0,-0.51446,-0.46252,-0.65539\O,0,-0
 .57942,-1.50957,-0.04044\C,0,-1.79324,0.2014,-1.20705\N,0,-2.95818,-0.
 61845,-0.9973\N,0,-3.54564,-1.22451,-2.07589\N,0,-4.57176,-1.89711,-1.
 68499\C,0,-4.69174,-1.75451,-0.31571\C,0,-5.64226,-2.27541,0.57993\C,0
 ,-5.50695,-1.94286,1.92039\C,0,-4.44857,-1.1131,2.37109\C,0,-3.49832,-
 0.59343,1.50125\C,0,-3.64333,-0.9296,0.14523\H,0,6.8765,-0.30652,0.092
 27\H,0,7.76883,-1.63074,0.72259\H,0,3.62546,-3.30794,-0.26817\H,0,1.39
 037,-2.41018,-0.87988\H,0,2.80278,1.57706,0.00641\H,0,4.99815,0.67512,
 0.5957\H,0,1.6725,1.6844,-1.98256\H,0,-0.01817,1.52973,-2.39569\H,0,0.
 09819,4.28097,-2.1926\H,0,-0.42298,5.98514,-0.24439\H,0,0.39685,1.7809
 6,1.38399\H,0,-1.9365,1.19259,-0.74807\H,0,-1.72098,0.33833,-2.29508\H
 ,0,-6.44935,-2.9147,0.21913\H,0,-6.22352,-2.3274,2.64898\H,0,-4.37572,
 -0.88248,3.43627\H,0,-2.67667,0.02736,1.85946\\Version=EM64L-G09RevC.0
 1\State=1-A\HF=-1594.8345428\RMSD=3.762e-09\Dipole=1.1260439,3.0898186
 ,-0.0984703\Quadrupole=3.2699743,-3.667427,0.3974527,8.6509616,-15.027
 3421,-4.1012011\PG=C01 [X(C20H17N5O2S1)]\\@


 Age does not diminish the extreme disappointment of
 having a scoop of ice cream fall from the cone.
 -- Jim Fiebig
 Job cpu time:  0 days  1 hours 16 minutes 19.4 seconds.
 File lengths (MBytes):  RWF=    130 Int=      0 D2E=      0 Chk=      9 Scr=      1
 Normal termination of Gaussian 09 at Sat Sep 10 07:54:44 2022.
