 Entering Gaussian System, Link 0=g09
 Input=Mol17.gjf
 Output=Mol17.log
 Initial command:
 /opt/gaussian/l1.exe /home/scr/lqcapf-6/Gau-553562.inp -scrdir=/home/scr/lqcapf-6/
 Entering Link 1 = /opt/gaussian/l1.exe PID=    553564.
  
 Copyright (c) 1988,1990,1992,1993,1995,1998,2003,2009,2011,
            Gaussian, Inc.  All Rights Reserved.
  
 This is part of the Gaussian(R) 09 program.  It is based on
 the Gaussian(R) 03 system (copyright 2003, Gaussian, Inc.),
 the Gaussian(R) 98 system (copyright 1998, Gaussian, Inc.),
 the Gaussian(R) 94 system (copyright 1995, Gaussian, Inc.),
 the Gaussian 92(TM) system (copyright 1992, Gaussian, Inc.),
 the Gaussian 90(TM) system (copyright 1990, Gaussian, Inc.),
 the Gaussian 88(TM) system (copyright 1988, Gaussian, Inc.),
 the Gaussian 86(TM) system (copyright 1986, Carnegie Mellon
 University), and the Gaussian 82(TM) system (copyright 1983,
 Carnegie Mellon University). Gaussian is a federally registered
 trademark of Gaussian, Inc.
  
 This software contains proprietary and confidential information,
 including trade secrets, belonging to Gaussian, Inc.
  
 This software is provided under written license and may be
 used, copied, transmitted, or stored only in accord with that
 written license.
  
 The following legend is applicable only to US Government
 contracts under FAR:
  
                    RESTRICTED RIGHTS LEGEND
  
 Use, reproduction and disclosure by the US Government is
 subject to restrictions as set forth in subparagraphs (a)
 and (c) of the Commercial Computer Software - Restricted
 Rights clause in FAR 52.227-19.
  
 Gaussian, Inc.
 340 Quinnipiac St., Bldg. 40, Wallingford CT 06492
  
  
 ---------------------------------------------------------------
 Warning -- This program may not be used in any manner that
 competes with the business of Gaussian, Inc. or will provide
 assistance to any competitor of Gaussian, Inc.  The licensee
 of this program is prohibited from giving any competitor of
 Gaussian, Inc. access to this program.  By using this program,
 the user acknowledges that Gaussian, Inc. is engaged in the
 business of creating and licensing software in the field of
 computational chemistry and represents and warrants to the
 licensee that it is not a competitor of Gaussian, Inc. and that
 it will not use this program in any manner prohibited above.
 ---------------------------------------------------------------
  

 Cite this work as:
 Gaussian 09, Revision C.01,
 M. J. Frisch, G. W. Trucks, H. B. Schlegel, G. E. Scuseria, 
 M. A. Robb, J. R. Cheeseman, G. Scalmani, V. Barone, B. Mennucci, 
 G. A. Petersson, H. Nakatsuji, M. Caricato, X. Li, H. P. Hratchian, 
 A. F. Izmaylov, J. Bloino, G. Zheng, J. L. Sonnenberg, M. Hada, 
 M. Ehara, K. Toyota, R. Fukuda, J. Hasegawa, M. Ishida, T. Nakajima, 
 Y. Honda, O. Kitao, H. Nakai, T. Vreven, J. A. Montgomery, Jr., 
 J. E. Peralta, F. Ogliaro, M. Bearpark, J. J. Heyd, E. Brothers, 
 K. N. Kudin, V. N. Staroverov, T. Keith, R. Kobayashi, J. Normand, 
 K. Raghavachari, A. Rendell, J. C. Burant, S. S. Iyengar, J. Tomasi, 
 M. Cossi, N. Rega, J. M. Millam, M. Klene, J. E. Knox, J. B. Cross, 
 V. Bakken, C. Adamo, J. Jaramillo, R. Gomperts, R. E. Stratmann, 
 O. Yazyev, A. J. Austin, R. Cammi, C. Pomelli, J. W. Ochterski, 
 R. L. Martin, K. Morokuma, V. G. Zakrzewski, G. A. Voth, 
 P. Salvador, J. J. Dannenberg, S. Dapprich, A. D. Daniels, 
 O. Farkas, J. B. Foresman, J. V. Ortiz, J. Cioslowski, 
 and D. J. Fox, Gaussian, Inc., Wallingford CT, 2010.
 
 ******************************************
 Gaussian 09:  EM64L-G09RevC.01 23-Sep-2011
                10-Sep-2022 
 ******************************************
 %nprocshared=8
 Will use up to    8 processors via shared memory.
 %mem=1600MB
 ---------------------------------------
 #p b3lyp/cc-pvdz pop=(chelpg,readradii)
 ---------------------------------------
 1/38=1/1;
 2/12=2,17=6,18=5,40=1/2;
 3/5=16,11=2,16=1,25=1,30=1,74=-5/1,2,3;
 4//1;
 5/5=2,38=5/2;
 6/7=2,8=2,9=2,10=2,15=8,20=103,28=1/1,2;
 99/5=1,9=1/99;
 Leave Link    1 at Sat Sep 10 09:12:20 2022, MaxMem=  209715200 cpu:       0.2
 (Enter /opt/gaussian/l101.exe)
 ---------
 Mol17.log
 ---------
 Charge =  0 Multiplicity = 1
 Symbolic Z-Matrix:
 S                    -1.55858   5.32299  -0.21062 
 C                     0.14546   5.03433  -0.09163 
 C                    -1.9024    3.62046  -0.23674 
 C                     0.43317   3.69724  -0.0739 
 C                    -0.74485   2.87371  -0.15674 
 N                    -0.65658   1.44699  -0.15417 
 C                     3.23793  -0.28224   0.16357 
 C                     2.65994  -0.02173  -1.09643 
 C                     2.47966   0.02916   1.31119 
 C                     1.3914    0.55041  -1.19771 
 C                     1.21079   0.59732   1.21095 
 C                     0.658     0.85845  -0.04769 
 C                    -1.78158   0.64012  -0.23704 
 C                    -1.52014  -0.87831  -0.19043 
 O                    -2.9181    1.0742   -0.31533 
 C                    -3.85235  -1.81843   0.27745 
 N                    -2.71385  -1.64073  -0.46048 
 C                    -4.61199  -2.71741  -0.50169 
 N                    -2.784    -2.37643  -1.61301 
 N                    -3.90187  -3.01554  -1.64888 
 C                    -4.31009  -1.33079   1.51281 
 C                    -5.55101  -1.78902   1.9366 
 C                    -5.86956  -3.16557  -0.0601 
 C                    -6.32285  -2.69406   1.16378 
 C                     7.16737  -1.97843   0.62103 
 N                     6.39657  -2.2742   -0.461 
 C                     6.69858  -1.11162   1.56791 
 C                     5.11821  -1.75373  -0.74137 
 C                     5.40308  -0.55553   1.38426 
 C                     4.60101  -0.85136   0.29913 
 O                     4.56447  -2.08489  -1.78618 
 H                     0.84596   5.86491  -0.04318 
 H                    -2.91952   3.25951  -0.31385 
 H                     1.44655   3.30736  -0.00699 
 H                     3.20985  -0.28183  -1.99777 
 H                     2.87553  -0.19826   2.30259 
 H                     0.96123   0.75918  -2.17933 
 H                     0.63862   0.83467   2.1101 
 H                    -0.7839   -1.18283  -0.94455 
 H                    -1.11013  -1.15184   0.79562 
 H                    -3.73668  -0.61261   2.099 
 H                    -5.95054  -1.43505   2.8897 
 H                    -6.45364  -3.85839  -0.66773 
 H                    -7.29445  -3.01741   1.54299 
 H                     8.14523  -2.45936   0.66849 
 H                     6.73952  -2.90701  -1.17895 
 H                     7.30673  -0.85355   2.43306 
 H                     5.03757   0.15146   2.13252 
 
 NAtoms=     48 NQM=        0 NQMF=       0 NMMI=     48 NMMIF=      0
                NMic=       0 NMicF=      0.
                    Isotopes and Nuclear Properties:
 (Nuclear quadrupole moments (NQMom) in fm**2, nuclear magnetic moments (NMagM)
  in nuclear magnetons)

  Atom         1           2           3           4           5           6           7           8           9          10
 IAtWgt=          32          12          12          12          12          14          12          12          12          12
 AtmWgt=  31.9720718  12.0000000  12.0000000  12.0000000  12.0000000  14.0030740  12.0000000  12.0000000  12.0000000  12.0000000
 NucSpn=           0           0           0           0           0           2           0           0           0           0
 AtZEff=   0.0000000   0.0000000   0.0000000   0.0000000   0.0000000   0.0000000   0.0000000   0.0000000   0.0000000   0.0000000
 NQMom=    0.0000000   0.0000000   0.0000000   0.0000000   0.0000000   2.0440000   0.0000000   0.0000000   0.0000000   0.0000000
 NMagM=    0.0000000   0.0000000   0.0000000   0.0000000   0.0000000   0.4037610   0.0000000   0.0000000   0.0000000   0.0000000

  Atom        11          12          13          14          15          16          17          18          19          20
 IAtWgt=          12          12          12          12          16          12          14          12          14          14
 AtmWgt=  12.0000000  12.0000000  12.0000000  12.0000000  15.9949146  12.0000000  14.0030740  12.0000000  14.0030740  14.0030740
 NucSpn=           0           0           0           0           0           0           2           0           2           2
 AtZEff=   0.0000000   0.0000000   0.0000000   0.0000000   0.0000000   0.0000000   0.0000000   0.0000000   0.0000000   0.0000000
 NQMom=    0.0000000   0.0000000   0.0000000   0.0000000   0.0000000   0.0000000   2.0440000   0.0000000   2.0440000   2.0440000
 NMagM=    0.0000000   0.0000000   0.0000000   0.0000000   0.0000000   0.0000000   0.4037610   0.0000000   0.4037610   0.4037610

  Atom        21          22          23          24          25          26          27          28          29          30
 IAtWgt=          12          12          12          12          12          14          12          12          12          12
 AtmWgt=  12.0000000  12.0000000  12.0000000  12.0000000  12.0000000  14.0030740  12.0000000  12.0000000  12.0000000  12.0000000
 NucSpn=           0           0           0           0           0           2           0           0           0           0
 AtZEff=   0.0000000   0.0000000   0.0000000   0.0000000   0.0000000   0.0000000   0.0000000   0.0000000   0.0000000   0.0000000
 NQMom=    0.0000000   0.0000000   0.0000000   0.0000000   0.0000000   2.0440000   0.0000000   0.0000000   0.0000000   0.0000000
 NMagM=    0.0000000   0.0000000   0.0000000   0.0000000   0.0000000   0.4037610   0.0000000   0.0000000   0.0000000   0.0000000

  Atom        31          32          33          34          35          36          37          38          39          40
 IAtWgt=          16           1           1           1           1           1           1           1           1           1
 AtmWgt=  15.9949146   1.0078250   1.0078250   1.0078250   1.0078250   1.0078250   1.0078250   1.0078250   1.0078250   1.0078250
 NucSpn=           0           1           1           1           1           1           1           1           1           1
 AtZEff=   0.0000000   0.0000000   0.0000000   0.0000000   0.0000000   0.0000000   0.0000000   0.0000000   0.0000000   0.0000000
 NQMom=    0.0000000   0.0000000   0.0000000   0.0000000   0.0000000   0.0000000   0.0000000   0.0000000   0.0000000   0.0000000
 NMagM=    0.0000000   2.7928460   2.7928460   2.7928460   2.7928460   2.7928460   2.7928460   2.7928460   2.7928460   2.7928460

  Atom        41          42          43          44          45          46          47          48
 IAtWgt=           1           1           1           1           1           1           1           1
 AtmWgt=   1.0078250   1.0078250   1.0078250   1.0078250   1.0078250   1.0078250   1.0078250   1.0078250
 NucSpn=           1           1           1           1           1           1           1           1
 AtZEff=   0.0000000   0.0000000   0.0000000   0.0000000   0.0000000   0.0000000   0.0000000   0.0000000
 NQMom=    0.0000000   0.0000000   0.0000000   0.0000000   0.0000000   0.0000000   0.0000000   0.0000000
 NMagM=    2.7928460   2.7928460   2.7928460   2.7928460   2.7928460   2.7928460   2.7928460   2.7928460
 Leave Link  101 at Sat Sep 10 09:12:20 2022, MaxMem=  209715200 cpu:       0.7
 (Enter /opt/gaussian/l202.exe)
                          Input orientation:                          
 ---------------------------------------------------------------------
 Center     Atomic      Atomic             Coordinates (Angstroms)
 Number     Number       Type             X           Y           Z
 ---------------------------------------------------------------------
      1         16           0       -1.558580    5.322990   -0.210620
      2          6           0        0.145460    5.034330   -0.091630
      3          6           0       -1.902400    3.620460   -0.236740
      4          6           0        0.433170    3.697240   -0.073900
      5          6           0       -0.744850    2.873710   -0.156740
      6          7           0       -0.656580    1.446990   -0.154170
      7          6           0        3.237930   -0.282240    0.163570
      8          6           0        2.659940   -0.021730   -1.096430
      9          6           0        2.479660    0.029160    1.311190
     10          6           0        1.391400    0.550410   -1.197710
     11          6           0        1.210790    0.597320    1.210950
     12          6           0        0.658000    0.858450   -0.047690
     13          6           0       -1.781580    0.640120   -0.237040
     14          6           0       -1.520140   -0.878310   -0.190430
     15          8           0       -2.918100    1.074200   -0.315330
     16          6           0       -3.852350   -1.818430    0.277450
     17          7           0       -2.713850   -1.640730   -0.460480
     18          6           0       -4.611990   -2.717410   -0.501690
     19          7           0       -2.784000   -2.376430   -1.613010
     20          7           0       -3.901870   -3.015540   -1.648880
     21          6           0       -4.310090   -1.330790    1.512810
     22          6           0       -5.551010   -1.789020    1.936600
     23          6           0       -5.869560   -3.165570   -0.060100
     24          6           0       -6.322850   -2.694060    1.163780
     25          6           0        7.167370   -1.978430    0.621030
     26          7           0        6.396570   -2.274200   -0.461000
     27          6           0        6.698580   -1.111620    1.567910
     28          6           0        5.118210   -1.753730   -0.741370
     29          6           0        5.403080   -0.555530    1.384260
     30          6           0        4.601010   -0.851360    0.299130
     31          8           0        4.564470   -2.084890   -1.786180
     32          1           0        0.845960    5.864910   -0.043180
     33          1           0       -2.919520    3.259510   -0.313850
     34          1           0        1.446550    3.307360   -0.006990
     35          1           0        3.209850   -0.281830   -1.997770
     36          1           0        2.875530   -0.198260    2.302590
     37          1           0        0.961230    0.759180   -2.179330
     38          1           0        0.638620    0.834670    2.110100
     39          1           0       -0.783900   -1.182830   -0.944550
     40          1           0       -1.110130   -1.151840    0.795620
     41          1           0       -3.736680   -0.612610    2.099000
     42          1           0       -5.950540   -1.435050    2.889700
     43          1           0       -6.453640   -3.858390   -0.667730
     44          1           0       -7.294450   -3.017410    1.542990
     45          1           0        8.145230   -2.459360    0.668490
     46          1           0        6.739520   -2.907010   -1.178950
     47          1           0        7.306730   -0.853550    2.433060
     48          1           0        5.037570    0.151460    2.132520
 ---------------------------------------------------------------------
                    Distance matrix (angstroms):
                    1          2          3          4          5
     1  S    0.000000
     2  C    1.732407   0.000000
     3  C    1.737096   2.492753   0.000000
     4  C    2.574650   1.367809   2.342499   0.000000
     5  C    2.581479   2.337770   1.379840   1.439721   0.000000
     6  N    3.979971   3.676437   2.506563   2.501524   1.429450
     7  C    7.386821   6.155844   6.466398   4.874354   5.091675
     8  C    6.866338   5.735501   5.900810   4.453629   4.567186
     9  C    6.829929   5.698080   5.873327   4.422828   4.543539
    10  C    5.696863   4.783442   4.604106   3.476161   3.323388
    11  C    5.658819   4.745387   4.574618   3.444566   3.298038
    12  C    4.987173   4.207446   3.770953   2.847800   2.457876
    13  C    4.688251   4.800386   2.982788   3.778586   2.463774
    14  C    6.201452   6.143557   4.515219   4.976410   3.831431
    15  O    4.462228   5.011793   2.742492   4.262586   2.826022
    16  C    7.516613   7.942230   5.800709   6.993693   5.644577
    17  N    7.063319   7.271047   5.328098   6.208631   4.934510
    18  C    8.605583   9.104447   6.897874   8.172171   6.806937
    19  N    7.921453   8.112687   6.215628   7.043331   5.817459
    20  N    8.780130   9.143649   7.073084   8.144602   6.846643
    21  C    7.403635   7.933530   5.776917   7.092055   5.759874
    22  C    8.433904   9.117104   6.877371   8.363705   7.015860
    23  C    9.521704  10.169554   7.862555   9.317873   7.921168
    24  C    9.426576  10.155939   7.834220   9.382131   7.991115
    25  C   11.408093   9.949568  10.693179   8.834342   9.314044
    26  N   11.002927   9.624314  10.181857   8.448082   8.808713
    27  C   10.618289   9.136200   9.981292   8.066972   8.617536
    28  C    9.743777   8.439678   8.855819   7.218600   7.492027
    29  C    9.250154   7.814560   8.569514   6.701663   7.206345
    30  C    8.736303   7.392291   7.910668   6.180599   6.531629
    31  O    9.739138   8.548827   8.761974   7.309759   7.445245
    32  H    2.470532   1.087617   3.553661   2.206838   3.389816
    33  H    2.474018   3.548728   1.082018   3.389648   2.214207
    34  H    3.624229   2.163891   3.371392   1.087852   2.238909
    35  H    7.572703   6.425373   6.668148   5.219600   5.383909
    36  H    7.514104   6.369111   6.622646   5.175688   5.347191
    37  H    5.572578   4.827098   4.490095   3.652928   3.387155
    38  H    5.509850   4.767386   4.441291   3.606435   3.348169
    39  H    6.592759   6.343836   4.982332   5.104349   4.132516
    40  H    6.567880   6.374356   4.946545   5.162501   4.152767
    41  H    6.731256   7.194290   5.170991   6.378397   5.117991
    42  H    8.635531   9.375629   7.191679   8.710630   7.412518
    43  H   10.414812  11.088755   8.765428  10.240524   8.841525
    44  H   10.273151  11.083987   8.735157  10.364216   8.971713
    45  H   12.470033  10.987697  11.778732   9.895996  10.399816
    46  H   11.727277  10.379247  10.870989   9.198223   9.511963
    47  H   11.123507   9.608589  10.580769   8.616285   9.242698
    48  H    8.703116   7.260992   8.112369   6.216216   6.788795
                    6          7          8          9         10
     6  N    0.000000
     7  C    4.272985   0.000000
     8  C    3.747572   1.410510   0.000000
     9  C    3.740792   1.410310   2.414896   0.000000
    10  C    2.467195   2.440505   1.395276   2.783988   0.000000
    11  C    2.464257   2.445389   2.794148   1.393874   2.415877
    12  C    1.444243   2.828753   2.425353   2.419240   1.398324
    13  C    1.386914   5.119250   4.572056   4.574763   3.316434
    14  C    2.480740   4.808310   4.362068   4.367696   3.396015
    15  O    2.297698   6.321865   5.738093   5.733541   4.429982
    16  C    4.589358   7.255682   6.893881   6.676568   5.940069
    17  N    3.722929   6.136662   5.648293   5.735843   4.711441
    18  C    5.753978   8.245839   7.778263   7.818036   6.870501
    19  N    4.612231   6.618573   5.953818   6.484129   5.115939
    20  N    5.716663   7.857013   7.233633   7.665255   6.398301
    21  C    4.882931   7.739025   7.556659   6.927541   6.587323
    22  C    6.228846   9.091726   8.929854   8.257637   7.968305
    23  C    6.961302   9.555626   9.149321   9.044126   8.235545
    24  C    7.140862   9.910893   9.640561   9.215305   8.695566
    25  C    8.576050   4.304280   5.205312   5.146005   6.562368
    26  N    7.980497   3.786159   4.409058   4.877326   5.794212
    27  C    7.975614   3.825721   4.959555   4.377964   6.211051
    28  C    6.628545   2.553361   3.028033   3.788621   4.405272
    29  C    6.564780   2.500529   3.736788   2.982212   4.897270
    30  C    5.755879   1.483328   2.530539   2.509922   3.808817
    31  O    6.511298   2.968296   2.891301   4.290611   4.166470
    32  H    4.667758   6.599373   6.249191   6.209611   5.465744
    33  H    2.903726   7.119418   6.519919   6.498235   5.167636
    34  H    2.811724   4.015391   3.707025   3.681238   3.003603
    35  H    4.619195   2.161522   1.087413   3.402809   2.153945
    36  H    4.606335   2.171127   3.410422   1.091470   3.874951
    37  H    2.681728   3.428863   2.160581   3.875860   1.091883
    38  H    2.679440   3.434076   3.885999   2.162529   3.404275
    39  H    2.748975   4.267799   3.637479   4.148265   2.792873
    40  H    2.803877   4.478986   4.366970   3.814075   3.623351
    41  H    4.336559   7.245703   7.174724   6.298841   6.206297
    42  H    6.752578   9.653431   9.593074   8.700797   8.634411
    43  H    7.875069  10.363708   9.897529   9.941480   9.014602
    44  H    8.177563  10.968819  10.725228  10.240534   9.781859
    45  H    9.664792   5.392253   6.256628   6.221292   7.625984
    46  H    8.643482   4.577435   4.997462   5.741803   6.368398
    47  H    8.683349   4.693838   5.894224   5.033724   7.081294
    48  H    6.271419   2.702511   4.013631   2.689320   4.954205
                   11         12         13         14         15
    11  C    0.000000
    12  C    1.399264   0.000000
    13  C    3.324573   2.456638   0.000000
    14  C    3.405779   2.789445   1.541478   0.000000
    15  O    4.427717   3.592585   1.219111   2.404618   0.000000
    16  C    5.687060   5.254965   3.255343   2.557722   3.097018
    17  N    4.817193   4.217306   2.474132   1.441927   2.726469
    18  C    6.915587   6.384801   4.399349   3.610915   4.156958
    19  N    5.725058   4.976147   3.463772   2.421867   3.689011
    20  N    6.882636   6.193870   4.455645   3.516741   4.412724
    21  C    5.855668   5.648880   3.652372   3.299937   3.326215
    22  C    7.207158   7.035503   4.983376   4.647748   4.494600
    23  C    8.118267   7.668242   5.588038   4.915892   5.172225
    24  C    8.221383   7.925923   5.805358   5.310071   5.289600
    25  C    6.516390   7.132109   9.363589   8.794405  10.578848
    26  N    6.159006   6.550993   8.684789   8.043383   9.899297
    27  C    5.758796   6.555909   8.845312   8.407946  10.040166
    28  C    4.960536   5.215185   7.320654   6.718451   8.530004
    29  C    4.351367   5.154183   7.461738   7.107377   8.647928
    30  C    3.797852   4.311735   6.576431   6.140755   7.786036
    31  O    5.236813   5.190964   7.077985   6.405055   8.254217
    32  H    5.427103   5.009989   5.851494   7.147806   6.098616
    33  H    5.145069   4.316779   2.856923   4.369788   2.185311
    34  H    2.980483   2.573058   4.193795   5.133686   4.912458
    35  H    3.881370   3.408077   5.372573   5.098536   6.497784
    36  H    2.143825   3.399690   5.370407   5.098974   6.483734
    37  H    3.403304   2.155387   3.362986   3.576911   4.315430
    38  H    1.091872   2.158008   3.377023   3.589844   4.311652
    39  H    3.434225   2.655232   2.195241   1.097032   3.169371
    40  H    2.935767   2.806906   2.174478   1.102371   3.075422
    41  H    5.170109   5.107397   3.293756   3.197677   3.056860
    42  H    7.631080   7.586910   5.609194   5.424537   5.075849
    43  H    9.062355   8.556194   6.500018   5.783434   6.079036
    44  H    9.247466   8.988549   6.851114   6.397120   6.272724
    45  H    7.597632   8.220668  10.438789   9.831421  11.655523
    46  H    6.968415   7.241776   9.277848   8.562405  10.481674
    47  H    6.384282   7.300046   9.589466   9.208526  10.761831
    48  H    3.961354   4.943054   7.235635   7.032786   8.374730
                   16         17         18         19         20
    16  C    0.000000
    17  N    1.368320   0.000000
    18  C    1.411480   2.182630   0.000000
    19  N    2.242002   1.369124   2.166298   0.000000
    20  N    2.268540   2.171126   1.381737   1.288170   0.000000
    21  C    1.404789   2.556935   2.464157   3.632226   3.605733
    22  C    2.374677   3.717184   2.772891   4.538846   4.132757
    23  C    2.449053   3.527598   1.406176   3.543297   2.533483
    24  C    2.766890   4.095437   2.387756   4.509425   3.724990
    25  C   11.026236   9.945965  11.855797  10.206817  11.347077
    26  N   10.285592   9.132417  11.017553   9.253132  10.393195
    27  C   10.653027   9.643037  11.609944  10.081534  11.240204
    28  C    9.028462   7.837910   9.780742   7.974486   9.153009
    29  C    9.406537   8.394360  10.417877   8.906603  10.091268
    30  C    8.508525   7.396438   9.434131   7.779492   8.987624
    31  O    8.670203   7.411390   9.287487   7.356289   8.518443
    32  H    9.011694   8.317513  10.181143   9.141152  10.197184
    33  H    5.196661   4.906746   6.214766   5.785326   6.490267
    34  H    7.377870   6.480600   8.558533   7.265144   8.442776
    35  H    7.577099   6.268979   8.327754   6.360945   7.627021
    36  H    7.210445   6.399722   8.382903   7.218492   8.335726
    37  H    5.987520   4.713834   6.779523   4.917267   6.178967
    38  H    5.528685   4.896380   6.856211   5.990579   7.040603
    39  H    3.363429   2.041740   4.147931   2.423204   3.684650
    40  H    2.869253   2.094927   4.049327   3.178515   4.152441
    41  H    2.187562   2.941794   3.458314   4.218729   4.455105
    42  H    3.372422   4.662850   3.864931   5.584583   5.224338
    43  H    3.438243   4.352815   2.172804   4.068909   2.860871
    44  H    3.858393   5.185657   3.386194   5.542143   4.658072
    45  H   12.021049  10.948258  12.813375  11.165133  12.280560
    46  H   10.746805   9.564825  11.373276   9.548160  10.652314
    47  H   11.406258  10.459649  12.415419  10.977827  12.123083
    48  H    9.292601   8.367802  10.405935   9.033060  10.209920
                   21         22         23         24         25
    21  C    0.000000
    22  C    1.389048   0.000000
    23  C    2.876180   2.446053   0.000000
    24  C    2.455917   1.418480   1.387687   0.000000
    25  C   11.530256  12.787642  13.108577  13.520087   0.000000
    26  N   10.927878  12.195432  12.305007  12.829647   1.361030
    27  C   11.010989  12.273844  12.838507  13.123455   1.366640
    28  C    9.703249  11.000228  11.099032  11.636652   2.470968
    29  C    9.744908  11.037149  11.660656  11.921382   2.391628
    30  C    9.006141  10.325891  10.729280  11.111880   2.821367
    31  O    9.497885  10.782837  10.630908  11.296331   3.546982
    32  H    8.987995  10.169730  11.253802  11.229629  10.095513
    33  H    5.132370   6.121840   7.074516   7.015058  11.404182
    34  H    7.547260   8.872231   9.768680   9.886927   7.814203
    35  H    8.365046   9.721294   9.721430  10.328922   5.039695
    36  H    7.317070   8.583184   9.532252   9.598755   4.941310
    37  H    6.766586   8.114399   8.158094   8.726917   7.338440
    38  H    5.434676   6.724981   7.941542   7.861903   7.263294
    39  H    4.300526   5.603020   5.529688   6.116277   8.142894
    40  H    3.284224   4.629174   5.238276   5.448526   8.320501
    41  H    1.090046   2.168434   3.965917   3.448963  11.088199
    42  H    2.144242   1.092391   3.420903   2.168530  13.323727
    43  H    3.967156   3.446675   1.091038   2.174212  13.810397
    44  H    3.428119   2.168745   2.149921   1.091953  14.528377
    45  H   12.534813  13.771146  14.051474  14.478458   1.090760
    46  H   11.481460  12.728459  12.661263  13.272499   2.070083
    47  H   11.662981  12.901281  13.607935  13.811734   2.137342
    48  H    9.484717  10.766702  11.609296  11.751365   3.370027
                   26         27         28         29         30
    26  N    0.000000
    27  C    2.357812   0.000000
    28  C    1.408439   2.871001   0.000000
    29  C    2.710320   1.421719   2.456652   0.000000
    30  C    2.413774   2.465226   1.471193   1.381426   0.000000
    31  O    2.269037   4.092872   1.227975   3.618549   2.423107
    32  H    9.860474   9.247743   8.762606   8.001686   7.702328
    33  H   10.836657  10.731060   9.482640   9.311486   8.592635
    34  H    7.474131   7.042124   6.295636   5.701897   5.228698
    35  H    4.060343   5.057061   2.717879   4.040210   2.745076
    36  H    4.934033   3.998711   4.088373   2.712836   2.723540
    37  H    6.457319   7.103442   5.065859   5.844456   4.688774
    38  H    7.030620   6.387889   5.907404   5.015932   4.671493
    39  H    7.279015   7.893354   5.933137   6.640450   5.536594
    40  H    7.693460   7.846910   6.443355   6.566886   5.740550
    41  H   10.582875  10.460675   9.369041   9.167842   8.533089
    42  H   12.821173  12.722106  11.653474  11.486714  10.880577
    43  H   12.949143  13.620709  11.761919  12.478035  11.497058
    44  H   13.856853  14.122236  12.684215  12.934965  12.154873
    45  H    2.089939   2.172132   3.412985   3.414130   3.909423
    46  H    1.016620   3.281820   2.037198   3.726335   3.314158
    47  H    3.349958   1.088545   3.959413   2.193782   3.445952
    48  H    3.802243   2.161738   3.448985   1.092394   2.134842
                   31         32         33         34         35
    31  O    0.000000
    32  H    8.947887   0.000000
    33  H    9.313457   4.586961   0.000000
    34  H    6.477909   2.627371   4.377102   0.000000
    35  H    2.265125   6.869557   7.276390   4.467070   0.000000
    36  H    4.809359   6.810567   7.237716   4.434582   4.314145
    37  H    4.607238   5.535784   4.979145   3.383462   2.484544
    38  H    6.254369   5.475666   4.941229   3.353955   4.973167
    39  H    5.488817   7.289688   4.969209   5.100562   4.227424
    40  H    6.303758   7.332438   4.895388   5.202428   5.217487
    41  H    9.282851   8.218746   4.634966   6.831342   8.071383
    42  H   11.526126  10.396327   6.441173   9.251930  10.446532
    43  H   11.215836  12.174432   7.954856  10.686325  10.389602
    44  H   12.352609  12.152276   7.873220  10.900011  11.417561
    45  H    4.357462  11.094110  12.493965   8.864742   6.017354
    46  H    2.403217  10.628763  11.492233   8.246661   4.474439
    47  H    5.180557   9.644222  11.359532   7.590041   6.061645
    48  H    4.536661   7.412609   8.885943   5.237617   4.537356
                   36         37         38         39         40
    36  H    0.000000
    37  H    4.966774   0.000000
    38  H    2.471389   4.302207   0.000000
    39  H    4.990463   2.888176   3.927436   0.000000
    40  H    4.366436   4.097909   2.955031   1.770756   0.000000
    41  H    6.628307   6.500483   4.608470   4.278698   2.981331
    42  H    8.931621   8.847727   7.012591   6.438886   5.281567
    43  H   10.452405   8.864941   8.946581   6.275444   6.166028
    44  H   10.580789   9.811960   8.837066   7.206997   6.502671
    45  H    5.962600   8.371316   8.323345   9.163012   9.348126
    46  H    5.864202   6.915949   7.876484   7.722020   8.282304
    47  H    4.481290   8.008771   6.886079   8.773538   8.579844
    48  H    2.196735   5.964723   4.451746   6.718497   6.424960
                   41         42         43         44         45
    41  H    0.000000
    42  H    2.490540   0.000000
    43  H    5.056852   4.333704   0.000000
    44  H    4.330120   2.474588   2.510277   0.000000
    45  H   12.109361  14.306422  14.726499  15.474492   0.000000
    46  H   11.214276  13.407394  13.237294  14.295925   2.364201
    47  H   11.051088  13.277871  14.421919  14.787460   2.528916
    48  H    8.807519  11.127843  12.488723  12.746294   4.314779
                   46         47         48
    46  H    0.000000
    47  H    4.193452   0.000000
    48  H    4.818372   2.499891   0.000000
 Stoichiometry    C23H17N5O2S
 Framework group  C1[X(C23H17N5O2S)]
 Deg. of freedom   138
 Full point group                 C1      NOp   1
 Largest Abelian subgroup         C1      NOp   1
 Largest concise Abelian subgroup C1      NOp   1
                         Standard orientation:                         
 ---------------------------------------------------------------------
 Center     Atomic      Atomic             Coordinates (Angstroms)
 Number     Number       Type             X           Y           Z
 ---------------------------------------------------------------------
      1         16           0       -1.558581    5.322991   -0.210621
      2          6           0        0.145459    5.034331   -0.091631
      3          6           0       -1.902401    3.620461   -0.236741
      4          6           0        0.433169    3.697241   -0.073901
      5          6           0       -0.744851    2.873711   -0.156741
      6          7           0       -0.656581    1.446991   -0.154171
      7          6           0        3.237929   -0.282239    0.163569
      8          6           0        2.659939   -0.021729   -1.096431
      9          6           0        2.479659    0.029161    1.311189
     10          6           0        1.391399    0.550411   -1.197711
     11          6           0        1.210789    0.597321    1.210949
     12          6           0        0.657999    0.858451   -0.047691
     13          6           0       -1.781581    0.640121   -0.237041
     14          6           0       -1.520141   -0.878309   -0.190431
     15          8           0       -2.918101    1.074201   -0.315331
     16          6           0       -3.852351   -1.818429    0.277449
     17          7           0       -2.713851   -1.640729   -0.460481
     18          6           0       -4.611991   -2.717409   -0.501691
     19          7           0       -2.784001   -2.376429   -1.613011
     20          7           0       -3.901871   -3.015539   -1.648881
     21          6           0       -4.310091   -1.330789    1.512809
     22          6           0       -5.551011   -1.789019    1.936599
     23          6           0       -5.869561   -3.165569   -0.060101
     24          6           0       -6.322851   -2.694059    1.163779
     25          6           0        7.167369   -1.978429    0.621029
     26          7           0        6.396569   -2.274199   -0.461001
     27          6           0        6.698579   -1.111619    1.567909
     28          6           0        5.118209   -1.753729   -0.741371
     29          6           0        5.403079   -0.555529    1.384259
     30          6           0        4.601009   -0.851359    0.299129
     31          8           0        4.564469   -2.084889   -1.786181
     32          1           0        0.845959    5.864911   -0.043181
     33          1           0       -2.919521    3.259511   -0.313851
     34          1           0        1.446549    3.307361   -0.006991
     35          1           0        3.209849   -0.281829   -1.997771
     36          1           0        2.875529   -0.198259    2.302589
     37          1           0        0.961229    0.759181   -2.179331
     38          1           0        0.638619    0.834671    2.110099
     39          1           0       -0.783901   -1.182829   -0.944551
     40          1           0       -1.110131   -1.151839    0.795619
     41          1           0       -3.736681   -0.612609    2.098999
     42          1           0       -5.950541   -1.435049    2.889699
     43          1           0       -6.453641   -3.858389   -0.667731
     44          1           0       -7.294451   -3.017409    1.542989
     45          1           0        8.145229   -2.459359    0.668489
     46          1           0        6.739519   -2.907009   -1.178951
     47          1           0        7.306729   -0.853549    2.433059
     48          1           0        5.037569    0.151461    2.132519
 ---------------------------------------------------------------------
 Rotational constants (GHZ):      0.1620831      0.0745816      0.0557298
 Leave Link  202 at Sat Sep 10 09:12:20 2022, MaxMem=  209715200 cpu:       0.0
 (Enter /opt/gaussian/l301.exe)
 Standard basis: CC-pVDZ (5D, 7F)
 Ernie: Thresh=  0.10000D-02 Tol=  0.10000D-05 Strict=F.
 Ernie:  70 primitive shells out of 795 were deleted.
 There are   523 symmetry adapted basis functions of A   symmetry.
 Integral buffers will be    131072 words long.
 Raffenetti 2 integral format.
 Two-electron integral symmetry is turned on.
   523 basis functions,  1180 primitive gaussians,   554 cartesian basis functions
   111 alpha electrons      111 beta electrons
       nuclear repulsion energy      2897.9910991885 Hartrees.
 IExCor=  402 DFT=T Ex+Corr=B3LYP ExCW=0 ScaHFX=  0.200000
 ScaDFX=  0.800000  0.720000  1.000000  0.810000 ScalE2=  1.000000  1.000000
 IRadAn=      0 IRanWt=     -1 IRanGd=            0 ICorTp=0
 NAtoms=   48 NActive=   48 NUniq=   48 SFac= 1.00D+00 NAtFMM=   60 NAOKFM=F Big=F
 Leave Link  301 at Sat Sep 10 09:12:20 2022, MaxMem=  209715200 cpu:       0.3
 (Enter /opt/gaussian/l302.exe)
 NPDir=0 NMtPBC=     1 NCelOv=     1 NCel=       1 NClECP=     1 NCelD=      1
         NCelK=      1 NCelE2=     1 NClLst=     1 CellRange=     0.0.
 One-electron integrals computed using PRISM.
 NBasis=   523 RedAO= T  NBF=   523
 NBsUse=   523 1.00D-06 NBFU=   523
 Precomputing XC quadrature grid using
 IXCGrd= 2 IRadAn=           0 IRanWt=          -1 IRanGd=           0 AccXCQ= 0.00D+00.
 NRdTot=    3098 NPtTot=      395922 NUsed=      418245 NTot=      418277
 NSgBfM=   529   529   534   534   534 NAtAll=    48    48.
 Leave Link  302 at Sat Sep 10 09:12:21 2022, MaxMem=  209715200 cpu:       7.3
 (Enter /opt/gaussian/l303.exe)
 DipDrv:  MaxL=1.
 Leave Link  303 at Sat Sep 10 09:12:21 2022, MaxMem=  209715200 cpu:       1.1
 (Enter /opt/gaussian/l401.exe)
 Harris functional with IExCor=  402 diagonalized for initial guess.
 ExpMin= 1.22D-01 ExpMax= 1.11D+05 ExpMxC= 1.07D+03 IAcc=2 IRadAn=         4 AccDes= 0.00D+00
 HarFok:  IExCor=  402 AccDes= 0.00D+00 IRadAn=         4 IDoV= 1
 ScaDFX=  1.000000  1.000000  1.000000  1.000000
 FoFCou: FMM=F IPFlag=           0 FMFlag=      100000 FMFlg1=           0
         NFxFlg=           0 DoJE=T BraDBF=F KetDBF=T FulRan=T
         Omega=  0.000000  0.000000  1.000000  0.000000  0.000000 ICntrl=     500 IOpCl=  0
         NMat0=    1 NMatS0=    1 NMatT0=    0 NMatD0=    1 NMtDS0=    0 NMtDT0=    0
         I1Cent=           4 NGrid=           0.
 Petite list used in FoFCou.
 Harris En= -1708.94746287248    
 Initial guess orbital symmetries:
       Occupied  (A) (A) (A) (A) (A) (A) (A) (A) (A) (A) (A) (A)
                 (A) (A) (A) (A) (A) (A) (A) (A) (A) (A) (A) (A)
                 (A) (A) (A) (A) (A) (A) (A) (A) (A) (A) (A) (A)
                 (A) (A) (A) (A) (A) (A) (A) (A) (A) (A) (A) (A)
                 (A) (A) (A) (A) (A) (A) (A) (A) (A) (A) (A) (A)
                 (A) (A) (A) (A) (A) (A) (A) (A) (A) (A) (A) (A)
                 (A) (A) (A) (A) (A) (A) (A) (A) (A) (A) (A) (A)
                 (A) (A) (A) (A) (A) (A) (A) (A) (A) (A) (A) (A)
                 (A) (A) (A) (A) (A) (A) (A) (A) (A) (A) (A) (A)
                 (A) (A) (A)
       Virtual   (A) (A) (A) (A) (A) (A) (A) (A) (A) (A) (A) (A)
                 (A) (A) (A) (A) (A) (A) (A) (A) (A) (A) (A) (A)
                 (A) (A) (A) (A) (A) (A) (A) (A) (A) (A) (A) (A)
                 (A) (A) (A) (A) (A) (A) (A) (A) (A) (A) (A) (A)
                 (A) (A) (A) (A) (A) (A) (A) (A) (A) (A) (A) (A)
                 (A) (A) (A) (A) (A) (A) (A) (A) (A) (A) (A) (A)
                 (A) (A) (A) (A) (A) (A) (A) (A) (A) (A) (A) (A)
                 (A) (A) (A) (A) (A) (A) (A) (A) (A) (A) (A) (A)
                 (A) (A) (A) (A) (A) (A) (A) (A) (A) (A) (A) (A)
                 (A) (A) (A) (A) (A) (A) (A) (A) (A) (A) (A) (A)
                 (A) (A) (A) (A) (A) (A) (A) (A) (A) (A) (A) (A)
                 (A) (A) (A) (A) (A) (A) (A) (A) (A) (A) (A) (A)
                 (A) (A) (A) (A) (A) (A) (A) (A) (A) (A) (A) (A)
                 (A) (A) (A) (A) (A) (A) (A) (A) (A) (A) (A) (A)
                 (A) (A) (A) (A) (A) (A) (A) (A) (A) (A) (A) (A)
                 (A) (A) (A) (A) (A) (A) (A) (A) (A) (A) (A) (A)
                 (A) (A) (A) (A) (A) (A) (A) (A) (A) (A) (A) (A)
                 (A) (A) (A) (A) (A) (A) (A) (A) (A) (A) (A) (A)
                 (A) (A) (A) (A) (A) (A) (A) (A) (A) (A) (A) (A)
                 (A) (A) (A) (A) (A) (A) (A) (A) (A) (A) (A) (A)
                 (A) (A) (A) (A) (A) (A) (A) (A) (A) (A) (A) (A)
                 (A) (A) (A) (A) (A) (A) (A) (A) (A) (A) (A) (A)
                 (A) (A) (A) (A) (A) (A) (A) (A) (A) (A) (A) (A)
                 (A) (A) (A) (A) (A) (A) (A) (A) (A) (A) (A) (A)
                 (A) (A) (A) (A) (A) (A) (A) (A) (A) (A) (A) (A)
                 (A) (A) (A) (A) (A) (A) (A) (A) (A) (A) (A) (A)
                 (A) (A) (A) (A) (A) (A) (A) (A) (A) (A) (A) (A)
                 (A) (A) (A) (A) (A) (A) (A) (A) (A) (A) (A) (A)
                 (A) (A) (A) (A) (A) (A) (A) (A) (A) (A) (A) (A)
                 (A) (A) (A) (A) (A) (A) (A) (A) (A) (A) (A) (A)
                 (A) (A) (A) (A) (A) (A) (A) (A) (A) (A) (A) (A)
                 (A) (A) (A) (A) (A) (A) (A) (A) (A) (A) (A) (A)
                 (A) (A) (A) (A) (A) (A) (A) (A) (A) (A) (A) (A)
                 (A) (A) (A) (A) (A) (A) (A) (A) (A) (A) (A) (A)
                 (A) (A) (A) (A)
 The electronic state of the initial guess is 1-A.
 Leave Link  401 at Sat Sep 10 09:12:24 2022, MaxMem=  209715200 cpu:      23.4
 (Enter /opt/gaussian/l502.exe)
 Closed shell SCF:
 Requested convergence on RMS density matrix=1.00D-08 within 128 cycles.
 Requested convergence on MAX density matrix=1.00D-06.
 Requested convergence on             energy=1.00D-06.
 No special actions if energy rises.
 Using DIIS extrapolation, IDIIS=  1040.
 Integral symmetry usage will be decided dynamically.
       417800 words used for storage of precomputed grid.
 IEnd=     1365308 IEndB=     1365308 NGot=   209715200 MDV=   208674003
 LenX=   208674003 LenY=   208366533
 Fock matrices will be formed incrementally for  20 cycles.
 Integral accuracy reduced to 1.0D-05 until final iterations.

 Cycle   1  Pass 0  IDiag  1:
 FoFCou: FMM=F IPFlag=           0 FMFlag=      100000 FMFlg1=           0
         NFxFlg=           0 DoJE=F BraDBF=F KetDBF=F FulRan=T
         Omega=  0.000000  0.000000  1.000000  0.000000  0.000000 ICntrl=       0 IOpCl=  0
         NMat0=    1 NMatS0=    1 NMatT0=    0 NMatD0=    1 NMtDS0=    0 NMtDT0=    0
         I1Cent=           0 NGrid=           0.
 Symmetry not used in FoFCou.
 E= -1708.48335486281    
 DIIS: error= 1.86D-02 at cycle   1 NSaved=   1.
 NSaved= 1 IEnMin= 1 EnMin= -1708.48335486281     IErMin= 1 ErrMin= 1.86D-02
 ErrMax= 1.86D-02 EMaxC= 1.00D-01 BMatC= 6.42D-01 BMatP= 6.42D-01
 IDIUse=3 WtCom= 8.14D-01 WtEn= 1.86D-01
 Coeff-Com:  0.100D+01
 Coeff-En:   0.100D+01
 Coeff:      0.100D+01
 Gap=     0.204 Goal=   None    Shift=    0.000
 GapD=    0.204 DampG=1.000 DampE=0.500 DampFc=0.5000 IDamp=-1.
 Damping current iteration by 5.00D-01
 RMSDP=4.59D-03 MaxDP=2.24D-01              OVMax= 3.03D-01

 Cycle   2  Pass 0  IDiag  1:
 RMSU=  1.61D-03    CP:  9.82D-01
 E= -1708.61917111021     Delta-E=       -0.135816247402 Rises=F Damp=T
 DIIS: error= 1.08D-02 at cycle   2 NSaved=   2.
 NSaved= 2 IEnMin= 2 EnMin= -1708.61917111021     IErMin= 2 ErrMin= 1.08D-02
 ErrMax= 1.08D-02 EMaxC= 1.00D-01 BMatC= 1.43D-01 BMatP= 6.42D-01
 IDIUse=3 WtCom= 8.92D-01 WtEn= 1.08D-01
 Coeff-Com:  0.270D+00 0.730D+00
 Coeff-En:   0.399D+00 0.601D+00
 Coeff:      0.284D+00 0.716D+00
 Gap=     0.219 Goal=   None    Shift=    0.000
 RMSDP=1.51D-03 MaxDP=6.93D-02 DE=-1.36D-01 OVMax= 3.01D-01

 Cycle   3  Pass 0  IDiag  1:
 RMSU=  9.59D-04    CP:  9.67D-01  7.30D-01
 E= -1709.06575257149     Delta-E=       -0.446581461274 Rises=F Damp=F
 DIIS: error= 9.84D-03 at cycle   3 NSaved=   3.
 NSaved= 3 IEnMin= 3 EnMin= -1709.06575257149     IErMin= 3 ErrMin= 9.84D-03
 ErrMax= 9.84D-03 EMaxC= 1.00D-01 BMatC= 9.83D-02 BMatP= 1.43D-01
 IDIUse=3 WtCom= 9.02D-01 WtEn= 9.84D-02
 Coeff-Com:  0.970D-01 0.444D+00 0.459D+00
 Coeff-En:   0.000D+00 0.000D+00 0.100D+01
 Coeff:      0.874D-01 0.401D+00 0.512D+00
 Gap=     0.144 Goal=   None    Shift=    0.000
 RMSDP=8.18D-04 MaxDP=5.02D-02 DE=-4.47D-01 OVMax= 8.50D-02

 Cycle   4  Pass 0  IDiag  1:
 RMSU=  4.22D-04    CP:  9.72D-01  8.23D-01  6.23D-01
 E= -1709.13805875909     Delta-E=       -0.072306187602 Rises=F Damp=F
 DIIS: error= 4.02D-03 at cycle   4 NSaved=   4.
 NSaved= 4 IEnMin= 4 EnMin= -1709.13805875909     IErMin= 4 ErrMin= 4.02D-03
 ErrMax= 4.02D-03 EMaxC= 1.00D-01 BMatC= 2.05D-02 BMatP= 9.83D-02
 IDIUse=3 WtCom= 9.60D-01 WtEn= 4.02D-02
 Coeff-Com:  0.254D-01 0.132D+00 0.325D+00 0.517D+00
 Coeff-En:   0.000D+00 0.000D+00 0.203D+00 0.797D+00
 Coeff:      0.243D-01 0.127D+00 0.320D+00 0.529D+00
 Gap=     0.141 Goal=   None    Shift=    0.000
 RMSDP=3.64D-04 MaxDP=2.50D-02 DE=-7.23D-02 OVMax= 4.15D-02

 Cycle   5  Pass 0  IDiag  1:
 RMSU=  1.48D-04    CP:  9.70D-01  7.91D-01  7.11D-01  5.60D-01
 E= -1709.15493735532     Delta-E=       -0.016878596231 Rises=F Damp=F
 DIIS: error= 2.02D-03 at cycle   5 NSaved=   5.
 NSaved= 5 IEnMin= 5 EnMin= -1709.15493735532     IErMin= 5 ErrMin= 2.02D-03
 ErrMax= 2.02D-03 EMaxC= 1.00D-01 BMatC= 2.49D-03 BMatP= 2.05D-02
 IDIUse=3 WtCom= 9.80D-01 WtEn= 2.02D-02
 Coeff-Com:  0.505D-02 0.267D-01 0.147D+00 0.348D+00 0.473D+00
 Coeff-En:   0.000D+00 0.000D+00 0.000D+00 0.112D+00 0.888D+00
 Coeff:      0.495D-02 0.262D-01 0.144D+00 0.344D+00 0.481D+00
 Gap=     0.144 Goal=   None    Shift=    0.000
 RMSDP=1.28D-04 MaxDP=8.44D-03 DE=-1.69D-02 OVMax= 1.75D-02

 Cycle   6  Pass 0  IDiag  1:
 RMSU=  4.33D-05    CP:  9.70D-01  7.91D-01  7.17D-01  6.49D-01  5.33D-01
 E= -1709.15747592695     Delta-E=       -0.002538571625 Rises=F Damp=F
 DIIS: error= 5.85D-04 at cycle   6 NSaved=   6.
 NSaved= 6 IEnMin= 6 EnMin= -1709.15747592695     IErMin= 6 ErrMin= 5.85D-04
 ErrMax= 5.85D-04 EMaxC= 1.00D-01 BMatC= 2.69D-04 BMatP= 2.49D-03
 IDIUse=3 WtCom= 9.94D-01 WtEn= 5.85D-03
 Coeff-Com:  0.270D-03-0.195D-02 0.481D-01 0.148D+00 0.301D+00 0.504D+00
 Coeff-En:   0.000D+00 0.000D+00 0.000D+00 0.000D+00 0.591D-01 0.941D+00
 Coeff:      0.268D-03-0.193D-02 0.478D-01 0.147D+00 0.300D+00 0.507D+00
 Gap=     0.143 Goal=   None    Shift=    0.000
 RMSDP=3.90D-05 MaxDP=2.39D-03 DE=-2.54D-03 OVMax= 4.74D-03

 Cycle   7  Pass 0  IDiag  1:
 RMSU=  1.74D-05    CP:  9.70D-01  7.93D-01  7.19D-01  6.46D-01  5.84D-01
                    CP:  5.48D-01
 E= -1709.15772128120     Delta-E=       -0.000245354250 Rises=F Damp=F
 DIIS: error= 1.99D-04 at cycle   7 NSaved=   7.
 NSaved= 7 IEnMin= 7 EnMin= -1709.15772128120     IErMin= 7 ErrMin= 1.99D-04
 ErrMax= 1.99D-04 EMaxC= 1.00D-01 BMatC= 3.64D-05 BMatP= 2.69D-04
 IDIUse=3 WtCom= 9.98D-01 WtEn= 1.99D-03
 Coeff-Com: -0.157D-03-0.412D-02 0.137D-01 0.523D-01 0.133D+00 0.323D+00
 Coeff-Com:  0.482D+00
 Coeff-En:   0.000D+00 0.000D+00 0.000D+00 0.000D+00 0.000D+00 0.837D-01
 Coeff-En:   0.916D+00
 Coeff:     -0.156D-03-0.411D-02 0.137D-01 0.522D-01 0.133D+00 0.323D+00
 Coeff:      0.483D+00
 Gap=     0.144 Goal=   None    Shift=    0.000
 RMSDP=1.39D-05 MaxDP=8.95D-04 DE=-2.45D-04 OVMax= 1.31D-03

 Cycle   8  Pass 0  IDiag  1:
 RMSU=  5.49D-06    CP:  9.70D-01  7.92D-01  7.20D-01  6.47D-01  5.90D-01
                    CP:  6.34D-01  5.99D-01
 E= -1709.15775500226     Delta-E=       -0.000033721060 Rises=F Damp=F
 DIIS: error= 5.63D-05 at cycle   8 NSaved=   8.
 NSaved= 8 IEnMin= 8 EnMin= -1709.15775500226     IErMin= 8 ErrMin= 5.63D-05
 ErrMax= 5.63D-05 EMaxC= 1.00D-01 BMatC= 3.68D-06 BMatP= 3.64D-05
 IDIUse=1 WtCom= 1.00D+00 WtEn= 0.00D+00
 Coeff-Com: -0.282D-04-0.249D-02 0.477D-02 0.200D-01 0.573D-01 0.159D+00
 Coeff-Com:  0.303D+00 0.459D+00
 Coeff:     -0.282D-04-0.249D-02 0.477D-02 0.200D-01 0.573D-01 0.159D+00
 Coeff:      0.303D+00 0.459D+00
 Gap=     0.143 Goal=   None    Shift=    0.000
 RMSDP=4.39D-06 MaxDP=3.42D-04 DE=-3.37D-05 OVMax= 4.08D-04

 Initial convergence to 1.0D-05 achieved.  Increase integral accuracy.
 Cycle   9  Pass 1  IDiag  1:
 E= -1709.15779831615     Delta-E=       -0.000043313892 Rises=F Damp=F
 DIIS: error= 2.13D-04 at cycle   1 NSaved=   1.
 NSaved= 1 IEnMin= 1 EnMin= -1709.15779831615     IErMin= 1 ErrMin= 2.13D-04
 ErrMax= 2.13D-04 EMaxC= 1.00D-01 BMatC= 9.48D-06 BMatP= 9.48D-06
 IDIUse=3 WtCom= 9.98D-01 WtEn= 2.13D-03
 Coeff-Com:  0.100D+01
 Coeff-En:   0.100D+01
 Coeff:      0.100D+01
 Gap=     0.144 Goal=   None    Shift=    0.000
 RMSDP=4.39D-06 MaxDP=3.42D-04 DE=-4.33D-05 OVMax= 6.17D-04

 Cycle  10  Pass 1  IDiag  1:
 RMSU=  9.64D-05    CP:  1.00D+00
 E= -1709.15780605065     Delta-E=       -0.000007734504 Rises=F Damp=F
 DIIS: error= 4.31D-05 at cycle   2 NSaved=   2.
 NSaved= 2 IEnMin= 2 EnMin= -1709.15780605065     IErMin= 2 ErrMin= 4.31D-05
 ErrMax= 4.31D-05 EMaxC= 1.00D-01 BMatC= 1.38D-06 BMatP= 9.48D-06
 IDIUse=1 WtCom= 1.00D+00 WtEn= 0.00D+00
 Coeff-Com:  0.162D+00 0.838D+00
 Coeff:      0.162D+00 0.838D+00
 Gap=     0.143 Goal=   None    Shift=    0.000
 RMSDP=6.48D-06 MaxDP=4.35D-04 DE=-7.73D-06 OVMax= 7.54D-04

 Cycle  11  Pass 1  IDiag  1:
 RMSU=  4.49D-06    CP:  1.00D+00  1.01D+00
 E= -1709.15780358033     Delta-E=        0.000002470326 Rises=F Damp=F
 DIIS: error= 8.00D-05 at cycle   3 NSaved=   3.
 NSaved= 3 IEnMin= 2 EnMin= -1709.15780605065     IErMin= 2 ErrMin= 4.31D-05
 ErrMax= 8.00D-05 EMaxC= 1.00D-01 BMatC= 4.17D-06 BMatP= 1.38D-06
 IDIUse=1 WtCom= 1.00D+00 WtEn= 0.00D+00
 Coeff-Com: -0.244D-02 0.636D+00 0.366D+00
 Coeff:     -0.244D-02 0.636D+00 0.366D+00
 Gap=     0.143 Goal=   None    Shift=    0.000
 RMSDP=4.16D-06 MaxDP=2.95D-04 DE= 2.47D-06 OVMax= 5.17D-04

 Cycle  12  Pass 1  IDiag  1:
 RMSU=  5.03D-07    CP:  1.00D+00  1.01D+00  3.58D-01
 E= -1709.15780726506     Delta-E=       -0.000003684731 Rises=F Damp=F
 DIIS: error= 5.43D-06 at cycle   4 NSaved=   4.
 NSaved= 4 IEnMin= 4 EnMin= -1709.15780726506     IErMin= 4 ErrMin= 5.43D-06
 ErrMax= 5.43D-06 EMaxC= 1.00D-01 BMatC= 4.02D-08 BMatP= 1.38D-06
 IDIUse=1 WtCom= 1.00D+00 WtEn= 0.00D+00
 Coeff-Com: -0.406D-02 0.382D+00 0.227D+00 0.396D+00
 Coeff:     -0.406D-02 0.382D+00 0.227D+00 0.396D+00
 Gap=     0.143 Goal=   None    Shift=    0.000
 RMSDP=3.99D-07 MaxDP=2.86D-05 DE=-3.68D-06 OVMax= 4.20D-05

 Cycle  13  Pass 1  IDiag  1:
 RMSU=  1.70D-07    CP:  1.00D+00  1.01D+00  3.70D-01  5.68D-01
 E= -1709.15780730229     Delta-E=       -0.000000037231 Rises=F Damp=F
 DIIS: error= 7.57D-07 at cycle   5 NSaved=   5.
 NSaved= 5 IEnMin= 5 EnMin= -1709.15780730229     IErMin= 5 ErrMin= 7.57D-07
 ErrMax= 7.57D-07 EMaxC= 1.00D-01 BMatC= 9.58D-10 BMatP= 4.02D-08
 IDIUse=1 WtCom= 1.00D+00 WtEn= 0.00D+00
 Coeff-Com: -0.199D-02 0.171D+00 0.102D+00 0.211D+00 0.519D+00
 Coeff:     -0.199D-02 0.171D+00 0.102D+00 0.211D+00 0.519D+00
 Gap=     0.144 Goal=   None    Shift=    0.000
 RMSDP=7.78D-08 MaxDP=3.53D-06 DE=-3.72D-08 OVMax= 8.34D-06

 Cycle  14  Pass 1  IDiag  1:
 RMSU=  4.98D-08    CP:  1.00D+00  1.01D+00  3.71D-01  5.86D-01  8.76D-01
 E= -1709.15780730306     Delta-E=       -0.000000000768 Rises=F Damp=F
 DIIS: error= 3.37D-07 at cycle   6 NSaved=   6.
 NSaved= 6 IEnMin= 6 EnMin= -1709.15780730306     IErMin= 6 ErrMin= 3.37D-07
 ErrMax= 3.37D-07 EMaxC= 1.00D-01 BMatC= 1.82D-10 BMatP= 9.58D-10
 IDIUse=1 WtCom= 1.00D+00 WtEn= 0.00D+00
 Coeff-Com: -0.679D-03 0.535D-01 0.321D-01 0.764D-01 0.327D+00 0.511D+00
 Coeff:     -0.679D-03 0.535D-01 0.321D-01 0.764D-01 0.327D+00 0.511D+00
 Gap=     0.144 Goal=   None    Shift=    0.000
 RMSDP=3.47D-08 MaxDP=1.55D-06 DE=-7.68D-10 OVMax= 3.75D-06

 Cycle  15  Pass 1  IDiag  1:
 RMSU=  1.58D-08    CP:  1.00D+00  1.01D+00  3.71D-01  5.93D-01  9.08D-01
                    CP:  6.50D-01
 E= -1709.15780730320     Delta-E=       -0.000000000146 Rises=F Damp=F
 DIIS: error= 1.33D-07 at cycle   7 NSaved=   7.
 NSaved= 7 IEnMin= 7 EnMin= -1709.15780730320     IErMin= 7 ErrMin= 1.33D-07
 ErrMax= 1.33D-07 EMaxC= 1.00D-01 BMatC= 2.84D-11 BMatP= 1.82D-10
 IDIUse=1 WtCom= 1.00D+00 WtEn= 0.00D+00
 Coeff-Com: -0.531D-04 0.140D-02 0.882D-03 0.818D-02 0.109D+00 0.325D+00
 Coeff-Com:  0.556D+00
 Coeff:     -0.531D-04 0.140D-02 0.882D-03 0.818D-02 0.109D+00 0.325D+00
 Coeff:      0.556D+00
 Gap=     0.144 Goal=   None    Shift=    0.000
 RMSDP=1.24D-08 MaxDP=5.40D-07 DE=-1.46D-10 OVMax= 1.70D-06

 Cycle  16  Pass 1  IDiag  1:
 RMSU=  5.39D-09    CP:  1.00D+00  1.01D+00  3.71D-01  5.96D-01  9.17D-01
                    CP:  7.20D-01  6.53D-01
 E= -1709.15780730326     Delta-E=       -0.000000000056 Rises=F Damp=F
 DIIS: error= 5.21D-08 at cycle   8 NSaved=   8.
 NSaved= 8 IEnMin= 8 EnMin= -1709.15780730326     IErMin= 8 ErrMin= 5.21D-08
 ErrMax= 5.21D-08 EMaxC= 1.00D-01 BMatC= 3.46D-12 BMatP= 2.84D-11
 IDIUse=1 WtCom= 1.00D+00 WtEn= 0.00D+00
 Coeff-Com:  0.404D-04-0.496D-02-0.298D-02-0.333D-02 0.316D-01 0.145D+00
 Coeff-Com:  0.339D+00 0.495D+00
 Coeff:      0.404D-04-0.496D-02-0.298D-02-0.333D-02 0.316D-01 0.145D+00
 Coeff:      0.339D+00 0.495D+00
 Gap=     0.144 Goal=   None    Shift=    0.000
 RMSDP=4.36D-09 MaxDP=2.96D-07 DE=-5.64D-11 OVMax= 6.79D-07

 SCF Done:  E(RB3LYP) =  -1709.15780730     A.U. after   16 cycles
             Convg  =    0.4356D-08             -V/T =  2.0056
 KE= 1.699646366734D+03 PE=-9.791878312432D+03 EE= 3.485083039206D+03
 Leave Link  502 at Sat Sep 10 09:24:35 2022, MaxMem=  209715200 cpu:    5407.6
 (Enter /opt/gaussian/l601.exe)
 Copying SCF densities to generalized density rwf, IOpCl= 0 IROHF=0.

 **********************************************************************

            Population analysis using the SCF density.

 **********************************************************************

 Orbital symmetries:
       Occupied  (A) (A) (A) (A) (A) (A) (A) (A) (A) (A) (A) (A)
                 (A) (A) (A) (A) (A) (A) (A) (A) (A) (A) (A) (A)
                 (A) (A) (A) (A) (A) (A) (A) (A) (A) (A) (A) (A)
                 (A) (A) (A) (A) (A) (A) (A) (A) (A) (A) (A) (A)
                 (A) (A) (A) (A) (A) (A) (A) (A) (A) (A) (A) (A)
                 (A) (A) (A) (A) (A) (A) (A) (A) (A) (A) (A) (A)
                 (A) (A) (A) (A) (A) (A) (A) (A) (A) (A) (A) (A)
                 (A) (A) (A) (A) (A) (A) (A) (A) (A) (A) (A) (A)
                 (A) (A) (A) (A) (A) (A) (A) (A) (A) (A) (A) (A)
                 (A) (A) (A)
       Virtual   (A) (A) (A) (A) (A) (A) (A) (A) (A) (A) (A) (A)
                 (A) (A) (A) (A) (A) (A) (A) (A) (A) (A) (A) (A)
                 (A) (A) (A) (A) (A) (A) (A) (A) (A) (A) (A) (A)
                 (A) (A) (A) (A) (A) (A) (A) (A) (A) (A) (A) (A)
                 (A) (A) (A) (A) (A) (A) (A) (A) (A) (A) (A) (A)
                 (A) (A) (A) (A) (A) (A) (A) (A) (A) (A) (A) (A)
                 (A) (A) (A) (A) (A) (A) (A) (A) (A) (A) (A) (A)
                 (A) (A) (A) (A) (A) (A) (A) (A) (A) (A) (A) (A)
                 (A) (A) (A) (A) (A) (A) (A) (A) (A) (A) (A) (A)
                 (A) (A) (A) (A) (A) (A) (A) (A) (A) (A) (A) (A)
                 (A) (A) (A) (A) (A) (A) (A) (A) (A) (A) (A) (A)
                 (A) (A) (A) (A) (A) (A) (A) (A) (A) (A) (A) (A)
                 (A) (A) (A) (A) (A) (A) (A) (A) (A) (A) (A) (A)
                 (A) (A) (A) (A) (A) (A) (A) (A) (A) (A) (A) (A)
                 (A) (A) (A) (A) (A) (A) (A) (A) (A) (A) (A) (A)
                 (A) (A) (A) (A) (A) (A) (A) (A) (A) (A) (A) (A)
                 (A) (A) (A) (A) (A) (A) (A) (A) (A) (A) (A) (A)
                 (A) (A) (A) (A) (A) (A) (A) (A) (A) (A) (A) (A)
                 (A) (A) (A) (A) (A) (A) (A) (A) (A) (A) (A) (A)
                 (A) (A) (A) (A) (A) (A) (A) (A) (A) (A) (A) (A)
                 (A) (A) (A) (A) (A) (A) (A) (A) (A) (A) (A) (A)
                 (A) (A) (A) (A) (A) (A) (A) (A) (A) (A) (A) (A)
                 (A) (A) (A) (A) (A) (A) (A) (A) (A) (A) (A) (A)
                 (A) (A) (A) (A) (A) (A) (A) (A) (A) (A) (A) (A)
                 (A) (A) (A) (A) (A) (A) (A) (A) (A) (A) (A) (A)
                 (A) (A) (A) (A) (A) (A) (A) (A) (A) (A) (A) (A)
                 (A) (A) (A) (A) (A) (A) (A) (A) (A) (A) (A) (A)
                 (A) (A) (A) (A) (A) (A) (A) (A) (A) (A) (A) (A)
                 (A) (A) (A) (A) (A) (A) (A) (A) (A) (A) (A) (A)
                 (A) (A) (A) (A) (A) (A) (A) (A) (A) (A) (A) (A)
                 (A) (A) (A) (A) (A) (A) (A) (A) (A) (A) (A) (A)
                 (A) (A) (A) (A) (A) (A) (A) (A) (A) (A) (A) (A)
                 (A) (A) (A) (A) (A) (A) (A) (A) (A) (A) (A) (A)
                 (A) (A) (A) (A) (A) (A) (A) (A) (A) (A) (A) (A)
                 (A) (A) (A) (A)
 The electronic state is 1-A.
 Alpha  occ. eigenvalues --  -88.90490 -19.12654 -19.11615 -14.40744 -14.40540
 Alpha  occ. eigenvalues --  -14.38982 -14.38365 -14.34169 -10.30537 -10.30528
 Alpha  occ. eigenvalues --  -10.26929 -10.25075 -10.24729 -10.23778 -10.23049
 Alpha  occ. eigenvalues --  -10.22588 -10.22428 -10.22368 -10.21583 -10.21492
 Alpha  occ. eigenvalues --  -10.21482 -10.21406 -10.21077 -10.20576 -10.20532
 Alpha  occ. eigenvalues --  -10.20403 -10.19855 -10.19620 -10.19529 -10.19366
 Alpha  occ. eigenvalues --  -10.18974  -7.96701  -5.93026  -5.92647  -5.92334
 Alpha  occ. eigenvalues --   -1.08805  -1.05760  -1.05319  -0.97473  -0.96945
 Alpha  occ. eigenvalues --   -0.91833  -0.88326  -0.87198  -0.85876  -0.83933
 Alpha  occ. eigenvalues --   -0.79321  -0.77541  -0.76943  -0.76552  -0.75452
 Alpha  occ. eigenvalues --   -0.74574  -0.73139  -0.71695  -0.67750  -0.66182
 Alpha  occ. eigenvalues --   -0.64352  -0.63657  -0.62947  -0.61931  -0.61412
 Alpha  occ. eigenvalues --   -0.58271  -0.57287  -0.56875  -0.55245  -0.53338
 Alpha  occ. eigenvalues --   -0.52933  -0.52116  -0.51867  -0.51281  -0.50863
 Alpha  occ. eigenvalues --   -0.49967  -0.48535  -0.46581  -0.46202  -0.46116
 Alpha  occ. eigenvalues --   -0.45684  -0.45009  -0.44650  -0.44477  -0.43926
 Alpha  occ. eigenvalues --   -0.43661  -0.43137  -0.42761  -0.41426  -0.40750
 Alpha  occ. eigenvalues --   -0.40135  -0.40049  -0.39436  -0.38890  -0.37890
 Alpha  occ. eigenvalues --   -0.37493  -0.37083  -0.36580  -0.36169  -0.36033
 Alpha  occ. eigenvalues --   -0.35063  -0.34772  -0.33120  -0.32432  -0.30848
 Alpha  occ. eigenvalues --   -0.30587  -0.28200  -0.27738  -0.26797  -0.26708
 Alpha  occ. eigenvalues --   -0.25987  -0.24505  -0.24403  -0.23052  -0.22719
 Alpha  occ. eigenvalues --   -0.21925
 Alpha virt. eigenvalues --   -0.07574  -0.03681  -0.03329  -0.02340  -0.01555
 Alpha virt. eigenvalues --   -0.00339   0.00689   0.01297   0.02769   0.03976
 Alpha virt. eigenvalues --    0.04143   0.04774   0.06281   0.07013   0.07544
 Alpha virt. eigenvalues --    0.07945   0.08191   0.08836   0.09248   0.10379
 Alpha virt. eigenvalues --    0.10751   0.11024   0.11473   0.12650   0.13237
 Alpha virt. eigenvalues --    0.13538   0.13615   0.14089   0.14766   0.14919
 Alpha virt. eigenvalues --    0.16037   0.16580   0.16634   0.18533   0.19354
 Alpha virt. eigenvalues --    0.20061   0.20447   0.21429   0.23240   0.24637
 Alpha virt. eigenvalues --    0.24907   0.25185   0.25498   0.26244   0.26753
 Alpha virt. eigenvalues --    0.27711   0.28554   0.29251   0.30149   0.30372
 Alpha virt. eigenvalues --    0.30674   0.30946   0.32686   0.32925   0.33469
 Alpha virt. eigenvalues --    0.36444   0.37521   0.37795   0.38237   0.39717
 Alpha virt. eigenvalues --    0.39911   0.40386   0.41145   0.41723   0.42151
 Alpha virt. eigenvalues --    0.42672   0.44352   0.44447   0.44561   0.45065
 Alpha virt. eigenvalues --    0.45455   0.45722   0.46001   0.46215   0.46610
 Alpha virt. eigenvalues --    0.46909   0.47267   0.47477   0.47673   0.47826
 Alpha virt. eigenvalues --    0.48056   0.48509   0.48791   0.49140   0.49770
 Alpha virt. eigenvalues --    0.49830   0.50136   0.50602   0.50733   0.51133
 Alpha virt. eigenvalues --    0.51235   0.51766   0.52173   0.52749   0.53296
 Alpha virt. eigenvalues --    0.53671   0.54343   0.54501   0.55154   0.55651
 Alpha virt. eigenvalues --    0.56016   0.56529   0.56992   0.58378   0.58788
 Alpha virt. eigenvalues --    0.59618   0.59727   0.60262   0.60491   0.60709
 Alpha virt. eigenvalues --    0.61429   0.61681   0.62038   0.62728   0.63249
 Alpha virt. eigenvalues --    0.63603   0.64069   0.64428   0.64711   0.64860
 Alpha virt. eigenvalues --    0.65210   0.65973   0.66287   0.66558   0.66843
 Alpha virt. eigenvalues --    0.67543   0.67853   0.68967   0.69132   0.69310
 Alpha virt. eigenvalues --    0.70398   0.70568   0.71518   0.71665   0.73281
 Alpha virt. eigenvalues --    0.73424   0.73856   0.74707   0.75358   0.76800
 Alpha virt. eigenvalues --    0.77334   0.77891   0.78776   0.79811   0.80705
 Alpha virt. eigenvalues --    0.82002   0.82242   0.82673   0.82940   0.83472
 Alpha virt. eigenvalues --    0.84533   0.86270   0.86936   0.87400   0.87899
 Alpha virt. eigenvalues --    0.88456   0.88794   0.89626   0.89736   0.90243
 Alpha virt. eigenvalues --    0.90608   0.91214   0.91683   0.92049   0.92778
 Alpha virt. eigenvalues --    0.93524   0.94380   0.94949   0.95924   0.96803
 Alpha virt. eigenvalues --    0.97163   0.97695   0.97922   0.98644   0.98947
 Alpha virt. eigenvalues --    0.99677   1.00028   1.00761   1.01125   1.01242
 Alpha virt. eigenvalues --    1.01498   1.01813   1.02694   1.03227   1.03419
 Alpha virt. eigenvalues --    1.03745   1.03808   1.04380   1.05594   1.05914
 Alpha virt. eigenvalues --    1.06764   1.06951   1.07518   1.08060   1.09141
 Alpha virt. eigenvalues --    1.09825   1.11009   1.11434   1.11985   1.13165
 Alpha virt. eigenvalues --    1.14102   1.15652   1.16356   1.17216   1.17265
 Alpha virt. eigenvalues --    1.18915   1.19569   1.21237   1.23001   1.23654
 Alpha virt. eigenvalues --    1.24693   1.24875   1.26233   1.26459   1.28948
 Alpha virt. eigenvalues --    1.29884   1.30653   1.31942   1.32291   1.32469
 Alpha virt. eigenvalues --    1.32900   1.34021   1.35265   1.35474   1.36070
 Alpha virt. eigenvalues --    1.38082   1.39262   1.40946   1.41177   1.42337
 Alpha virt. eigenvalues --    1.43174   1.43382   1.44131   1.45089   1.45624
 Alpha virt. eigenvalues --    1.47154   1.47185   1.47975   1.48745   1.49027
 Alpha virt. eigenvalues --    1.49556   1.50575   1.51599   1.52007   1.52105
 Alpha virt. eigenvalues --    1.52982   1.53787   1.55068   1.55510   1.56025
 Alpha virt. eigenvalues --    1.56707   1.57129   1.57375   1.57684   1.58354
 Alpha virt. eigenvalues --    1.60078   1.60555   1.61166   1.61233   1.62329
 Alpha virt. eigenvalues --    1.63012   1.63368   1.63542   1.63769   1.64956
 Alpha virt. eigenvalues --    1.65166   1.65533   1.65584   1.66598   1.67185
 Alpha virt. eigenvalues --    1.68116   1.68644   1.68896   1.69277   1.69792
 Alpha virt. eigenvalues --    1.70134   1.71193   1.71702   1.72120   1.72475
 Alpha virt. eigenvalues --    1.72729   1.73729   1.74207   1.75439   1.76247
 Alpha virt. eigenvalues --    1.77091   1.77572   1.77769   1.78469   1.79053
 Alpha virt. eigenvalues --    1.79295   1.80141   1.80850   1.81774   1.81950
 Alpha virt. eigenvalues --    1.82315   1.82565   1.83097   1.83846   1.84519
 Alpha virt. eigenvalues --    1.85056   1.85235   1.85519   1.86445   1.87875
 Alpha virt. eigenvalues --    1.88415   1.88707   1.89358   1.90123   1.91000
 Alpha virt. eigenvalues --    1.91770   1.91844   1.93562   1.94604   1.95420
 Alpha virt. eigenvalues --    1.96083   1.96695   1.97182   1.98113   1.99351
 Alpha virt. eigenvalues --    1.99774   2.00058   2.00699   2.01369   2.01742
 Alpha virt. eigenvalues --    2.02518   2.03169   2.04092   2.04836   2.05877
 Alpha virt. eigenvalues --    2.07056   2.07567   2.08823   2.09539   2.10145
 Alpha virt. eigenvalues --    2.12264   2.12937   2.14864   2.16336   2.16635
 Alpha virt. eigenvalues --    2.17855   2.19726   2.20235   2.22006   2.22775
 Alpha virt. eigenvalues --    2.24585   2.25896   2.28532   2.29316   2.29888
 Alpha virt. eigenvalues --    2.31247   2.32678   2.33069   2.34577   2.35412
 Alpha virt. eigenvalues --    2.36785   2.37969   2.39112   2.39921   2.40231
 Alpha virt. eigenvalues --    2.41431   2.42209   2.42527   2.44142   2.44706
 Alpha virt. eigenvalues --    2.45067   2.47443   2.48964   2.49842   2.50910
 Alpha virt. eigenvalues --    2.52901   2.54265   2.59178   2.59281   2.61094
 Alpha virt. eigenvalues --    2.61658   2.62937   2.65513   2.66599   2.68321
 Alpha virt. eigenvalues --    2.68945   2.70610   2.70804   2.71438   2.72172
 Alpha virt. eigenvalues --    2.74115   2.74480   2.76377   2.77286   2.77951
 Alpha virt. eigenvalues --    2.79962   2.82073   2.83218   2.85467   2.89415
 Alpha virt. eigenvalues --    2.90446   2.94212   2.95399   2.97378   2.98538
 Alpha virt. eigenvalues --    3.06750   3.09584   3.10153   3.12687   3.15648
 Alpha virt. eigenvalues --    3.39701   3.42233   3.44399   3.48948   3.52028
 Alpha virt. eigenvalues --    3.54308   3.58904
          Condensed to atoms (all electrons):
              1          2          3          4          5          6
     1  S   15.395269   0.357310   0.352396  -0.088243  -0.099956   0.003693
     2  C    0.357310   4.955890  -0.097265   0.577270  -0.021289   0.004810
     3  C    0.352396  -0.097265   5.058016  -0.071038   0.561722  -0.062566
     4  C   -0.088243   0.577270  -0.071038   4.736140   0.473506  -0.050548
     5  C   -0.099956  -0.021289   0.561722   0.473506   4.724060   0.367429
     6  N    0.003693   0.004810  -0.062566  -0.050548   0.367429   6.567463
     7  C    0.000000  -0.000004   0.000000  -0.000061   0.000071   0.000227
     8  C    0.000000   0.000002   0.000002  -0.000497  -0.000105   0.006212
     9  C    0.000000   0.000001   0.000000  -0.000521  -0.000004   0.006379
    10  C   -0.000030   0.000133  -0.000427  -0.001797  -0.005024  -0.050442
    11  C   -0.000034   0.000181  -0.000402  -0.001845  -0.004946  -0.050675
    12  C   -0.000133  -0.000917   0.005512  -0.001659  -0.063080   0.278372
    13  C    0.000598   0.000248  -0.012955   0.003892  -0.051381   0.395635
    14  C    0.000023   0.000000   0.001489  -0.000399   0.004477  -0.070984
    15  O    0.000734  -0.000020   0.007794   0.000178  -0.016038  -0.066157
    16  C    0.000000   0.000000  -0.000008   0.000000   0.000004   0.000407
    17  N    0.000000   0.000000  -0.000008   0.000001  -0.000027   0.001390
    18  C    0.000000   0.000000   0.000000   0.000000   0.000000  -0.000009
    19  N    0.000000   0.000000   0.000000   0.000000  -0.000001  -0.000018
    20  N    0.000000   0.000000   0.000000   0.000000   0.000000   0.000000
    21  C    0.000000   0.000000  -0.000004   0.000000   0.000000  -0.000023
    22  C    0.000000   0.000000   0.000000   0.000000   0.000000  -0.000001
    23  C    0.000000   0.000000   0.000000   0.000000   0.000000   0.000000
    24  C    0.000000   0.000000   0.000000   0.000000   0.000000   0.000000
    25  C    0.000000   0.000000   0.000000   0.000000   0.000000   0.000000
    26  N    0.000000   0.000000   0.000000   0.000000   0.000000   0.000000
    27  C    0.000000   0.000000   0.000000   0.000000   0.000000   0.000000
    28  C    0.000000   0.000000   0.000000   0.000000   0.000000   0.000000
    29  C    0.000000   0.000000   0.000000   0.000000   0.000000   0.000000
    30  C    0.000000   0.000000   0.000000   0.000001   0.000001   0.000002
    31  O    0.000000   0.000000   0.000000   0.000000   0.000000   0.000000
    32  H   -0.044518   0.384314   0.003460  -0.014448   0.007173  -0.000111
    33  H   -0.036761   0.002056   0.369201   0.008257   0.000263  -0.008724
    34  H    0.008423  -0.058347   0.009838   0.390013  -0.032291  -0.010493
    35  H    0.000000   0.000000   0.000000   0.000000  -0.000005  -0.000142
    36  H    0.000000   0.000000   0.000000   0.000007  -0.000012  -0.000185
    37  H    0.000001  -0.000027  -0.000221  -0.000002   0.000181  -0.006646
    38  H    0.000000  -0.000034  -0.000239   0.000005   0.000427  -0.006592
    39  H    0.000000   0.000000  -0.000032   0.000023  -0.000058  -0.003961
    40  H   -0.000001   0.000000  -0.000036   0.000027  -0.000175  -0.001294
    41  H   -0.000001   0.000000   0.000015   0.000000   0.000014  -0.000037
    42  H    0.000000   0.000000   0.000000   0.000000   0.000000   0.000000
    43  H    0.000000   0.000000   0.000000   0.000000   0.000000   0.000000
    44  H    0.000000   0.000000   0.000000   0.000000   0.000000   0.000000
    45  H    0.000000   0.000000   0.000000   0.000000   0.000000   0.000000
    46  H    0.000000   0.000000   0.000000   0.000000   0.000000   0.000000
    47  H    0.000000   0.000000   0.000000   0.000000   0.000000   0.000000
    48  H    0.000000   0.000000   0.000000   0.000000   0.000000   0.000000
              7          8          9         10         11         12
     1  S    0.000000   0.000000   0.000000  -0.000030  -0.000034  -0.000133
     2  C   -0.000004   0.000002   0.000001   0.000133   0.000181  -0.000917
     3  C    0.000000   0.000002   0.000000  -0.000427  -0.000402   0.005512
     4  C   -0.000061  -0.000497  -0.000521  -0.001797  -0.001845  -0.001659
     5  C    0.000071  -0.000105  -0.000004  -0.005024  -0.004946  -0.063080
     6  N    0.000227   0.006212   0.006379  -0.050442  -0.050675   0.278372
     7  C    5.014689   0.452255   0.447710   0.023175   0.015460  -0.080887
     8  C    0.452255   4.892311  -0.010129   0.421251  -0.074762   0.018762
     9  C    0.447710  -0.010129   4.903051  -0.078812   0.445086   0.013320
    10  C    0.023175   0.421251  -0.078812   4.799930  -0.008608   0.447615
    11  C    0.015460  -0.074762   0.445086  -0.008608   4.775252   0.458019
    12  C   -0.080887   0.018762   0.013320   0.447615   0.458019   5.099272
    13  C   -0.000011   0.000225   0.000082  -0.005347  -0.005103  -0.067564
    14  C   -0.000065  -0.000500  -0.000133  -0.006112  -0.004031   0.002887
    15  O    0.000000   0.000000   0.000000  -0.000088  -0.000092   0.000490
    16  C    0.000000   0.000000   0.000000  -0.000009  -0.000010   0.000022
    17  N   -0.000001  -0.000002   0.000001   0.000086   0.000095   0.000205
    18  C    0.000000   0.000000   0.000000   0.000000   0.000000   0.000000
    19  N    0.000000   0.000000   0.000000  -0.000039  -0.000001   0.000006
    20  N    0.000000   0.000000   0.000000   0.000000   0.000000   0.000000
    21  C    0.000000   0.000000   0.000000   0.000000  -0.000001  -0.000007
    22  C    0.000000   0.000000   0.000000   0.000000   0.000000   0.000000
    23  C    0.000000   0.000000   0.000000   0.000000   0.000000   0.000000
    24  C    0.000000   0.000000   0.000000   0.000000   0.000000   0.000000
    25  C    0.001137   0.000024  -0.000069   0.000000   0.000001   0.000000
    26  N    0.005571   0.000224  -0.000136  -0.000001   0.000000   0.000000
    27  C    0.009074  -0.000190   0.000391   0.000001  -0.000024   0.000001
    28  C   -0.086014  -0.017631   0.007478   0.000651  -0.000044  -0.000114
    29  C   -0.065702   0.008171  -0.017355  -0.000249   0.000391  -0.000005
    30  C    0.308043  -0.092367  -0.083955   0.008544   0.009685   0.000260
    31  O   -0.007050  -0.003840  -0.000007   0.000380  -0.000002  -0.000009
    32  H    0.000000   0.000000   0.000000  -0.000002  -0.000002   0.000010
    33  H    0.000000   0.000000   0.000000  -0.000006  -0.000006  -0.000319
    34  H    0.000267   0.000177   0.000139  -0.002460  -0.002668   0.009966
    35  H   -0.035732   0.381678   0.012545  -0.040329  -0.000778   0.010092
    36  H   -0.041777   0.012296   0.378461  -0.000440  -0.039764   0.010107
    37  H    0.010227  -0.047018  -0.001095   0.389429   0.012936  -0.045505
    38  H    0.010552  -0.001198  -0.047263   0.012920   0.383089  -0.042428
    39  H    0.000044   0.000401  -0.000229   0.000819  -0.001050   0.006883
    40  H   -0.000019  -0.000103   0.000064  -0.000043   0.001197   0.006216
    41  H    0.000000   0.000000  -0.000001   0.000001  -0.000005  -0.000010
    42  H    0.000000   0.000000   0.000000   0.000000   0.000000   0.000000
    43  H    0.000000   0.000000   0.000000   0.000000   0.000000   0.000000
    44  H    0.000000   0.000000   0.000000   0.000000   0.000000   0.000000
    45  H    0.000051   0.000001  -0.000001   0.000000   0.000000   0.000000
    46  H   -0.000340  -0.000046   0.000011  -0.000001   0.000000   0.000000
    47  H   -0.000353   0.000003   0.000027   0.000000   0.000000   0.000000
    48  H   -0.028119  -0.000288   0.007406  -0.000033   0.000818  -0.000070
             13         14         15         16         17         18
     1  S    0.000598   0.000023   0.000734   0.000000   0.000000   0.000000
     2  C    0.000248   0.000000  -0.000020   0.000000   0.000000   0.000000
     3  C   -0.012955   0.001489   0.007794  -0.000008  -0.000008   0.000000
     4  C    0.003892  -0.000399   0.000178   0.000000   0.000001   0.000000
     5  C   -0.051381   0.004477  -0.016038   0.000004  -0.000027   0.000000
     6  N    0.395635  -0.070984  -0.066157   0.000407   0.001390  -0.000009
     7  C   -0.000011  -0.000065   0.000000   0.000000  -0.000001   0.000000
     8  C    0.000225  -0.000500   0.000000   0.000000  -0.000002   0.000000
     9  C    0.000082  -0.000133   0.000000   0.000000   0.000001   0.000000
    10  C   -0.005347  -0.006112  -0.000088  -0.000009   0.000086   0.000000
    11  C   -0.005103  -0.004031  -0.000092  -0.000010   0.000095   0.000000
    12  C   -0.067564   0.002887   0.000490   0.000022   0.000205   0.000000
    13  C    4.622743   0.314700   0.737302   0.000763  -0.040960  -0.000883
    14  C    0.314700   4.732868  -0.081237  -0.068509   0.365328   0.010260
    15  O    0.737302  -0.081237   7.621153   0.008024  -0.003573  -0.000841
    16  C    0.000763  -0.068509   0.008024   5.054395   0.322581   0.280875
    17  N   -0.040960   0.365328  -0.003573   0.322581   6.510848  -0.006033
    18  C   -0.000883   0.010260  -0.000841   0.280875  -0.006033   4.983177
    19  N   -0.000422  -0.044504  -0.000007  -0.091777   0.292056  -0.125929
    20  N   -0.000312   0.006325   0.000012  -0.072398  -0.113760   0.508175
    21  C    0.001696  -0.005134   0.004965   0.397329  -0.058213  -0.016118
    22  C    0.000066  -0.000329   0.000044   0.025039   0.002432  -0.077939
    23  C    0.000021  -0.000451  -0.000021   0.013352   0.007222   0.427857
    24  C   -0.000002   0.000042   0.000016  -0.088463   0.000539   0.028215
    25  C    0.000000   0.000000   0.000000   0.000000   0.000000   0.000000
    26  N    0.000000   0.000000   0.000000   0.000000   0.000000   0.000000
    27  C    0.000000   0.000000   0.000000   0.000000   0.000000   0.000000
    28  C    0.000000   0.000000   0.000000   0.000000   0.000000   0.000000
    29  C    0.000000   0.000000   0.000000   0.000000   0.000000   0.000000
    30  C    0.000000   0.000004   0.000000   0.000000   0.000000   0.000000
    31  O    0.000000   0.000000   0.000000   0.000000   0.000000   0.000000
    32  H    0.000005   0.000000   0.000000   0.000000   0.000000   0.000000
    33  H   -0.001984   0.000847   0.028490  -0.000001  -0.000019   0.000000
    34  H   -0.000687   0.000024  -0.000003   0.000000   0.000000   0.000000
    35  H   -0.000009   0.000012   0.000000   0.000000   0.000000   0.000000
    36  H   -0.000008   0.000004   0.000000   0.000000   0.000000   0.000000
    37  H    0.000028  -0.000951  -0.000115   0.000001  -0.000002   0.000000
    38  H   -0.000096  -0.000953  -0.000123  -0.000001  -0.000006   0.000000
    39  H   -0.002458   0.342683   0.001362   0.009625  -0.023113  -0.000657
    40  H   -0.022914   0.353452   0.000457  -0.001122  -0.021100   0.000974
    41  H    0.000365   0.002172   0.004020  -0.028206  -0.005992   0.009645
    42  H    0.000000  -0.000014  -0.000005   0.010651  -0.000135  -0.000719
    43  H    0.000000   0.000002   0.000000   0.016014  -0.000010  -0.041086
    44  H    0.000000  -0.000001   0.000000  -0.000893   0.000003   0.010764
    45  H    0.000000   0.000000   0.000000   0.000000   0.000000   0.000000
    46  H    0.000000   0.000000   0.000000   0.000000   0.000000   0.000000
    47  H    0.000000   0.000000   0.000000   0.000000   0.000000   0.000000
    48  H    0.000000   0.000000   0.000000   0.000000   0.000000   0.000000
             19         20         21         22         23         24
     1  S    0.000000   0.000000   0.000000   0.000000   0.000000   0.000000
     2  C    0.000000   0.000000   0.000000   0.000000   0.000000   0.000000
     3  C    0.000000   0.000000  -0.000004   0.000000   0.000000   0.000000
     4  C    0.000000   0.000000   0.000000   0.000000   0.000000   0.000000
     5  C   -0.000001   0.000000   0.000000   0.000000   0.000000   0.000000
     6  N   -0.000018   0.000000  -0.000023  -0.000001   0.000000   0.000000
     7  C    0.000000   0.000000   0.000000   0.000000   0.000000   0.000000
     8  C    0.000000   0.000000   0.000000   0.000000   0.000000   0.000000
     9  C    0.000000   0.000000   0.000000   0.000000   0.000000   0.000000
    10  C   -0.000039   0.000000   0.000000   0.000000   0.000000   0.000000
    11  C   -0.000001   0.000000  -0.000001   0.000000   0.000000   0.000000
    12  C    0.000006   0.000000  -0.000007   0.000000   0.000000   0.000000
    13  C   -0.000422  -0.000312   0.001696   0.000066   0.000021  -0.000002
    14  C   -0.044504   0.006325  -0.005134  -0.000329  -0.000451   0.000042
    15  O   -0.000007   0.000012   0.004965   0.000044  -0.000021   0.000016
    16  C   -0.091777  -0.072398   0.397329   0.025039   0.013352  -0.088463
    17  N    0.292056  -0.113760  -0.058213   0.002432   0.007222   0.000539
    18  C   -0.125929   0.508175  -0.016118  -0.077939   0.427857   0.028215
    19  N    6.543021   0.460293   0.003418  -0.000126   0.000573   0.000117
    20  N    0.460293   6.431809   0.011542  -0.000665  -0.050767   0.004312
    21  C    0.003418   0.011542   4.847259   0.515173  -0.071274   0.006036
    22  C   -0.000126  -0.000665   0.515173   4.720015   0.013148   0.464815
    23  C    0.000573  -0.050767  -0.071274   0.013148   4.779108   0.498156
    24  C    0.000117   0.004312   0.006036   0.464815   0.498156   4.761052
    25  C    0.000000   0.000000   0.000000   0.000000   0.000000   0.000000
    26  N    0.000000   0.000000   0.000000   0.000000   0.000000   0.000000
    27  C    0.000000   0.000000   0.000000   0.000000   0.000000   0.000000
    28  C    0.000000   0.000000   0.000000   0.000000   0.000000   0.000000
    29  C    0.000000   0.000000   0.000000   0.000000   0.000000   0.000000
    30  C    0.000000   0.000000   0.000000   0.000000   0.000000   0.000000
    31  O    0.000000   0.000000   0.000000   0.000000   0.000000   0.000000
    32  H    0.000000   0.000000   0.000000   0.000000   0.000000   0.000000
    33  H   -0.000001   0.000000   0.000010   0.000000   0.000000   0.000000
    34  H    0.000000   0.000000   0.000000   0.000000   0.000000   0.000000
    35  H    0.000000   0.000000   0.000000   0.000000   0.000000   0.000000
    36  H    0.000000   0.000000   0.000000   0.000000   0.000000   0.000000
    37  H   -0.000004   0.000000   0.000000   0.000000   0.000000   0.000000
    38  H    0.000000   0.000000  -0.000001   0.000000   0.000000   0.000000
    39  H    0.020933   0.000171   0.000271   0.000015  -0.000018   0.000002
    40  H    0.001884  -0.000347   0.001697   0.000014   0.000025  -0.000018
    41  H   -0.000259  -0.000245   0.365548  -0.044641   0.000044   0.008623
    42  H    0.000005  -0.000008  -0.046934   0.385717   0.010971  -0.050408
    43  H   -0.000552  -0.000910  -0.001340   0.010117   0.376608  -0.058977
    44  H    0.000008  -0.000097   0.011319  -0.051199  -0.048439   0.388974
    45  H    0.000000   0.000000   0.000000   0.000000   0.000000   0.000000
    46  H    0.000000   0.000000   0.000000   0.000000   0.000000   0.000000
    47  H    0.000000   0.000000   0.000000   0.000000   0.000000   0.000000
    48  H    0.000000   0.000000   0.000000   0.000000   0.000000   0.000000
[...]
    28  C    0.000030   0.000005   0.000000   0.000000   0.000000   0.000000
    29  C    0.000002   0.000009   0.000000   0.000000   0.000000   0.000000
    30  C   -0.000298  -0.000302  -0.000002  -0.000001   0.000000   0.000000
    31  O   -0.000013   0.000000   0.000001   0.000000   0.000000   0.000000
    32  H   -0.000001  -0.000001   0.000000   0.000000   0.000000   0.000000
    33  H    0.000001   0.000000  -0.000032  -0.000040   0.000036   0.000000
    34  H    0.000052   0.000097   0.000009   0.000007   0.000000   0.000000
    35  H   -0.015263   0.000045   0.000009   0.000001   0.000000   0.000000
    36  H    0.000067  -0.016381  -0.000004   0.000029   0.000000   0.000000
    37  H    0.729922  -0.000206   0.001097   0.000043   0.000000   0.000000
    38  H   -0.000206   0.743393   0.000047   0.001265   0.000016   0.000000
    39  H    0.001097   0.000047   0.604880  -0.021356  -0.000052  -0.000001
    40  H    0.000043   0.001265  -0.021356   0.649653   0.000520   0.000006
    41  H    0.000000   0.000016  -0.000052   0.000520   0.735990  -0.015123
    42  H    0.000000   0.000000  -0.000001   0.000006  -0.015123   0.748879
    43  H    0.000000   0.000000  -0.000002   0.000001   0.000062  -0.000166
    44  H    0.000000   0.000000   0.000000   0.000000  -0.000228  -0.015869
    45  H    0.000000   0.000000   0.000000   0.000000   0.000000   0.000000
    46  H    0.000000   0.000000   0.000000   0.000000   0.000000   0.000000
    47  H    0.000000   0.000000   0.000000   0.000000   0.000000   0.000000
    48  H    0.000000   0.000062   0.000000   0.000000   0.000000   0.000000
             43         44         45         46         47         48
     1  S    0.000000   0.000000   0.000000   0.000000   0.000000   0.000000
     2  C    0.000000   0.000000   0.000000   0.000000   0.000000   0.000000
     3  C    0.000000   0.000000   0.000000   0.000000   0.000000   0.000000
     4  C    0.000000   0.000000   0.000000   0.000000   0.000000   0.000000
     5  C    0.000000   0.000000   0.000000   0.000000   0.000000   0.000000
     6  N    0.000000   0.000000   0.000000   0.000000   0.000000   0.000000
     7  C    0.000000   0.000000   0.000051  -0.000340  -0.000353  -0.028119
     8  C    0.000000   0.000000   0.000001  -0.000046   0.000003  -0.000288
     9  C    0.000000   0.000000  -0.000001   0.000011   0.000027   0.007406
    10  C    0.000000   0.000000   0.000000  -0.000001   0.000000  -0.000033
    11  C    0.000000   0.000000   0.000000   0.000000   0.000000   0.000818
    12  C    0.000000   0.000000   0.000000   0.000000   0.000000  -0.000070
    13  C    0.000000   0.000000   0.000000   0.000000   0.000000   0.000000
    14  C    0.000002  -0.000001   0.000000   0.000000   0.000000   0.000000
    15  O    0.000000   0.000000   0.000000   0.000000   0.000000   0.000000
    16  C    0.016014  -0.000893   0.000000   0.000000   0.000000   0.000000
    17  N   -0.000010   0.000003   0.000000   0.000000   0.000000   0.000000
    18  C   -0.041086   0.010764   0.000000   0.000000   0.000000   0.000000
    19  N   -0.000552   0.000008   0.000000   0.000000   0.000000   0.000000
    20  N   -0.000910  -0.000097   0.000000   0.000000   0.000000   0.000000
    21  C   -0.001340   0.011319   0.000000   0.000000   0.000000   0.000000
    22  C    0.010117  -0.051199   0.000000   0.000000   0.000000   0.000000
    23  C    0.376608  -0.048439   0.000000   0.000000   0.000000   0.000000
    24  C   -0.058977   0.388974   0.000000   0.000000   0.000000   0.000000
    25  C    0.000000   0.000000   0.378794  -0.028628  -0.049917   0.010468
    26  N    0.000000   0.000000  -0.030586   0.336112   0.004097  -0.000601
    27  C    0.000000   0.000000  -0.029823   0.009119   0.390530  -0.049758
    28  C    0.000000   0.000000   0.003608  -0.012350   0.000808   0.008607
    29  C    0.000000   0.000000   0.007457  -0.001017  -0.027805   0.379144
    30  C    0.000000   0.000000  -0.000938   0.014980   0.009834  -0.026919
    31  O    0.000000   0.000000  -0.000262   0.012287   0.000004  -0.000090
    32  H    0.000000   0.000000   0.000000   0.000000   0.000000   0.000000
    33  H    0.000000   0.000000   0.000000   0.000000   0.000000   0.000000
    34  H    0.000000   0.000000   0.000000   0.000000   0.000000   0.000004
    35  H    0.000000   0.000000   0.000002  -0.000011   0.000000  -0.000054
    36  H    0.000000   0.000000   0.000000   0.000000   0.000054  -0.000364
    37  H    0.000000   0.000000   0.000000   0.000000   0.000000   0.000000
    38  H    0.000000   0.000000   0.000000   0.000000   0.000000   0.000062
    39  H   -0.000002   0.000000   0.000000   0.000000   0.000000   0.000000
    40  H    0.000001   0.000000   0.000000   0.000000   0.000000   0.000000
    41  H    0.000062  -0.000228   0.000000   0.000000   0.000000   0.000000
    42  H   -0.000166  -0.015869   0.000000   0.000000   0.000000   0.000000
    43  H    0.739326  -0.015423   0.000000   0.000000   0.000000   0.000000
    44  H   -0.015423   0.749836   0.000000   0.000000   0.000000   0.000000
    45  H    0.000000   0.000000   0.674960  -0.015204  -0.010110  -0.000395
    46  H    0.000000   0.000000  -0.015204   0.585417  -0.000189   0.000120
    47  H    0.000000   0.000000  -0.010110  -0.000189   0.713472  -0.013480
    48  H    0.000000   0.000000  -0.000395   0.000120  -0.013480   0.730497
 Mulliken atomic charges:
              1
     1  S    0.151229
     2  C   -0.104311
     3  C   -0.124243
     4  C    0.041738
     5  C    0.155064
     6  N   -0.242410
     7  C    0.047581
     8  C    0.054683
     9  C    0.017557
    10  C    0.095363
    11  C    0.092645
    12  C   -0.065313
    13  C    0.134727
    14  C    0.146708
    15  O   -0.246723
    16  C    0.212314
    17  N   -0.229831
    18  C    0.010272
    19  N   -0.058674
    20  N   -0.183130
    21  C    0.032789
    22  C    0.038308
    23  C    0.043887
    24  C    0.036971
    25  C    0.140833
    26  N   -0.056645
    27  C   -0.041290
    28  C    0.137164
    29  C    0.091307
    30  C   -0.087378
    31  O   -0.262184
    32  H    0.009716
    33  H    0.034319
    34  H   -0.010058
    35  H   -0.011632
    36  H   -0.030109
    37  H   -0.026648
    38  H   -0.036109
    39  H    0.063752
    40  H    0.051040
    41  H   -0.032269
    42  H   -0.026846
    43  H   -0.023664
    44  H   -0.028755
    45  H    0.022446
    46  H    0.099740
    47  H   -0.016976
    48  H   -0.016953
 Sum of Mulliken atomic charges =   0.00000
 Mulliken charges with hydrogens summed into heavy atoms:
              1
     1  S    0.151229
     2  C   -0.094595
     3  C   -0.089925
     4  C    0.031681
     5  C    0.155064
     6  N   -0.242410
     7  C    0.047581
     8  C    0.043051
     9  C   -0.012553
    10  C    0.068715
    11  C    0.056537
    12  C   -0.065313
    13  C    0.134727
    14  C    0.261501
    15  O   -0.246723
    16  C    0.212314
    17  N   -0.229831
    18  C    0.010272
    19  N   -0.058674
    20  N   -0.183130
    21  C    0.000520
    22  C    0.011462
    23  C    0.020223
    24  C    0.008216
    25  C    0.163279
    26  N    0.043095
    27  C   -0.058266
    28  C    0.137164
    29  C    0.074354
    30  C   -0.087378
    31  O   -0.262184
 Sum of Mulliken charges with hydrogens summed into heavy atoms =   0.00000
 Electronic spatial extent (au):  <R**2>=          18229.0995
 Charge=              0.0000 electrons
 Dipole moment (field-independent basis, Debye):
    X=              8.7704    Y=              0.6531    Z=              5.4640  Tot=             10.3538
 Quadrupole moment (field-independent basis, Debye-Ang):
   XX=           -138.1717   YY=           -188.5764   ZZ=           -185.5423
   XY=            -11.8869   XZ=             -2.2255   YZ=             -8.9776
 Traceless Quadrupole moment (field-independent basis, Debye-Ang):
   XX=             32.5917   YY=            -17.8129   ZZ=            -14.7788
   XY=            -11.8869   XZ=             -2.2255   YZ=             -8.9776
 Octapole moment (field-independent basis, Debye-Ang**2):
  XXX=            392.8831  YYY=             33.6157  ZZZ=             19.4977  XYY=             78.2618
  XXY=           -152.1601  XXZ=             90.8902  XZZ=             19.4133  YZZ=             18.2232
  YYZ=             14.8198  XYZ=             20.6421
 Hexadecapole moment (field-independent basis, Debye-Ang**3):
 XXXX=         -12833.2129 YYYY=          -6889.3358 ZZZZ=          -1283.6911 XXXY=          -1012.6646
 XXXZ=            -53.7935 YYYX=           -169.8084 YYYZ=             -9.5153 ZZZX=            -30.9357
 ZZZY=            -23.7641 XXYY=          -3516.1071 XXZZ=          -2912.4941 YYZZ=          -1535.6747
 XXYZ=            -65.4566 YYXZ=            -77.6464 ZZXY=            -53.0697
 N-N= 2.897991099188D+03 E-N=-9.791878318614D+03  KE= 1.699646366734D+03
 No NMR shielding tensors so no spin-rotation constants.
 Leave Link  601 at Sat Sep 10 09:24:35 2022, MaxMem=  209715200 cpu:       3.7
 (Enter /opt/gaussian/l602.exe)
 Breneman (CHELPG) radii used.
 Read replacement radii for each type of atom:
 Rad(35) =   1.900000000000D+00
 Atom Element Radius
    1    16    2.00
    2     6    1.50
    3     6    1.50
    4     6    1.50
    5     6    1.50
    6     7    1.70
    7     6    1.50
    8     6    1.50
    9     6    1.50
   10     6    1.50
   11     6    1.50
   12     6    1.50
   13     6    1.50
   14     6    1.50
   15     8    1.70
   16     6    1.50
   17     7    1.70
   18     6    1.50
   19     7    1.70
   20     7    1.70
   21     6    1.50
   22     6    1.50
   23     6    1.50
   24     6    1.50
   25     6    1.50
   26     7    1.70
   27     6    1.50
   28     6    1.50
   29     6    1.50
   30     6    1.50
   31     8    1.70
   32     1    1.45
   33     1    1.45
   34     1    1.45
   35     1    1.45
   36     1    1.45
   37     1    1.45
   38     1    1.45
   39     1    1.45
   40     1    1.45
   41     1    1.45
   42     1    1.45
   43     1    1.45
   44     1    1.45
   45     1    1.45
   46     1    1.45
   47     1    1.45
   48     1    1.45
 Generate Potential Derived Charges using the Breneman model, NDens= 1.
 Grid spacing= 0.300 Box extension= 2.800
 NStep X,Y,Z=   72     53     37   Total possible points=      141192
 Number of Points to Fit=   27480

 **********************************************************************

            Electrostatic Properties Using The SCF Density

 **********************************************************************

       Atomic Center    1 is at  -1.558581  5.322991 -0.210621
       Atomic Center    2 is at   0.145459  5.034331 -0.091631
       Atomic Center    3 is at  -1.902401  3.620461 -0.236741
       Atomic Center    4 is at   0.433169  3.697241 -0.073901
       Atomic Center    5 is at  -0.744851  2.873711 -0.156741
       Atomic Center    6 is at  -0.656581  1.446991 -0.154171
       Atomic Center    7 is at   3.237929 -0.282239  0.163569
       Atomic Center    8 is at   2.659939 -0.021729 -1.096431
       Atomic Center    9 is at   2.479659  0.029161  1.311189
       Atomic Center   10 is at   1.391399  0.550411 -1.197711
       Atomic Center   11 is at   1.210789  0.597321  1.210949
       Atomic Center   12 is at   0.657999  0.858451 -0.047691
       Atomic Center   13 is at  -1.781581  0.640121 -0.237041
       Atomic Center   14 is at  -1.520141 -0.878309 -0.190431
       Atomic Center   15 is at  -2.918101  1.074201 -0.315331
       Atomic Center   16 is at  -3.852351 -1.818429  0.277449
       Atomic Center   17 is at  -2.713851 -1.640729 -0.460481
       Atomic Center   18 is at  -4.611991 -2.717409 -0.501691
       Atomic Center   19 is at  -2.784001 -2.376429 -1.613011
       Atomic Center   20 is at  -3.901871 -3.015539 -1.648881
       Atomic Center   21 is at  -4.310091 -1.330789  1.512809
       Atomic Center   22 is at  -5.551011 -1.789019  1.936599
       Atomic Center   23 is at  -5.869561 -3.165569 -0.060101
       Atomic Center   24 is at  -6.322851 -2.694059  1.163779
       Atomic Center   25 is at   7.167369 -1.978429  0.621029
       Atomic Center   26 is at   6.396569 -2.274199 -0.461001
       Atomic Center   27 is at   6.698579 -1.111619  1.567909
       Atomic Center   28 is at   5.118209 -1.753729 -0.741371
       Atomic Center   29 is at   5.403079 -0.555529  1.384259
       Atomic Center   30 is at   4.601009 -0.851359  0.299129
       Atomic Center   31 is at   4.564469 -2.084889 -1.786181
       Atomic Center   32 is at   0.845959  5.864911 -0.043181
       Atomic Center   33 is at  -2.919521  3.259511 -0.313851
       Atomic Center   34 is at   1.446549  3.307361 -0.006991
       Atomic Center   35 is at   3.209849 -0.281829 -1.997771
       Atomic Center   36 is at   2.875529 -0.198259  2.302589
       Atomic Center   37 is at   0.961229  0.759181 -2.179331
       Atomic Center   38 is at   0.638619  0.834671  2.110099
       Atomic Center   39 is at  -0.783901 -1.182829 -0.944551
       Atomic Center   40 is at  -1.110131 -1.151839  0.795619
       Atomic Center   41 is at  -3.736681 -0.612609  2.098999
       Atomic Center   42 is at  -5.950541 -1.435049  2.889699
       Atomic Center   43 is at  -6.453641 -3.858389 -0.667731
       Atomic Center   44 is at  -7.294451 -3.017409  1.542989
       Atomic Center   45 is at   8.145229 -2.459359  0.668489
       Atomic Center   46 is at   6.739519 -2.907009 -1.178951
       Atomic Center   47 is at   7.306729 -0.853549  2.433059
       Atomic Center   48 is at   5.037569  0.151461  2.132519
   27480 points will be used for fitting atomic charges
 Fitting point charges to electrostatic potential
 Charges from ESP fit, RMS=   0.00411 RRMS=   0.20947:
 Charge=   0.00000 Dipole=     8.7535     0.6883     5.4892 Tot=    10.3551
              1
     1  S    0.018048
     2  C   -0.193698
     3  C   -0.309307
     4  C   -0.116184
     5  C    0.263073
     6  N   -0.445660
     7  C    0.103686
     8  C   -0.167383
     9  C   -0.182158
    10  C   -0.053408
    11  C   -0.081087
    12  C    0.311355
    13  C    0.670916
    14  C   -0.113624
    15  O   -0.549044
    16  C   -0.099439
    17  N    0.348228
    18  C    0.418536
    19  N   -0.209628
    20  N   -0.356477
    21  C   -0.118823
    22  C   -0.106447
    23  C   -0.272417
    24  C   -0.049572
    25  C    0.010071
    26  N   -0.305604
    27  C   -0.178795
    28  C    0.522436
    29  C   -0.020669
    30  C   -0.114729
    31  O   -0.527942
    32  H    0.175132
    33  H    0.245418
    34  H    0.038331
    35  H    0.137115
    36  H    0.105206
    37  H    0.075613
    38  H    0.080843
    39  H    0.005464
    40  H    0.012266
    41  H    0.107057
    42  H    0.088029
    43  H    0.132952
    44  H    0.085820
    45  H    0.121583
    46  H    0.294123
    47  H    0.105239
    48  H    0.095556
 Charges from ESP fit with hydrogens summed into heavy atoms:
              1
     1  S    0.018048
     2  C   -0.018566
     3  C   -0.063889
     4  C   -0.077853
     5  C    0.263073
     6  N   -0.445660
     7  C    0.103686
     8  C   -0.030269
     9  C   -0.076952
    10  C    0.022205
    11  C   -0.000245
    12  C    0.311355
    13  C    0.670916
    14  C   -0.095894
    15  O   -0.549044
    16  C   -0.099439
    17  N    0.348228
    18  C    0.418536
    19  N   -0.209628
    20  N   -0.356477
    21  C   -0.011766
    22  C   -0.018418
    23  C   -0.139465
    24  C    0.036248
    25  C    0.131654
    26  N   -0.011481
    27  C   -0.073555
    28  C    0.522436
    29  C    0.074887
    30  C   -0.114729
    31  O   -0.527942
    32  H    0.000000
    33  H    0.000000
    34  H    0.000000
    35  H    0.000000
    36  H    0.000000
    37  H    0.000000
    38  H    0.000000
    39  H    0.000000
    40  H    0.000000
    41  H    0.000000
    42  H    0.000000
    43  H    0.000000
    44  H    0.000000
    45  H    0.000000
    46  H    0.000000
    47  H    0.000000
    48  H    0.000000
 -----------------------------------------------------------------

              Electrostatic Properties (Atomic Units)

 -----------------------------------------------------------------
    Center     Electric         -------- Electric Field --------
               Potential          X             Y             Z
 -----------------------------------------------------------------
    1 Atom    -59.191478
    2 Atom    -14.731790
    3 Atom    -14.742689
    4 Atom    -14.750047
    5 Atom    -14.705157
    6 Atom    -18.311661
    7 Atom    -14.722121
    8 Atom    -14.741818
    9 Atom    -14.733017
   10 Atom    -14.737105
   11 Atom    -14.732902
   12 Atom    -14.697554
   13 Atom    -14.637437
   14 Atom    -14.688971
   15 Atom    -22.363459
   16 Atom    -14.720041
   17 Atom    -18.299220
   18 Atom    -14.742679
   19 Atom    -18.336918
   20 Atom    -18.375035
   21 Atom    -14.746919
   22 Atom    -14.750779
   23 Atom    -14.752873
   24 Atom    -14.756083
   25 Atom    -14.675406
   26 Atom    -18.296750
   27 Atom    -14.729870
   28 Atom    -14.636685
   29 Atom    -14.717004
   30 Atom    -14.722129
   31 Atom    -22.372746
   32 Atom     -1.066716
   33 Atom     -1.082206
   34 Atom     -1.079944
   35 Atom     -1.090822
   36 Atom     -1.074066
   37 Atom     -1.076536
   38 Atom     -1.070221
   39 Atom     -1.064519
   40 Atom     -1.064061
   41 Atom     -1.086717
   42 Atom     -1.096382
   43 Atom     -1.093982
   44 Atom     -1.099611
   45 Atom     -1.037186
   46 Atom     -0.968644
   47 Atom     -1.062544
   48 Atom     -1.064788
 -----------------------------------------------------------------
 Leave Link  602 at Sat Sep 10 09:24:49 2022, MaxMem=  209715200 cpu:     102.0
 (Enter /opt/gaussian/l9999.exe)
 1\1\GINC-LQCAPF-6\SP\RB3LYP\CC-pVDZ\C23H17N5O2S1\LQCAPF-6\10-Sep-2022\
 0\\#p b3lyp/cc-pvdz pop=(chelpg,readradii)\\Mol17.log\\0,1\S,0,-1.5585
 8,5.32299,-0.21062\C,0,0.14546,5.03433,-0.09163\C,0,-1.9024,3.62046,-0
 .23674\C,0,0.43317,3.69724,-0.0739\C,0,-0.74485,2.87371,-0.15674\N,0,-
 0.65658,1.44699,-0.15417\C,0,3.23793,-0.28224,0.16357\C,0,2.65994,-0.0
 2173,-1.09643\C,0,2.47966,0.02916,1.31119\C,0,1.3914,0.55041,-1.19771\
 C,0,1.21079,0.59732,1.21095\C,0,0.658,0.85845,-0.04769\C,0,-1.78158,0.
 64012,-0.23704\C,0,-1.52014,-0.87831,-0.19043\O,0,-2.9181,1.0742,-0.31
 533\C,0,-3.85235,-1.81843,0.27745\N,0,-2.71385,-1.64073,-0.46048\C,0,-
 4.61199,-2.71741,-0.50169\N,0,-2.784,-2.37643,-1.61301\N,0,-3.90187,-3
 .01554,-1.64888\C,0,-4.31009,-1.33079,1.51281\C,0,-5.55101,-1.78902,1.
 9366\C,0,-5.86956,-3.16557,-0.0601\C,0,-6.32285,-2.69406,1.16378\C,0,7
 .16737,-1.97843,0.62103\N,0,6.39657,-2.2742,-0.461\C,0,6.69858,-1.1116
 2,1.56791\C,0,5.11821,-1.75373,-0.74137\C,0,5.40308,-0.55553,1.38426\C
 ,0,4.60101,-0.85136,0.29913\O,0,4.56447,-2.08489,-1.78618\H,0,0.84596,
 5.86491,-0.04318\H,0,-2.91952,3.25951,-0.31385\H,0,1.44655,3.30736,-0.
 00699\H,0,3.20985,-0.28183,-1.99777\H,0,2.87553,-0.19826,2.30259\H,0,0
 .96123,0.75918,-2.17933\H,0,0.63862,0.83467,2.1101\H,0,-0.7839,-1.1828
 3,-0.94455\H,0,-1.11013,-1.15184,0.79562\H,0,-3.73668,-0.61261,2.099\H
 ,0,-5.95054,-1.43505,2.8897\H,0,-6.45364,-3.85839,-0.66773\H,0,-7.2944
 5,-3.01741,1.54299\H,0,8.14523,-2.45936,0.66849\H,0,6.73952,-2.90701,-
 1.17895\H,0,7.30673,-0.85355,2.43306\H,0,5.03757,0.15146,2.13252\\Vers
 ion=EM64L-G09RevC.01\State=1-A\HF=-1709.1578073\RMSD=4.356e-09\Dipole=
 3.4505413,0.2569413,2.1496931\Quadrupole=24.2311617,-13.2434836,-10.98
 76781,-8.8376033,-1.6545779,-6.6746532\PG=C01 [X(C23H17N5O2S1)]\\@


 THE ONLY DIFFERENCE BETWEEN ECCENTRICS AND JOGGERS
 IS THAT JOGGERS WEAR SWEATBANDS WHEN THEY RUN IN THE RAIN.
 Job cpu time:  0 days  1 hours 32 minutes 26.8 seconds.
 File lengths (MBytes):  RWF=    152 Int=      0 D2E=      0 Chk=     11 Scr=      1
 Normal termination of Gaussian 09 at Sat Sep 10 09:24:49 2022.
