 Entering Gaussian System, Link 0=g09
 Input=Mol24.gjf
 Output=Mol24.log
 Initial command:
 /opt/gaussian/l1.exe /home/scr/lqcapf-6/Gau-561487.inp -scrdir=/home/scr/lqcapf-6/
 Entering Link 1 = /opt/gaussian/l1.exe PID=    561489.
  
 Copyright (c) 1988,1990,1992,1993,1995,1998,2003,2009,2011,
            Gaussian, Inc.  All Rights Reserved.
  
 This is part of the Gaussian(R) 09 program.  It is based on
 the Gaussian(R) 03 system (copyright 2003, Gaussian, Inc.),
 the Gaussian(R) 98 system (copyright 1998, Gaussian, Inc.),
 the Gaussian(R) 94 system (copyright 1995, Gaussian, Inc.),
 the Gaussian 92(TM) system (copyright 1992, Gaussian, Inc.),
 the Gaussian 90(TM) system (copyright 1990, Gaussian, Inc.),
 the Gaussian 88(TM) system (copyright 1988, Gaussian, Inc.),
 the Gaussian 86(TM) system (copyright 1986, Carnegie Mellon
 University), and the Gaussian 82(TM) system (copyright 1983,
 Carnegie Mellon University). Gaussian is a federally registered
 trademark of Gaussian, Inc.
  
 This software contains proprietary and confidential information,
 including trade secrets, belonging to Gaussian, Inc.
  
 This software is provided under written license and may be
 used, copied, transmitted, or stored only in accord with that
 written license.
  
 The following legend is applicable only to US Government
 contracts under FAR:
  
                    RESTRICTED RIGHTS LEGEND
  
 Use, reproduction and disclosure by the US Government is
 subject to restrictions as set forth in subparagraphs (a)
 and (c) of the Commercial Computer Software - Restricted
 Rights clause in FAR 52.227-19.
  
 Gaussian, Inc.
 340 Quinnipiac St., Bldg. 40, Wallingford CT 06492
  
  
 ---------------------------------------------------------------
 Warning -- This program may not be used in any manner that
 competes with the business of Gaussian, Inc. or will provide
 assistance to any competitor of Gaussian, Inc.  The licensee
 of this program is prohibited from giving any competitor of
 Gaussian, Inc. access to this program.  By using this program,
 the user acknowledges that Gaussian, Inc. is engaged in the
 business of creating and licensing software in the field of
 computational chemistry and represents and warrants to the
 licensee that it is not a competitor of Gaussian, Inc. and that
 it will not use this program in any manner prohibited above.
 ---------------------------------------------------------------
  

 Cite this work as:
 Gaussian 09, Revision C.01,
 M. J. Frisch, G. W. Trucks, H. B. Schlegel, G. E. Scuseria, 
 M. A. Robb, J. R. Cheeseman, G. Scalmani, V. Barone, B. Mennucci, 
 G. A. Petersson, H. Nakatsuji, M. Caricato, X. Li, H. P. Hratchian, 
 A. F. Izmaylov, J. Bloino, G. Zheng, J. L. Sonnenberg, M. Hada, 
 M. Ehara, K. Toyota, R. Fukuda, J. Hasegawa, M. Ishida, T. Nakajima, 
 Y. Honda, O. Kitao, H. Nakai, T. Vreven, J. A. Montgomery, Jr., 
 J. E. Peralta, F. Ogliaro, M. Bearpark, J. J. Heyd, E. Brothers, 
 K. N. Kudin, V. N. Staroverov, T. Keith, R. Kobayashi, J. Normand, 
 K. Raghavachari, A. Rendell, J. C. Burant, S. S. Iyengar, J. Tomasi, 
 M. Cossi, N. Rega, J. M. Millam, M. Klene, J. E. Knox, J. B. Cross, 
 V. Bakken, C. Adamo, J. Jaramillo, R. Gomperts, R. E. Stratmann, 
 O. Yazyev, A. J. Austin, R. Cammi, C. Pomelli, J. W. Ochterski, 
 R. L. Martin, K. Morokuma, V. G. Zakrzewski, G. A. Voth, 
 P. Salvador, J. J. Dannenberg, S. Dapprich, A. D. Daniels, 
 O. Farkas, J. B. Foresman, J. V. Ortiz, J. Cioslowski, 
 and D. J. Fox, Gaussian, Inc., Wallingford CT, 2010.
 
 ******************************************
 Gaussian 09:  EM64L-G09RevC.01 23-Sep-2011
                10-Sep-2022 
 ******************************************
 %nprocshared=8
 Will use up to    8 processors via shared memory.
 %mem=1600MB
 ---------------------------------------
 #p b3lyp/cc-pvdz pop=(chelpg,readradii)
 ---------------------------------------
 1/38=1/1;
 2/12=2,17=6,18=5,40=1/2;
 3/5=16,11=2,16=1,25=1,30=1,74=-5/1,2,3;
 4//1;
 5/5=2,38=5/2;
 6/7=2,8=2,9=2,10=2,15=8,20=103,28=1/1,2;
 99/5=1,9=1/99;
 Leave Link    1 at Sat Sep 10 10:36:29 2022, MaxMem=  209715200 cpu:       0.2
 (Enter /opt/gaussian/l101.exe)
 ---------
 Mol24.log
 ---------
 Charge =  0 Multiplicity = 1
 Symbolic Z-Matrix:
 O                     1.0463   -0.55892   2.11908 
 C                     1.43347   0.29021   1.32591 
 C                     2.90619   0.74289   1.38862 
 N                     3.73019   0.06503   0.40332 
 N                     4.36782   0.77937  -0.57366 
 N                     5.05724  -0.02168  -1.31372 
 C                     4.89323  -1.3068   -0.83484 
 C                     5.43148  -2.52951  -1.27623 
 C                     5.07503  -3.67222  -0.57426 
 C                     4.19866  -3.61484   0.54086 
 C                     3.65402  -2.41921   0.99223 
 C                     4.02824  -1.26637   0.27966 
 N                     0.62967   0.83439   0.34918 
 C                     1.06662   1.91349  -0.56181 
 C                     0.78233   3.3183   -0.03771 
 C                     1.14576   4.51485  -0.96279 
 C                    -0.14318   5.2318   -0.4762 
 C                    -0.67759   3.85878   0.01365 
 C                    -0.73088   0.37672   0.24637 
 C                    -1.60603   0.45135   1.33745 
 C                    -2.92407   0.01768   1.21027 
 C                    -3.4116   -0.49927  -0.00458 
 C                    -2.51977  -0.5753   -1.0889 
 C                    -1.19648  -0.15202  -0.96359 
 C                    -4.81854  -0.95247  -0.13504 
 C                    -5.88209  -0.26919   0.47741 
 C                    -7.18325  -0.74251   0.31708 
 C                    -7.38905  -1.88759  -0.45689 
 N                    -6.39524  -2.56516  -1.04769 
 C                    -5.15269  -2.10108  -0.87933 
 H                     3.05229   1.81783   1.22996 
 H                     3.25167   0.47994   2.39803 
 H                     6.10077  -2.56201  -2.13714 
 H                     5.47067  -4.64162  -0.88421 
 H                     3.94013  -4.5427    1.05588 
 H                     2.95916  -2.37073   1.83105 
 H                     2.13693   1.79911  -0.78104 
 H                     0.54338   1.76876  -1.51868 
 H                     1.26345   3.44712   0.94778 
 H                     2.11336   5.01249  -0.79931 
 H                     1.07547   4.23137  -2.02623 
 H                     0.06323   5.9136    0.3637 
 H                    -0.73912   5.77257  -1.22623 
 H                    -1.30938   3.37268  -0.74711 
 H                    -1.20612   3.82174   0.97767 
 H                    -1.24681   0.83385   2.29222 
 H                    -3.58187   0.06166   2.08076 
 H                    -2.86613  -0.95842  -2.0506 
 H                    -0.51943  -0.23678  -1.81586 
 H                    -5.69171   0.63807   1.05533 
 H                    -8.02908  -0.22621   0.77576 
 H                    -8.39954  -2.28089  -0.61024 
 H                    -4.35826  -2.68975  -1.35023 
 
 NAtoms=     53 NQM=        0 NQMF=       0 NMMI=     53 NMMIF=      0
                NMic=       0 NMicF=      0.
                    Isotopes and Nuclear Properties:
 (Nuclear quadrupole moments (NQMom) in fm**2, nuclear magnetic moments (NMagM)
  in nuclear magnetons)

  Atom         1           2           3           4           5           6           7           8           9          10
 IAtWgt=          16          12          12          14          14          14          12          12          12          12
 AtmWgt=  15.9949146  12.0000000  12.0000000  14.0030740  14.0030740  14.0030740  12.0000000  12.0000000  12.0000000  12.0000000
 NucSpn=           0           0           0           2           2           2           0           0           0           0
 AtZEff=   0.0000000   0.0000000   0.0000000   0.0000000   0.0000000   0.0000000   0.0000000   0.0000000   0.0000000   0.0000000
 NQMom=    0.0000000   0.0000000   0.0000000   2.0440000   2.0440000   2.0440000   0.0000000   0.0000000   0.0000000   0.0000000
 NMagM=    0.0000000   0.0000000   0.0000000   0.4037610   0.4037610   0.4037610   0.0000000   0.0000000   0.0000000   0.0000000

  Atom        11          12          13          14          15          16          17          18          19          20
 IAtWgt=          12          12          14          12          12          12          12          12          12          12
 AtmWgt=  12.0000000  12.0000000  14.0030740  12.0000000  12.0000000  12.0000000  12.0000000  12.0000000  12.0000000  12.0000000
 NucSpn=           0           0           2           0           0           0           0           0           0           0
 AtZEff=   0.0000000   0.0000000   0.0000000   0.0000000   0.0000000   0.0000000   0.0000000   0.0000000   0.0000000   0.0000000
 NQMom=    0.0000000   0.0000000   2.0440000   0.0000000   0.0000000   0.0000000   0.0000000   0.0000000   0.0000000   0.0000000
 NMagM=    0.0000000   0.0000000   0.4037610   0.0000000   0.0000000   0.0000000   0.0000000   0.0000000   0.0000000   0.0000000

  Atom        21          22          23          24          25          26          27          28          29          30
 IAtWgt=          12          12          12          12          12          12          12          12          14          12
 AtmWgt=  12.0000000  12.0000000  12.0000000  12.0000000  12.0000000  12.0000000  12.0000000  12.0000000  14.0030740  12.0000000
 NucSpn=           0           0           0           0           0           0           0           0           2           0
 AtZEff=   0.0000000   0.0000000   0.0000000   0.0000000   0.0000000   0.0000000   0.0000000   0.0000000   0.0000000   0.0000000
 NQMom=    0.0000000   0.0000000   0.0000000   0.0000000   0.0000000   0.0000000   0.0000000   0.0000000   2.0440000   0.0000000
 NMagM=    0.0000000   0.0000000   0.0000000   0.0000000   0.0000000   0.0000000   0.0000000   0.0000000   0.4037610   0.0000000

  Atom        31          32          33          34          35          36          37          38          39          40
 IAtWgt=           1           1           1           1           1           1           1           1           1           1
 AtmWgt=   1.0078250   1.0078250   1.0078250   1.0078250   1.0078250   1.0078250   1.0078250   1.0078250   1.0078250   1.0078250
 NucSpn=           1           1           1           1           1           1           1           1           1           1
 AtZEff=   0.0000000   0.0000000   0.0000000   0.0000000   0.0000000   0.0000000   0.0000000   0.0000000   0.0000000   0.0000000
 NQMom=    0.0000000   0.0000000   0.0000000   0.0000000   0.0000000   0.0000000   0.0000000   0.0000000   0.0000000   0.0000000
 NMagM=    2.7928460   2.7928460   2.7928460   2.7928460   2.7928460   2.7928460   2.7928460   2.7928460   2.7928460   2.7928460

  Atom        41          42          43          44          45          46          47          48          49          50
 IAtWgt=           1           1           1           1           1           1           1           1           1           1
 AtmWgt=   1.0078250   1.0078250   1.0078250   1.0078250   1.0078250   1.0078250   1.0078250   1.0078250   1.0078250   1.0078250
 NucSpn=           1           1           1           1           1           1           1           1           1           1
 AtZEff=   0.0000000   0.0000000   0.0000000   0.0000000   0.0000000   0.0000000   0.0000000   0.0000000   0.0000000   0.0000000
 NQMom=    0.0000000   0.0000000   0.0000000   0.0000000   0.0000000   0.0000000   0.0000000   0.0000000   0.0000000   0.0000000
 NMagM=    2.7928460   2.7928460   2.7928460   2.7928460   2.7928460   2.7928460   2.7928460   2.7928460   2.7928460   2.7928460

  Atom        51          52          53
 IAtWgt=           1           1           1
 AtmWgt=   1.0078250   1.0078250   1.0078250
 NucSpn=           1           1           1
 AtZEff=   0.0000000   0.0000000   0.0000000
 NQMom=    0.0000000   0.0000000   0.0000000
 NMagM=    2.7928460   2.7928460   2.7928460
 Leave Link  101 at Sat Sep 10 10:36:29 2022, MaxMem=  209715200 cpu:       0.7
 (Enter /opt/gaussian/l202.exe)
 Stoichiometry    C24H23N5O
 Framework group  C1[X(C24H23N5O)]
 Deg. of freedom   153
 Full point group                 C1      NOp   1
 Largest Abelian subgroup         C1      NOp   1
 Largest concise Abelian subgroup C1      NOp   1
                         Standard orientation:                         
 ---------------------------------------------------------------------
 Center     Atomic      Atomic             Coordinates (Angstroms)
 Number     Number       Type             X           Y           Z
 ---------------------------------------------------------------------
      1          8           0        1.046300   -0.558921    2.119080
      2          6           0        1.433470    0.290209    1.325910
      3          6           0        2.906190    0.742889    1.388620
      4          7           0        3.730190    0.065029    0.403320
      5          7           0        4.367820    0.779369   -0.573660
      6          7           0        5.057240   -0.021681   -1.313720
      7          6           0        4.893230   -1.306801   -0.834840
      8          6           0        5.431480   -2.529511   -1.276230
      9          6           0        5.075030   -3.672221   -0.574260
     10          6           0        4.198660   -3.614841    0.540860
     11          6           0        3.654020   -2.419211    0.992230
     12          6           0        4.028240   -1.266371    0.279660
     13          7           0        0.629670    0.834389    0.349180
     14          6           0        1.066620    1.913489   -0.561810
     15          6           0        0.782330    3.318299   -0.037710
     16          6           0        1.145760    4.514849   -0.962790
     17          6           0       -0.143180    5.231799   -0.476200
     18          6           0       -0.677590    3.858779    0.013650
     19          6           0       -0.730880    0.376719    0.246370
     20          6           0       -1.606030    0.451350    1.337450
     21          6           0       -2.924070    0.017680    1.210270
     22          6           0       -3.411600   -0.499270   -0.004580
     23          6           0       -2.519770   -0.575300   -1.088900
     24          6           0       -1.196480   -0.152020   -0.963590
     25          6           0       -4.818540   -0.952470   -0.135040
     26          6           0       -5.882090   -0.269190    0.477410
     27          6           0       -7.183250   -0.742510    0.317080
     28          6           0       -7.389050   -1.887590   -0.456890
     29          7           0       -6.395240   -2.565160   -1.047690
     30          6           0       -5.152690   -2.101080   -0.879330
     31          1           0        3.052290    1.817829    1.229960
     32          1           0        3.251670    0.479939    2.398030
     33          1           0        6.100770   -2.562011   -2.137140
     34          1           0        5.470670   -4.641621   -0.884210
     35          1           0        3.940130   -4.542701    1.055880
     36          1           0        2.959160   -2.370731    1.831050
     37          1           0        2.136930    1.799109   -0.781040
     38          1           0        0.543380    1.768759   -1.518680
     39          1           0        1.263450    3.447119    0.947780
     40          1           0        2.113360    5.012489   -0.799310
     41          1           0        1.075470    4.231369   -2.026230
     42          1           0        0.063230    5.913599    0.363700
     43          1           0       -0.739120    5.772569   -1.226230
     44          1           0       -1.309380    3.372680   -0.747110
     45          1           0       -1.206120    3.821740    0.977670
     46          1           0       -1.246810    0.833850    2.292220
     47          1           0       -3.581870    0.061660    2.080760
     48          1           0       -2.866130   -0.958420   -2.050600
     49          1           0       -0.519430   -0.236781   -1.815860
     50          1           0       -5.691710    0.638070    1.055330
     51          1           0       -8.029080   -0.226210    0.775760
     52          1           0       -8.399540   -2.280890   -0.610240
     53          1           0       -4.358260   -2.689750   -1.350230
 ---------------------------------------------------------------------
 Rotational constants (GHZ):      0.2224478      0.0782160      0.0630873
 Leave Link  202 at Sat Sep 10 10:36:29 2022, MaxMem=  209715200 cpu:       0.1
 (Enter /opt/gaussian/l301.exe)
 Standard basis: CC-pVDZ (5D, 7F)
 Ernie: Thresh=  0.10000D-02 Tol=  0.10000D-05 Strict=F.
 Ernie:  60 primitive shells out of 775 were deleted.
 There are   535 symmetry adapted basis functions of A   symmetry.
 Integral buffers will be    131072 words long.
 Raffenetti 2 integral format.
 Two-electron integral symmetry is turned on.
   535 basis functions,  1151 primitive gaussians,   565 cartesian basis functions
   105 alpha electrons      105 beta electrons
       nuclear repulsion energy      2674.2805683243 Hartrees.
 IExCor=  402 DFT=T Ex+Corr=B3LYP ExCW=0 ScaHFX=  0.200000
 ScaDFX=  0.800000  0.720000  1.000000  0.810000 ScalE2=  1.000000  1.000000
 IRadAn=      0 IRanWt=     -1 IRanGd=            0 ICorTp=0
 NAtoms=   53 NActive=   53 NUniq=   53 SFac= 1.00D+00 NAtFMM=   60 NAOKFM=F Big=F
 Leave Link  301 at Sat Sep 10 10:36:29 2022, MaxMem=  209715200 cpu:       0.3
 (Enter /opt/gaussian/l302.exe)
 NPDir=0 NMtPBC=     1 NCelOv=     1 NCel=       1 NClECP=     1 NCelD=      1
         NCelK=      1 NCelE2=     1 NClLst=     1 CellRange=     0.0.
 One-electron integrals computed using PRISM.
 NBasis=   535 RedAO= T  NBF=   535
 NBsUse=   535 1.00D-06 NBFU=   535
 Precomputing XC quadrature grid using
 IXCGrd= 2 IRadAn=           0 IRanWt=          -1 IRanGd=           0 AccXCQ= 0.00D+00.
 NRdTot=    3416 NPtTot=      436544 NUsed=      461158 NTot=      461190
 NSgBfM=   551   551   555   555   555 NAtAll=    53    53.
 Leave Link  302 at Sat Sep 10 10:36:30 2022, MaxMem=  209715200 cpu:       8.2
 (Enter /opt/gaussian/l303.exe)
 DipDrv:  MaxL=1.
 Leave Link  303 at Sat Sep 10 10:36:31 2022, MaxMem=  209715200 cpu:       1.1
 (Enter /opt/gaussian/l401.exe)
 Harris functional with IExCor=  402 diagonalized for initial guess.
 ExpMin= 1.22D-01 ExpMax= 1.17D+04 ExpMxC= 4.01D+02 IAcc=1 IRadAn=         1 AccDes= 0.00D+00
 HarFok:  IExCor=  402 AccDes= 0.00D+00 IRadAn=         1 IDoV= 1
 ScaDFX=  1.000000  1.000000  1.000000  1.000000
 FoFCou: FMM=F IPFlag=           0 FMFlag=      100000 FMFlg1=           0
         NFxFlg=           0 DoJE=T BraDBF=F KetDBF=T FulRan=T
         Omega=  0.000000  0.000000  1.000000  0.000000  0.000000 ICntrl=     500 IOpCl=  0
         NMat0=    1 NMatS0=    1 NMatT0=    0 NMatD0=    1 NMtDS0=    0 NMtDT0=    0
         I1Cent=           4 NGrid=           0.
 Petite list used in FoFCou.
 Harris En= -1277.25012976089    
 Initial guess orbital symmetries:
       Occupied  (A) (A) (A) (A) (A) (A) (A) (A) (A) (A) (A) (A)
                 (A) (A) (A) (A) (A) (A) (A) (A) (A) (A) (A) (A)
                 (A) (A) (A) (A) (A) (A) (A) (A) (A) (A) (A) (A)
                 (A) (A) (A) (A) (A) (A) (A) (A) (A) (A) (A) (A)
                 (A) (A) (A) (A) (A) (A) (A) (A) (A) (A) (A) (A)
                 (A) (A) (A) (A) (A) (A) (A) (A) (A) (A) (A) (A)
                 (A) (A) (A) (A) (A) (A) (A) (A) (A) (A) (A) (A)
                 (A) (A) (A) (A) (A) (A) (A) (A) (A) (A) (A) (A)
                 (A) (A) (A) (A) (A) (A) (A) (A) (A)
       Virtual   (A) (A) (A) (A) (A) (A) (A) (A) (A) (A) (A) (A)
                 (A) (A) (A) (A) (A) (A) (A) (A) (A) (A) (A) (A)
                 (A) (A) (A) (A) (A) (A) (A) (A) (A) (A) (A) (A)
                 (A) (A) (A) (A) (A) (A) (A) (A) (A) (A) (A) (A)
                 (A) (A) (A) (A) (A) (A) (A) (A) (A) (A) (A) (A)
                 (A) (A) (A) (A) (A) (A) (A) (A) (A) (A) (A) (A)
                 (A) (A) (A) (A) (A) (A) (A) (A) (A) (A) (A) (A)
                 (A) (A) (A) (A) (A) (A) (A) (A) (A) (A) (A) (A)
                 (A) (A) (A) (A) (A) (A) (A) (A) (A) (A) (A) (A)
                 (A) (A) (A) (A) (A) (A) (A) (A) (A) (A) (A) (A)
                 (A) (A) (A) (A) (A) (A) (A) (A) (A) (A) (A) (A)
                 (A) (A) (A) (A) (A) (A) (A) (A) (A) (A) (A) (A)
                 (A) (A) (A) (A) (A) (A) (A) (A) (A) (A) (A) (A)
                 (A) (A) (A) (A) (A) (A) (A) (A) (A) (A) (A) (A)
                 (A) (A) (A) (A) (A) (A) (A) (A) (A) (A) (A) (A)
                 (A) (A) (A) (A) (A) (A) (A) (A) (A) (A) (A) (A)
                 (A) (A) (A) (A) (A) (A) (A) (A) (A) (A) (A) (A)
                 (A) (A) (A) (A) (A) (A) (A) (A) (A) (A) (A) (A)
                 (A) (A) (A) (A) (A) (A) (A) (A) (A) (A) (A) (A)
                 (A) (A) (A) (A) (A) (A) (A) (A) (A) (A) (A) (A)
                 (A) (A) (A) (A) (A) (A) (A) (A) (A) (A) (A) (A)
                 (A) (A) (A) (A) (A) (A) (A) (A) (A) (A) (A) (A)
                 (A) (A) (A) (A) (A) (A) (A) (A) (A) (A) (A) (A)
                 (A) (A) (A) (A) (A) (A) (A) (A) (A) (A) (A) (A)
                 (A) (A) (A) (A) (A) (A) (A) (A) (A) (A) (A) (A)
                 (A) (A) (A) (A) (A) (A) (A) (A) (A) (A) (A) (A)
                 (A) (A) (A) (A) (A) (A) (A) (A) (A) (A) (A) (A)
                 (A) (A) (A) (A) (A) (A) (A) (A) (A) (A) (A) (A)
                 (A) (A) (A) (A) (A) (A) (A) (A) (A) (A) (A) (A)
                 (A) (A) (A) (A) (A) (A) (A) (A) (A) (A) (A) (A)
                 (A) (A) (A) (A) (A) (A) (A) (A) (A) (A) (A) (A)
                 (A) (A) (A) (A) (A) (A) (A) (A) (A) (A) (A) (A)
                 (A) (A) (A) (A) (A) (A) (A) (A) (A) (A) (A) (A)
                 (A) (A) (A) (A) (A) (A) (A) (A) (A) (A) (A) (A)
                 (A) (A) (A) (A) (A) (A) (A) (A) (A) (A) (A) (A)
                 (A) (A) (A) (A) (A) (A) (A) (A) (A) (A)
 The electronic state of the initial guess is 1-A.
 Leave Link  401 at Sat Sep 10 10:36:32 2022, MaxMem=  209715200 cpu:      15.0
 (Enter /opt/gaussian/l502.exe)
 Closed shell SCF:
 Requested convergence on RMS density matrix=1.00D-08 within 128 cycles.
 Requested convergence on MAX density matrix=1.00D-06.
 Requested convergence on             energy=1.00D-06.
 No special actions if energy rises.
 Using DIIS extrapolation, IDIIS=  1040.
 Integral symmetry usage will be decided dynamically.
       460668 words used for storage of precomputed grid.
 IEnd=     1445289 IEndB=     1445289 NGot=   209715200 MDV=   208606342
 LenX=   208606342 LenY=   208286552
 Fock matrices will be formed incrementally for  20 cycles.
 Integral accuracy reduced to 1.0D-05 until final iterations.

 Cycle   1  Pass 0  IDiag  1:
 FoFCou: FMM=F IPFlag=           0 FMFlag=      100000 FMFlg1=           0
         NFxFlg=           0 DoJE=F BraDBF=F KetDBF=F FulRan=T
         Omega=  0.000000  0.000000  1.000000  0.000000  0.000000 ICntrl=       0 IOpCl=  0
         NMat0=    1 NMatS0=    1 NMatT0=    0 NMatD0=    1 NMtDS0=    0 NMtDT0=    0
         I1Cent=           0 NGrid=           0.
 Symmetry not used in FoFCou.
 E= -1276.84013072448    
 DIIS: error= 2.11D-02 at cycle   1 NSaved=   1.
 NSaved= 1 IEnMin= 1 EnMin= -1276.84013072448     IErMin= 1 ErrMin= 2.11D-02
 ErrMax= 2.11D-02 EMaxC= 1.00D-01 BMatC= 5.21D-01 BMatP= 5.21D-01
 IDIUse=3 WtCom= 7.89D-01 WtEn= 2.11D-01
 Coeff-Com:  0.100D+01
 Coeff-En:   0.100D+01
 Coeff:      0.100D+01
 Gap=     0.262 Goal=   None    Shift=    0.000
 GapD=    0.262 DampG=1.000 DampE=0.500 DampFc=0.5000 IDamp=-1.
 Damping current iteration by 5.00D-01
 RMSDP=3.77D-03 MaxDP=1.82D-01              OVMax= 3.18D-01

 Cycle   2  Pass 0  IDiag  1:
 RMSU=  1.31D-03    CP:  9.77D-01
 E= -1276.96924451937     Delta-E=       -0.129113794889 Rises=F Damp=T
 DIIS: error= 7.53D-03 at cycle   2 NSaved=   2.
 NSaved= 2 IEnMin= 2 EnMin= -1276.96924451937     IErMin= 2 ErrMin= 7.53D-03
 ErrMax= 7.53D-03 EMaxC= 1.00D-01 BMatC= 1.19D-01 BMatP= 5.21D-01
 IDIUse=3 WtCom= 9.25D-01 WtEn= 7.53D-02
 Coeff-Com:  0.258D+00 0.742D+00
 Coeff-En:   0.375D+00 0.625D+00
 Coeff:      0.266D+00 0.734D+00
 Gap=     0.240 Goal=   None    Shift=    0.000
 RMSDP=1.35D-03 MaxDP=6.48D-02 DE=-1.29D-01 OVMax= 3.47D-01

 Cycle   3  Pass 0  IDiag  1:
 RMSU=  9.12D-04    CP:  9.64D-01  8.10D-01
 E= -1277.29944269698     Delta-E=       -0.330198177612 Rises=F Damp=F
 DIIS: error= 9.54D-03 at cycle   3 NSaved=   3.
 NSaved= 3 IEnMin= 3 EnMin= -1277.29944269698     IErMin= 2 ErrMin= 7.53D-03
 ErrMax= 9.54D-03 EMaxC= 1.00D-01 BMatC= 1.19D-01 BMatP= 1.19D-01
 IDIUse=3 WtCom= 9.05D-01 WtEn= 9.54D-02
 Coeff-Com:  0.696D-01 0.487D+00 0.443D+00
 Coeff-En:   0.000D+00 0.000D+00 0.100D+01
 Coeff:      0.629D-01 0.441D+00 0.496D+00
 Gap=     0.190 Goal=   None    Shift=    0.000
 RMSDP=8.38D-04 MaxDP=5.17D-02 DE=-3.30D-01 OVMax= 9.41D-02

 Cycle   4  Pass 0  IDiag  1:
 RMSU=  3.70D-04    CP:  9.67D-01  9.18D-01  5.19D-01
 E= -1277.39545890936     Delta-E=       -0.096016212375 Rises=F Damp=F
 DIIS: error= 3.01D-03 at cycle   4 NSaved=   4.
 NSaved= 4 IEnMin= 4 EnMin= -1277.39545890936     IErMin= 4 ErrMin= 3.01D-03
 ErrMax= 3.01D-03 EMaxC= 1.00D-01 BMatC= 1.85D-02 BMatP= 1.19D-01
 IDIUse=3 WtCom= 9.70D-01 WtEn= 3.01D-02
 Coeff-Com:  0.162D-01 0.132D+00 0.303D+00 0.549D+00
 Coeff-En:   0.000D+00 0.000D+00 0.156D+00 0.844D+00
 Coeff:      0.157D-01 0.128D+00 0.298D+00 0.558D+00
 Gap=     0.182 Goal=   None    Shift=    0.000
 RMSDP=2.86D-04 MaxDP=1.61D-02 DE=-9.60D-02 OVMax= 3.38D-02

 Cycle   5  Pass 0  IDiag  1:
 RMSU=  1.20D-04    CP:  9.66D-01  8.79D-01  6.23D-01  6.71D-01
 E= -1277.41076281326     Delta-E=       -0.015303903901 Rises=F Damp=F
 DIIS: error= 1.25D-03 at cycle   5 NSaved=   5.
 NSaved= 5 IEnMin= 5 EnMin= -1277.41076281326     IErMin= 5 ErrMin= 1.25D-03
 ErrMax= 1.25D-03 EMaxC= 1.00D-01 BMatC= 1.33D-03 BMatP= 1.85D-02
 IDIUse=3 WtCom= 9.87D-01 WtEn= 1.25D-02
 Coeff-Com:  0.249D-02 0.252D-01 0.124D+00 0.324D+00 0.525D+00
 Coeff-En:   0.000D+00 0.000D+00 0.000D+00 0.107D-01 0.989D+00
 Coeff:      0.246D-02 0.249D-01 0.122D+00 0.320D+00 0.531D+00
 Gap=     0.182 Goal=   None    Shift=    0.000
 RMSDP=1.01D-04 MaxDP=6.08D-03 DE=-1.53D-02 OVMax= 1.37D-02

 Cycle   6  Pass 0  IDiag  1:
 RMSU=  3.72D-05    CP:  9.66D-01  8.83D-01  6.28D-01  7.07D-01  5.07D-01
 E= -1277.41194675791     Delta-E=       -0.001183944651 Rises=F Damp=F
 DIIS: error= 4.26D-04 at cycle   6 NSaved=   6.
 NSaved= 6 IEnMin= 6 EnMin= -1277.41194675791     IErMin= 6 ErrMin= 4.26D-04
 ErrMax= 4.26D-04 EMaxC= 1.00D-01 BMatC= 2.07D-04 BMatP= 1.33D-03
 IDIUse=3 WtCom= 9.96D-01 WtEn= 4.26D-03
 Coeff-Com: -0.276D-03-0.156D-02 0.363D-01 0.123D+00 0.331D+00 0.511D+00
 Coeff-En:   0.000D+00 0.000D+00 0.000D+00 0.000D+00 0.139D+00 0.861D+00
 Coeff:     -0.275D-03-0.155D-02 0.361D-01 0.122D+00 0.330D+00 0.513D+00
 Gap=     0.181 Goal=   None    Shift=    0.000
 RMSDP=3.55D-05 MaxDP=1.86D-03 DE=-1.18D-03 OVMax= 5.18D-03

 Cycle   7  Pass 0  IDiag  1:
 RMSU=  1.42D-05    CP:  9.66D-01  8.84D-01  6.30D-01  7.09D-01  6.07D-01
                    CP:  5.49D-01
 E= -1277.41215447119     Delta-E=       -0.000207713288 Rises=F Damp=F
 DIIS: error= 1.46D-04 at cycle   7 NSaved=   7.
 NSaved= 7 IEnMin= 7 EnMin= -1277.41215447119     IErMin= 7 ErrMin= 1.46D-04
 ErrMax= 1.46D-04 EMaxC= 1.00D-01 BMatC= 2.28D-05 BMatP= 2.07D-04
 IDIUse=3 WtCom= 9.99D-01 WtEn= 1.46D-03
 Coeff-Com: -0.252D-03-0.358D-02 0.909D-02 0.394D-01 0.148D+00 0.318D+00
 Coeff-Com:  0.489D+00
 Coeff-En:   0.000D+00 0.000D+00 0.000D+00 0.000D+00 0.000D+00 0.566D-01
 Coeff-En:   0.943D+00
 Coeff:     -0.251D-03-0.357D-02 0.908D-02 0.394D-01 0.147D+00 0.318D+00
 Coeff:      0.490D+00
 Gap=     0.181 Goal=   None    Shift=    0.000
 RMSDP=1.05D-05 MaxDP=4.31D-04 DE=-2.08D-04 OVMax= 1.24D-03

 Cycle   8  Pass 0  IDiag  1:
 RMSU=  3.38D-06    CP:  9.66D-01  8.84D-01  6.29D-01  7.10D-01  6.08D-01
                    CP:  6.27D-01  5.85D-01
 E= -1277.41218073827     Delta-E=       -0.000026267071 Rises=F Damp=F
 DIIS: error= 3.87D-05 at cycle   8 NSaved=   8.
 NSaved= 8 IEnMin= 8 EnMin= -1277.41218073827     IErMin= 8 ErrMin= 3.87D-05
 ErrMax= 3.87D-05 EMaxC= 1.00D-01 BMatC= 1.20D-06 BMatP= 2.28D-05
 IDIUse=1 WtCom= 1.00D+00 WtEn= 0.00D+00
 Coeff-Com: -0.273D-04-0.190D-02 0.265D-02 0.127D-01 0.581D-01 0.137D+00
 Coeff-Com:  0.260D+00 0.531D+00
 Coeff:     -0.273D-04-0.190D-02 0.265D-02 0.127D-01 0.581D-01 0.137D+00
 Coeff:      0.260D+00 0.531D+00
 Gap=     0.181 Goal=   None    Shift=    0.000
 RMSDP=2.80D-06 MaxDP=1.28D-04 DE=-2.63D-05 OVMax= 3.92D-04

 Initial convergence to 1.0D-05 achieved.  Increase integral accuracy.
 Cycle   9  Pass 1  IDiag  1:
 E= -1277.41226678502     Delta-E=       -0.000086046752 Rises=F Damp=F
 DIIS: error= 2.49D-04 at cycle   1 NSaved=   1.
 NSaved= 1 IEnMin= 1 EnMin= -1277.41226678502     IErMin= 1 ErrMin= 2.49D-04
 ErrMax= 2.49D-04 EMaxC= 1.00D-01 BMatC= 9.18D-06 BMatP= 9.18D-06
 IDIUse=3 WtCom= 9.98D-01 WtEn= 2.49D-03
 Coeff-Com:  0.100D+01
 Coeff-En:   0.100D+01
 Coeff:      0.100D+01
 Gap=     0.181 Goal=   None    Shift=    0.000
 RMSDP=2.80D-06 MaxDP=1.28D-04 DE=-8.60D-05 OVMax= 5.03D-04

 Cycle  10  Pass 1  IDiag  1:
 RMSU=  8.31D-05    CP:  1.00D+00
 E= -1277.41227454772     Delta-E=       -0.000007762705 Rises=F Damp=F
 DIIS: error= 3.46D-05 at cycle   2 NSaved=   2.
 NSaved= 2 IEnMin= 2 EnMin= -1277.41227454772     IErMin= 2 ErrMin= 3.46D-05
 ErrMax= 3.46D-05 EMaxC= 1.00D-01 BMatC= 9.63D-07 BMatP= 9.18D-06
 IDIUse=1 WtCom= 1.00D+00 WtEn= 0.00D+00
 Coeff-Com:  0.123D+00 0.877D+00
 Coeff:      0.123D+00 0.877D+00
 Gap=     0.181 Goal=   None    Shift=    0.000
 RMSDP=5.03D-06 MaxDP=2.47D-04 DE=-7.76D-06 OVMax= 5.50D-04

 Cycle  11  Pass 1  IDiag  1:
 RMSU=  3.47D-06    CP:  1.00D+00  1.01D+00
 E= -1277.41227259129     Delta-E=        0.000001956434 Rises=F Damp=F
 DIIS: error= 6.39D-05 at cycle   3 NSaved=   3.
 NSaved= 3 IEnMin= 2 EnMin= -1277.41227454772     IErMin= 2 ErrMin= 3.46D-05
 ErrMax= 6.39D-05 EMaxC= 1.00D-01 BMatC= 2.96D-06 BMatP= 9.63D-07
 IDIUse=1 WtCom= 1.00D+00 WtEn= 0.00D+00
 Coeff-Com: -0.456D-02 0.640D+00 0.365D+00
 Coeff:     -0.456D-02 0.640D+00 0.365D+00
 Gap=     0.181 Goal=   None    Shift=    0.000
 RMSDP=3.17D-06 MaxDP=1.84D-04 DE= 1.96D-06 OVMax= 3.76D-04

 Cycle  12  Pass 1  IDiag  1:
 RMSU=  4.07D-07    CP:  1.00D+00  1.01D+00  3.68D-01
 E= -1277.41227550319     Delta-E=       -0.000002911904 Rises=F Damp=F
 DIIS: error= 3.84D-06 at cycle   4 NSaved=   4.
 NSaved= 4 IEnMin= 4 EnMin= -1277.41227550319     IErMin= 4 ErrMin= 3.84D-06
 ErrMax= 3.84D-06 EMaxC= 1.00D-01 BMatC= 2.24D-08 BMatP= 9.63D-07
 IDIUse=1 WtCom= 1.00D+00 WtEn= 0.00D+00
 Coeff-Com: -0.406D-02 0.393D+00 0.229D+00 0.382D+00
 Coeff:     -0.406D-02 0.393D+00 0.229D+00 0.382D+00
 Gap=     0.181 Goal=   None    Shift=    0.000
 RMSDP=2.98D-07 MaxDP=2.18D-05 DE=-2.91D-06 OVMax= 3.33D-05

 Cycle  13  Pass 1  IDiag  1:
 RMSU=  1.40D-07    CP:  1.00D+00  1.01D+00  3.72D-01  6.15D-01
 E= -1277.41227552357     Delta-E=       -0.000000020374 Rises=F Damp=F
 DIIS: error= 8.20D-07 at cycle   5 NSaved=   5.
 NSaved= 5 IEnMin= 5 EnMin= -1277.41227552357     IErMin= 5 ErrMin= 8.20D-07
 ErrMax= 8.20D-07 EMaxC= 1.00D-01 BMatC= 6.54D-10 BMatP= 2.24D-08
 IDIUse=1 WtCom= 1.00D+00 WtEn= 0.00D+00
 Coeff-Com: -0.198D-02 0.180D+00 0.105D+00 0.212D+00 0.505D+00
 Coeff:     -0.198D-02 0.180D+00 0.105D+00 0.212D+00 0.505D+00
 Gap=     0.181 Goal=   None    Shift=    0.000
 RMSDP=6.37D-08 MaxDP=3.09D-06 DE=-2.04D-08 OVMax= 1.00D-05

 Cycle  14  Pass 1  IDiag  1:
 RMSU=  3.90D-08    CP:  1.00D+00  1.01D+00  3.74D-01  6.38D-01  8.70D-01
 E= -1277.41227552416     Delta-E=       -0.000000000593 Rises=F Damp=F
 DIIS: error= 2.72D-07 at cycle   6 NSaved=   6.
 NSaved= 6 IEnMin= 6 EnMin= -1277.41227552416     IErMin= 6 ErrMin= 2.72D-07
 ErrMax= 2.72D-07 EMaxC= 1.00D-01 BMatC= 9.65D-11 BMatP= 6.54D-10
 IDIUse=1 WtCom= 1.00D+00 WtEn= 0.00D+00
 Coeff-Com: -0.382D-03 0.304D-01 0.177D-01 0.521D-01 0.297D+00 0.603D+00
 Coeff:     -0.382D-03 0.304D-01 0.177D-01 0.521D-01 0.297D+00 0.603D+00
 Gap=     0.181 Goal=   None    Shift=    0.000
 RMSDP=2.49D-08 MaxDP=1.25D-06 DE=-5.93D-10 OVMax= 2.94D-06

 Cycle  15  Pass 1  IDiag  1:
 RMSU=  1.14D-08    CP:  1.00D+00  1.01D+00  3.73D-01  6.46D-01  9.06D-01
                    CP:  7.04D-01
 E= -1277.41227552422     Delta-E=       -0.000000000062 Rises=F Damp=F
 DIIS: error= 1.44D-07 at cycle   7 NSaved=   7.
 NSaved= 7 IEnMin= 7 EnMin= -1277.41227552422     IErMin= 7 ErrMin= 1.44D-07
 ErrMax= 1.44D-07 EMaxC= 1.00D-01 BMatC= 2.00D-11 BMatP= 9.65D-11
 IDIUse=1 WtCom= 1.00D+00 WtEn= 0.00D+00
 Coeff-Com: -0.159D-04-0.143D-02-0.963D-03 0.943D-02 0.133D+00 0.393D+00
 Coeff-Com:  0.467D+00
 Coeff:     -0.159D-04-0.143D-02-0.963D-03 0.943D-02 0.133D+00 0.393D+00
 Coeff:      0.467D+00
 Gap=     0.181 Goal=   None    Shift=    0.000
 RMSDP=1.09D-08 MaxDP=5.92D-07 DE=-6.23D-11 OVMax= 1.50D-06

 Cycle  16  Pass 1  IDiag  1:
 RMSU=  4.46D-09    CP:  1.00D+00  1.01D+00  3.74D-01  6.48D-01  9.15D-01
                    CP:  7.32D-01  4.73D-01
 E= -1277.41227552423     Delta-E=       -0.000000000007 Rises=F Damp=F
 DIIS: error= 5.19D-08 at cycle   8 NSaved=   8.
 NSaved= 8 IEnMin= 8 EnMin= -1277.41227552423     IErMin= 8 ErrMin= 5.19D-08
 ErrMax= 5.19D-08 EMaxC= 1.00D-01 BMatC= 2.39D-12 BMatP= 2.00D-11
 IDIUse=1 WtCom= 1.00D+00 WtEn= 0.00D+00
 Coeff-Com:  0.399D-04-0.488D-02-0.296D-02-0.557D-03 0.460D-01 0.175D+00
 Coeff-Com:  0.301D+00 0.486D+00
 Coeff:      0.399D-04-0.488D-02-0.296D-02-0.557D-03 0.460D-01 0.175D+00
 Coeff:      0.301D+00 0.486D+00
 Gap=     0.181 Goal=   None    Shift=    0.000
 RMSDP=3.37D-09 MaxDP=1.51D-07 DE=-6.82D-12 OVMax= 4.07D-07

 SCF Done:  E(RB3LYP) =  -1277.41227552     A.U. after   16 cycles
             Convg  =    0.3369D-08             -V/T =  2.0069
 KE= 1.268638070164D+03 PE=-8.315100674281D+03 EE= 3.094769760268D+03
 Leave Link  502 at Sat Sep 10 10:49:31 2022, MaxMem=  209715200 cpu:    5768.4
 (Enter /opt/gaussian/l601.exe)
 Copying SCF densities to generalized density rwf, IOpCl= 0 IROHF=0.

 **********************************************************************

            Population analysis using the SCF density.

 **********************************************************************

 Orbital symmetries:
       Occupied  (A) (A) (A) (A) (A) (A) (A) (A) (A) (A) (A) (A)
                 (A) (A) (A) (A) (A) (A) (A) (A) (A) (A) (A) (A)
                 (A) (A) (A) (A) (A) (A) (A) (A) (A) (A) (A) (A)
                 (A) (A) (A) (A) (A) (A) (A) (A) (A) (A) (A) (A)
                 (A) (A) (A) (A) (A) (A) (A) (A) (A) (A) (A) (A)
                 (A) (A) (A) (A) (A) (A) (A) (A) (A) (A) (A) (A)
                 (A) (A) (A) (A) (A) (A) (A) (A) (A) (A) (A) (A)
                 (A) (A) (A) (A) (A) (A) (A) (A) (A) (A) (A) (A)
                 (A) (A) (A) (A) (A) (A) (A) (A) (A)
       Virtual   (A) (A) (A) (A) (A) (A) (A) (A) (A) (A) (A) (A)
                 (A) (A) (A) (A) (A) (A) (A) (A) (A) (A) (A) (A)
                 (A) (A) (A) (A) (A) (A) (A) (A) (A) (A) (A) (A)
                 (A) (A) (A) (A) (A) (A) (A) (A) (A) (A) (A) (A)
                 (A) (A) (A) (A) (A) (A) (A) (A) (A) (A) (A) (A)
                 (A) (A) (A) (A) (A) (A) (A) (A) (A) (A) (A) (A)
                 (A) (A) (A) (A) (A) (A) (A) (A) (A) (A) (A) (A)
                 (A) (A) (A) (A) (A) (A) (A) (A) (A) (A) (A) (A)
                 (A) (A) (A) (A) (A) (A) (A) (A) (A) (A) (A) (A)
                 (A) (A) (A) (A) (A) (A) (A) (A) (A) (A) (A) (A)
                 (A) (A) (A) (A) (A) (A) (A) (A) (A) (A) (A) (A)
                 (A) (A) (A) (A) (A) (A) (A) (A) (A) (A) (A) (A)
                 (A) (A) (A) (A) (A) (A) (A) (A) (A) (A) (A) (A)
                 (A) (A) (A) (A) (A) (A) (A) (A) (A) (A) (A) (A)
                 (A) (A) (A) (A) (A) (A) (A) (A) (A) (A) (A) (A)
                 (A) (A) (A) (A) (A) (A) (A) (A) (A) (A) (A) (A)
                 (A) (A) (A) (A) (A) (A) (A) (A) (A) (A) (A) (A)
                 (A) (A) (A) (A) (A) (A) (A) (A) (A) (A) (A) (A)
                 (A) (A) (A) (A) (A) (A) (A) (A) (A) (A) (A) (A)
                 (A) (A) (A) (A) (A) (A) (A) (A) (A) (A) (A) (A)
                 (A) (A) (A) (A) (A) (A) (A) (A) (A) (A) (A) (A)
                 (A) (A) (A) (A) (A) (A) (A) (A) (A) (A) (A) (A)
                 (A) (A) (A) (A) (A) (A) (A) (A) (A) (A) (A) (A)
                 (A) (A) (A) (A) (A) (A) (A) (A) (A) (A) (A) (A)
                 (A) (A) (A) (A) (A) (A) (A) (A) (A) (A) (A) (A)
                 (A) (A) (A) (A) (A) (A) (A) (A) (A) (A) (A) (A)
                 (A) (A) (A) (A) (A) (A) (A) (A) (A) (A) (A) (A)
                 (A) (A) (A) (A) (A) (A) (A) (A) (A) (A) (A) (A)
                 (A) (A) (A) (A) (A) (A) (A) (A) (A) (A) (A) (A)
                 (A) (A) (A) (A) (A) (A) (A) (A) (A) (A) (A) (A)
                 (A) (A) (A) (A) (A) (A) (A) (A) (A) (A) (A) (A)
                 (A) (A) (A) (A) (A) (A) (A) (A) (A) (A) (A) (A)
                 (A) (A) (A) (A) (A) (A) (A) (A) (A) (A) (A) (A)
                 (A) (A) (A) (A) (A) (A) (A) (A) (A) (A) (A) (A)
                 (A) (A) (A) (A) (A) (A) (A) (A) (A) (A) (A) (A)
                 (A) (A) (A) (A) (A) (A) (A) (A) (A) (A)
 The electronic state is 1-A.
 Alpha  occ. eigenvalues --  -19.12272 -14.42031 -14.39839 -14.38039 -14.35530
 Alpha  occ. eigenvalues --  -14.33029 -10.30421 -10.25599 -10.24113 -10.23653
 Alpha  occ. eigenvalues --  -10.23557 -10.22679 -10.22640 -10.21728 -10.21373
 Alpha  occ. eigenvalues --  -10.21339 -10.21319 -10.20612 -10.20513 -10.20490
 Alpha  occ. eigenvalues --  -10.20480 -10.20430 -10.20403 -10.20351 -10.20344
 Alpha  occ. eigenvalues --  -10.20344 -10.19921 -10.19453 -10.19324 -10.19306
 Alpha  occ. eigenvalues --   -1.10094  -1.05336  -0.95756  -0.94598  -0.93016
 Alpha  occ. eigenvalues --   -0.87213  -0.86861  -0.85601  -0.81860  -0.78702
 Alpha  occ. eigenvalues --   -0.78025  -0.77184  -0.76279  -0.75158  -0.74644
 Alpha  occ. eigenvalues --   -0.72652  -0.66755  -0.65811  -0.65323  -0.64714
 Alpha  occ. eigenvalues --   -0.63877  -0.62876  -0.61659  -0.61338  -0.59594
 Alpha  occ. eigenvalues --   -0.57058  -0.55804  -0.54041  -0.53536  -0.53074
 Alpha  occ. eigenvalues --   -0.51562  -0.50886  -0.49900  -0.49367  -0.48608
 Alpha  occ. eigenvalues --   -0.48129  -0.47605  -0.47019  -0.46207  -0.45432
 Alpha  occ. eigenvalues --   -0.45272  -0.44759  -0.44498  -0.43416  -0.42824
 Alpha  occ. eigenvalues --   -0.42500  -0.42076  -0.40821  -0.40650  -0.40104
 Alpha  occ. eigenvalues --   -0.39424  -0.39101  -0.38207  -0.37979  -0.37810
 Alpha  occ. eigenvalues --   -0.36791  -0.36708  -0.36146  -0.35895  -0.35287
 Alpha  occ. eigenvalues --   -0.33861  -0.33233  -0.32106  -0.31911  -0.31533
 Alpha  occ. eigenvalues --   -0.30468  -0.28606  -0.27730  -0.27108  -0.26531
 Alpha  occ. eigenvalues --   -0.26290  -0.25920  -0.25541  -0.23889  -0.23144
 Alpha virt. eigenvalues --   -0.05051  -0.04882  -0.03087  -0.02181  -0.00969
 Alpha virt. eigenvalues --    0.00188   0.01184   0.02973   0.04062   0.05673
 Alpha virt. eigenvalues --    0.05997   0.06400   0.06729   0.07532   0.08092
 Alpha virt. eigenvalues --    0.08657   0.09317   0.09942   0.10510   0.10709
 Alpha virt. eigenvalues --    0.11188   0.11448   0.12774   0.13027   0.13586
 Alpha virt. eigenvalues --    0.13864   0.14113   0.14703   0.14995   0.15091
 Alpha virt. eigenvalues --    0.15376   0.15504   0.16190   0.16718   0.17625
 Alpha virt. eigenvalues --    0.17812   0.18161   0.18905   0.19528   0.20189
 Alpha virt. eigenvalues --    0.20606   0.21841   0.22552   0.23211   0.24174
 Alpha virt. eigenvalues --    0.24569   0.24788   0.26238   0.27268   0.27550
 Alpha virt. eigenvalues --    0.28583   0.29552   0.29819   0.29928   0.31555
 Alpha virt. eigenvalues --    0.32107   0.32889   0.33976   0.35197   0.35606
 Alpha virt. eigenvalues --    0.36605   0.37185   0.37863   0.38261   0.39074
 Alpha virt. eigenvalues --    0.39446   0.41701   0.42209   0.42627   0.43002
 Alpha virt. eigenvalues --    0.43602   0.44613   0.44785   0.44908   0.45167
 Alpha virt. eigenvalues --    0.45661   0.46006   0.46474   0.46970   0.47465
 Alpha virt. eigenvalues --    0.47859   0.48186   0.49113   0.49155   0.49375
 Alpha virt. eigenvalues --    0.49755   0.49961   0.50270   0.50382   0.50734
 Alpha virt. eigenvalues --    0.51118   0.51291   0.52100   0.52576   0.52719
 Alpha virt. eigenvalues --    0.53326   0.53666   0.53798   0.54161   0.54614
 Alpha virt. eigenvalues --    0.55172   0.55686   0.56649   0.56978   0.57708
 Alpha virt. eigenvalues --    0.57840   0.58629   0.58977   0.59197   0.59597
 Alpha virt. eigenvalues --    0.60167   0.60231   0.61347   0.61548   0.61986
 Alpha virt. eigenvalues --    0.62117   0.62379   0.63199   0.64063   0.64128
 Alpha virt. eigenvalues --    0.64393   0.64400   0.64716   0.64914   0.65527
 Alpha virt. eigenvalues --    0.66099   0.66432   0.66809   0.67182   0.67444
 Alpha virt. eigenvalues --    0.67966   0.68042   0.68497   0.68630   0.69290
 Alpha virt. eigenvalues --    0.69379   0.70054   0.70325   0.70626   0.71521
 Alpha virt. eigenvalues --    0.71875   0.72979   0.73199   0.73598   0.74395
 Alpha virt. eigenvalues --    0.75957   0.76462   0.77411   0.78850   0.80103
 Alpha virt. eigenvalues --    0.81133   0.81367   0.82951   0.83839   0.85332
 Alpha virt. eigenvalues --    0.85611   0.86090   0.86448   0.86777   0.87165
 Alpha virt. eigenvalues --    0.87623   0.88237   0.88605   0.89990   0.90272
 Alpha virt. eigenvalues --    0.90941   0.91496   0.91568   0.92588   0.93336
 Alpha virt. eigenvalues --    0.93556   0.94205   0.95526   0.95905   0.97084
 Alpha virt. eigenvalues --    0.97484   0.98638   0.99122   0.99468   0.99817
 Alpha virt. eigenvalues --    1.00195   1.00809   1.00861   1.01948   1.02613
 Alpha virt. eigenvalues --    1.03638   1.03715   1.03866   1.04664   1.05438
 Alpha virt. eigenvalues --    1.05715   1.05875   1.06716   1.07095   1.07406
 Alpha virt. eigenvalues --    1.09118   1.10317   1.10683   1.11063   1.11545
 Alpha virt. eigenvalues --    1.13163   1.14068   1.14388   1.14757   1.15054
 Alpha virt. eigenvalues --    1.15506   1.17557   1.18338   1.18958   1.19413
 Alpha virt. eigenvalues --    1.19600   1.21045   1.22134   1.22692   1.23658
 Alpha virt. eigenvalues --    1.24730   1.25312   1.28417   1.28505   1.29512
 Alpha virt. eigenvalues --    1.30448   1.30756   1.32013   1.34142   1.34415
 Alpha virt. eigenvalues --    1.34998   1.36621   1.37650   1.37798   1.40391
 Alpha virt. eigenvalues --    1.41487   1.43722   1.44516   1.44746   1.46214
 Alpha virt. eigenvalues --    1.46441   1.46830   1.47663   1.48002   1.48412
 Alpha virt. eigenvalues --    1.48851   1.49332   1.49822   1.50772   1.50905
 Alpha virt. eigenvalues --    1.51362   1.52233   1.52690   1.54237   1.54895
 Alpha virt. eigenvalues --    1.55948   1.56315   1.56485   1.57196   1.57612
 Alpha virt. eigenvalues --    1.58076   1.58679   1.58955   1.59200   1.59709
 Alpha virt. eigenvalues --    1.60107   1.60393   1.60592   1.60988   1.61684
 Alpha virt. eigenvalues --    1.61784   1.62065   1.62644   1.63109   1.63365
 Alpha virt. eigenvalues --    1.63961   1.64481   1.64605   1.65069   1.66034
 Alpha virt. eigenvalues --    1.66517   1.66808   1.67499   1.67627   1.68052
 Alpha virt. eigenvalues --    1.68680   1.69377   1.69696   1.69932   1.70974
 Alpha virt. eigenvalues --    1.71320   1.71794   1.72777   1.73265   1.73374
 Alpha virt. eigenvalues --    1.74333   1.74676   1.74994   1.75443   1.75992
 Alpha virt. eigenvalues --    1.76331   1.77153   1.77425   1.77759   1.78660
 Alpha virt. eigenvalues --    1.79051   1.79861   1.80464   1.81073   1.81695
 Alpha virt. eigenvalues --    1.82358   1.82915   1.83358   1.83488   1.84143
 Alpha virt. eigenvalues --    1.84650   1.85045   1.85420   1.85856   1.86394
 Alpha virt. eigenvalues --    1.87121   1.87743   1.87958   1.88508   1.89459
 Alpha virt. eigenvalues --    1.90649   1.91764   1.92009   1.92919   1.93308
 Alpha virt. eigenvalues --    1.94381   1.95174   1.95773   1.96765   1.97623
 Alpha virt. eigenvalues --    1.97844   1.98667   1.98937   1.99334   2.00010
 Alpha virt. eigenvalues --    2.00331   2.00953   2.02460   2.02815   2.03895
 Alpha virt. eigenvalues --    2.04857   2.05001   2.06183   2.06623   2.07240
 Alpha virt. eigenvalues --    2.08833   2.09467   2.09907   2.10925   2.12665
 Alpha virt. eigenvalues --    2.13589   2.14513   2.15247   2.15620   2.17476
 Alpha virt. eigenvalues --    2.17811   2.18776   2.19362   2.21402   2.21616
 Alpha virt. eigenvalues --    2.22291   2.23334   2.23799   2.25049   2.27642
 Alpha virt. eigenvalues --    2.28910   2.30210   2.31793   2.32839   2.35949
 Alpha virt. eigenvalues --    2.37727   2.38268   2.38818   2.39230   2.39378
 Alpha virt. eigenvalues --    2.40461   2.41307   2.42297   2.42902   2.43246
 Alpha virt. eigenvalues --    2.43843   2.44415   2.45574   2.45952   2.46836
 Alpha virt. eigenvalues --    2.46926   2.47570   2.49097   2.51228   2.51469
 Alpha virt. eigenvalues --    2.53306   2.53697   2.55305   2.57702   2.58612
 Alpha virt. eigenvalues --    2.59371   2.60877   2.62084   2.63992   2.65433
 Alpha virt. eigenvalues --    2.66619   2.67716   2.69128   2.70125   2.71276
 Alpha virt. eigenvalues --    2.72317   2.72870   2.73403   2.74883   2.76534
 Alpha virt. eigenvalues --    2.77892   2.79672   2.80736   2.83144   2.84163
 Alpha virt. eigenvalues --    2.85576   2.87656   2.89883   2.91984   2.95759
 Alpha virt. eigenvalues --    2.96591   3.00439   3.08279   3.09017   3.12478
 Alpha virt. eigenvalues --    3.38135   3.40192   3.48718   3.53003   3.53434
          Condensed to atoms (all electrons):
 Mulliken atomic charges:
              1
     1  O   -0.263496
     2  C    0.126836
     3  C    0.167711
     4  N   -0.245168
     5  N   -0.060155
     6  N   -0.180076
     7  C    0.009903
     8  C    0.043093
     9  C    0.039435
    10  C    0.043581
    11  C    0.030636
    12  C    0.183837
    13  N   -0.270574
    14  C    0.131432
    15  C   -0.110117
    16  C    0.039104
    17  C   -0.013417
    18  C    0.041001
    19  C    0.076855
    20  C    0.095506
    21  C    0.016732
    22  C    0.033804
    23  C    0.022786
    24  C    0.061168
    25  C   -0.044805
    26  C    0.075511
    27  C   -0.008296
    28  C    0.105412
    29  N   -0.173213
    30  C    0.099803
    31  H    0.042458
    32  H    0.044681
    33  H   -0.021197
    34  H   -0.024679
    35  H   -0.020356
    36  H   -0.007251
    37  H    0.043825
    38  H    0.010539
    39  H   -0.021042
    40  H    0.012997
    41  H    0.008098
    42  H    0.012633
    43  H    0.006069
    44  H    0.011757
    45  H    0.007119
    46  H   -0.029426
    47  H   -0.033589
    48  H   -0.031644
    49  H   -0.023200
    50  H   -0.027875
    51  H   -0.023230
    52  H   -0.003281
    53  H   -0.008232
 Sum of Mulliken atomic charges =   0.00000
 Mulliken charges with hydrogens summed into heavy atoms:
              1
     1  O   -0.263496
     2  C    0.126836
     3  C    0.254850
     4  N   -0.245168
     5  N   -0.060155
     6  N   -0.180076
     7  C    0.009903
     8  C    0.021896
     9  C    0.014756
    10  C    0.023225
    11  C    0.023385
    12  C    0.183837
    13  N   -0.270574
    14  C    0.185796
    15  C   -0.131159
    16  C    0.060200
    17  C    0.005285
    18  C    0.059878
    19  C    0.076855
    20  C    0.066080
    21  C   -0.016857
    22  C    0.033804
    23  C   -0.008858
    24  C    0.037968
    25  C   -0.044805
    26  C    0.047635
    27  C   -0.031526
    28  C    0.102130
    29  N   -0.173213
    30  C    0.091571
 Sum of Mulliken charges with hydrogens summed into heavy atoms =   0.00000
 Electronic spatial extent (au):  <R**2>=          16428.9093
 Charge=              0.0000 electrons
 Dipole moment (field-independent basis, Debye):
    X=             -1.4791    Y=              2.4360    Z=              1.3157  Tot=              3.1390
 Quadrupole moment (field-independent basis, Debye-Ang):
   XX=           -181.4222   YY=           -169.8923   ZZ=           -174.8722
   XY=            -17.2850   XZ=             -0.9035   YZ=              4.4481
 Traceless Quadrupole moment (field-independent basis, Debye-Ang):
   XX=             -6.0266   YY=              5.5033   ZZ=              0.5233
   XY=            -17.2850   XZ=             -0.9035   YZ=              4.4481
 Octapole moment (field-independent basis, Debye-Ang**2):
  XXX=           -137.3998  YYY=              5.6167  ZZZ=              4.5734  XYY=             84.1006
  XXY=              9.8915  XXZ=             91.1132  XZZ=              6.9570  YZZ=             12.7360
  YYZ=             11.6539  XYZ=             30.3276
 Hexadecapole moment (field-independent basis, Debye-Ang**3):
 XXXX=         -15752.5722 YYYY=          -5356.6720 ZZZZ=          -1152.6023 XXXY=           -550.7595
 XXXZ=           -287.6316 YYYX=           -271.5380 YYYZ=            -27.8083 ZZZX=              0.5354
 ZZZY=             19.3434 XXYY=          -3714.4851 XXZZ=          -2968.3872 YYZZ=          -1099.6979
 XXYZ=             53.6775 YYXZ=            -59.2837 ZZXY=            -50.5664
 N-N= 2.674280568324D+03 E-N=-8.315100691291D+03  KE= 1.268638070164D+03
 No NMR shielding tensors so no spin-rotation constants.
 Leave Link  601 at Sat Sep 10 10:49:32 2022, MaxMem=  209715200 cpu:       3.9
 (Enter /opt/gaussian/l602.exe)
 Breneman (CHELPG) radii used.
 Read replacement radii for each type of atom:
 Rad(35) =   1.900000000000D+00
 Atom Element Radius
    1     8    1.70
    2     6    1.50
    3     6    1.50
    4     7    1.70
    5     7    1.70
    6     7    1.70
    7     6    1.50
    8     6    1.50
    9     6    1.50
   10     6    1.50
   11     6    1.50
   12     6    1.50
   13     7    1.70
   14     6    1.50
   15     6    1.50
   16     6    1.50
   17     6    1.50
   18     6    1.50
   19     6    1.50
   20     6    1.50
   21     6    1.50
   22     6    1.50
   23     6    1.50
   24     6    1.50
   25     6    1.50
   26     6    1.50
   27     6    1.50
   28     6    1.50
   29     7    1.70
   30     6    1.50
   31     1    1.45
   32     1    1.45
   33     1    1.45
   34     1    1.45
   35     1    1.45
   36     1    1.45
   37     1    1.45
   38     1    1.45
   39     1    1.45
   40     1    1.45
   41     1    1.45
   42     1    1.45
   43     1    1.45
   44     1    1.45
   45     1    1.45
   46     1    1.45
   47     1    1.45
   48     1    1.45
   49     1    1.45
   50     1    1.45
   51     1    1.45
   52     1    1.45
   53     1    1.45
 Generate Potential Derived Charges using the Breneman model, NDens= 1.
 Grid spacing= 0.300 Box extension= 2.800
 NStep X,Y,Z=   69     55     35   Total possible points=      132825
 Number of Points to Fit=   29094

 **********************************************************************

            Electrostatic Properties Using The SCF Density

 **********************************************************************

       Atomic Center    1 is at   1.046300 -0.558921  2.119080
       Atomic Center    2 is at   1.433470  0.290209  1.325910
       Atomic Center    3 is at   2.906190  0.742889  1.388620
       Atomic Center    4 is at   3.730190  0.065029  0.403320
       Atomic Center    5 is at   4.367820  0.779369 -0.573660
       Atomic Center    6 is at   5.057240 -0.021681 -1.313720
       Atomic Center    7 is at   4.893230 -1.306801 -0.834840
       Atomic Center    8 is at   5.431480 -2.529511 -1.276230
       Atomic Center    9 is at   5.075030 -3.672221 -0.574260
       Atomic Center   10 is at   4.198660 -3.614841  0.540860
       Atomic Center   11 is at   3.654020 -2.419211  0.992230
       Atomic Center   12 is at   4.028240 -1.266371  0.279660
       Atomic Center   13 is at   0.629670  0.834389  0.349180
       Atomic Center   14 is at   1.066620  1.913489 -0.561810
       Atomic Center   15 is at   0.782330  3.318299 -0.037710
       Atomic Center   16 is at   1.145760  4.514849 -0.962790
       Atomic Center   17 is at  -0.143180  5.231799 -0.476200
       Atomic Center   18 is at  -0.677590  3.858779  0.013650
       Atomic Center   19 is at  -0.730880  0.376719  0.246370
       Atomic Center   20 is at  -1.606030  0.451350  1.337450
       Atomic Center   21 is at  -2.924070  0.017680  1.210270
       Atomic Center   22 is at  -3.411600 -0.499270 -0.004580
       Atomic Center   23 is at  -2.519770 -0.575300 -1.088900
       Atomic Center   24 is at  -1.196480 -0.152020 -0.963590
       Atomic Center   25 is at  -4.818540 -0.952470 -0.135040
       Atomic Center   26 is at  -5.882090 -0.269190  0.477410
       Atomic Center   27 is at  -7.183250 -0.742510  0.317080
       Atomic Center   28 is at  -7.389050 -1.887590 -0.456890
       Atomic Center   29 is at  -6.395240 -2.565160 -1.047690
       Atomic Center   30 is at  -5.152690 -2.101080 -0.879330
       Atomic Center   31 is at   3.052290  1.817829  1.229960
       Atomic Center   32 is at   3.251670  0.479939  2.398030
       Atomic Center   33 is at   6.100770 -2.562011 -2.137140
       Atomic Center   34 is at   5.470670 -4.641621 -0.884210
       Atomic Center   35 is at   3.940130 -4.542701  1.055880
       Atomic Center   36 is at   2.959160 -2.370731  1.831050
       Atomic Center   37 is at   2.136930  1.799109 -0.781040
       Atomic Center   38 is at   0.543380  1.768759 -1.518680
       Atomic Center   39 is at   1.263450  3.447119  0.947780
       Atomic Center   40 is at   2.113360  5.012489 -0.799310
       Atomic Center   41 is at   1.075470  4.231369 -2.026230
       Atomic Center   42 is at   0.063230  5.913599  0.363700
       Atomic Center   43 is at  -0.739120  5.772569 -1.226230
       Atomic Center   44 is at  -1.309380  3.372680 -0.747110
       Atomic Center   45 is at  -1.206120  3.821740  0.977670
       Atomic Center   46 is at  -1.246810  0.833850  2.292220
       Atomic Center   47 is at  -3.581870  0.061660  2.080760
       Atomic Center   48 is at  -2.866130 -0.958420 -2.050600
       Atomic Center   49 is at  -0.519430 -0.236781 -1.815860
       Atomic Center   50 is at  -5.691710  0.638070  1.055330
       Atomic Center   51 is at  -8.029080 -0.226210  0.775760
       Atomic Center   52 is at  -8.399540 -2.280890 -0.610240
       Atomic Center   53 is at  -4.358260 -2.689750 -1.350230
   29094 points will be used for fitting atomic charges
 Fitting point charges to electrostatic potential
 Charges from ESP fit, RMS=   0.00374 RRMS=   0.28227:
 Charge=   0.00000 Dipole=    -1.3764     2.3180     1.2791 Tot=     2.9839
              1
     1  O   -0.537260
     2  C    0.633277
     3  C   -0.092600
     4  N    0.286307
     5  N   -0.175310
     6  N   -0.363420
     7  C    0.413670
     8  C   -0.267194
     9  C   -0.037494
    10  C   -0.108481
    11  C   -0.143715
    12  C   -0.088061
    13  N   -0.540120
    14  C    0.347674
    15  C   -0.027926
    16  C   -0.024502
    17  C    0.028415
    18  C    0.084274
    19  C    0.305985
    20  C   -0.178208
    21  C   -0.064117
    22  C    0.020677
    23  C   -0.095908
    24  C   -0.160839
    25  C   -0.136689
    26  C    0.097224
    27  C   -0.300691
    28  C    0.336374
    29  N   -0.534207
    30  C    0.323238
    31  H    0.029654
    32  H    0.058234
    33  H    0.133466
    34  H    0.083769
    35  H    0.099069
    36  H    0.129877
    37  H   -0.092016
    38  H    0.016572
    39  H    0.034153
    40  H   -0.006183
    41  H    0.005860
    42  H   -0.003391
    43  H   -0.010532
    44  H   -0.052317
    45  H   -0.048214
    46  H    0.141233
    47  H    0.079674
    48  H    0.090709
    49  H    0.107566
    50  H    0.057675
    51  H    0.118029
    52  H    0.014919
    53  H    0.011820
 Charges from ESP fit with hydrogens summed into heavy atoms:
              1
     1  O   -0.537260
     2  C    0.633277
     3  C   -0.004712
     4  N    0.286307
     5  N   -0.175310
     6  N   -0.363420
     7  C    0.413670
     8  C   -0.133729
     9  C    0.046275
    10  C   -0.009412
    11  C   -0.013838
    12  C   -0.088061
    13  N   -0.540120
    14  C    0.272230
    15  C    0.006227
    16  C   -0.024824
    17  C    0.014492
    18  C   -0.016257
    19  C    0.305985
    20  C   -0.036975
    21  C    0.015557
    22  C    0.020677
    23  C   -0.005198
    24  C   -0.053273
    25  C   -0.136689
    26  C    0.154899
    27  C   -0.182661
    28  C    0.351293
    29  N   -0.534207
    30  C    0.335058
    31  H    0.000000
    32  H    0.000000
    33  H    0.000000
    34  H    0.000000
    35  H    0.000000
    36  H    0.000000
    37  H    0.000000
    38  H    0.000000
    39  H    0.000000
    40  H    0.000000
    41  H    0.000000
    42  H    0.000000
    43  H    0.000000
    44  H    0.000000
    45  H    0.000000
    46  H    0.000000
    47  H    0.000000
    48  H    0.000000
    49  H    0.000000
    50  H    0.000000
    51  H    0.000000
    52  H    0.000000
    53  H    0.000000
 -----------------------------------------------------------------

              Electrostatic Properties (Atomic Units)

 -----------------------------------------------------------------
    Center     Electric         -------- Electric Field --------
               Potential          X             Y             Z
 -----------------------------------------------------------------
    1 Atom    -22.366897
    2 Atom    -14.638406
    3 Atom    -14.684369
    4 Atom    -18.284616
    5 Atom    -18.321611
    6 Atom    -18.361492
    7 Atom    -14.730664
    8 Atom    -14.743007
    9 Atom    -14.746709
   10 Atom    -14.742700
   11 Atom    -14.741008
   12 Atom    -14.709630
   13 Atom    -18.321662
   14 Atom    -14.704452
   15 Atom    -14.737965
   16 Atom    -14.746053
   17 Atom    -14.746877
   18 Atom    -14.747590
   19 Atom    -14.703076
   20 Atom    -14.743844
   21 Atom    -14.742861
   22 Atom    -14.732824
   23 Atom    -14.741853
   24 Atom    -14.741131
   25 Atom    -14.733473
   26 Atom    -14.733931
   27 Atom    -14.742546
   28 Atom    -14.718727
   29 Atom    -18.383562
   30 Atom    -14.718677
   31 Atom     -1.058302
   32 Atom     -1.069366
   33 Atom     -1.084373
   34 Atom     -1.091281
   35 Atom     -1.089718
   36 Atom     -1.083180
   37 Atom     -1.086335
   38 Atom     -1.085415
   39 Atom     -1.100657
   40 Atom     -1.105919
   41 Atom     -1.102944
   42 Atom     -1.106926
   43 Atom     -1.108571
   44 Atom     -1.105009
   45 Atom     -1.107147
   46 Atom     -1.085615
   47 Atom     -1.084404
   48 Atom     -1.083602
   49 Atom     -1.078217
   50 Atom     -1.076823
   51 Atom     -1.079301
   52 Atom     -1.092810
   53 Atom     -1.093388
 -----------------------------------------------------------------
 Leave Link  602 at Sat Sep 10 10:49:47 2022, MaxMem=  209715200 cpu:     110.1
 (Enter /opt/gaussian/l9999.exe)
 1\1\GINC-LQCAPF-6\SP\RB3LYP\CC-pVDZ\C24H23N5O1\LQCAPF-6\10-Sep-2022\0\
 \#p b3lyp/cc-pvdz pop=(chelpg,readradii)\\Mol24.log\\0,1\O,0,1.0463,-0
 .55892,2.11908\C,0,1.43347,0.29021,1.32591\C,0,2.90619,0.74289,1.38862
 \N,0,3.73019,0.06503,0.40332\N,0,4.36782,0.77937,-0.57366\N,0,5.05724,
 -0.02168,-1.31372\C,0,4.89323,-1.3068,-0.83484\C,0,5.43148,-2.52951,-1
 .27623\C,0,5.07503,-3.67222,-0.57426\C,0,4.19866,-3.61484,0.54086\C,0,
 3.65402,-2.41921,0.99223\C,0,4.02824,-1.26637,0.27966\N,0,0.62967,0.83
 439,0.34918\C,0,1.06662,1.91349,-0.56181\C,0,0.78233,3.3183,-0.03771\C
 ,0,1.14576,4.51485,-0.96279\C,0,-0.14318,5.2318,-0.4762\C,0,-0.67759,3
 .85878,0.01365\C,0,-0.73088,0.37672,0.24637\C,0,-1.60603,0.45135,1.337
 45\C,0,-2.92407,0.01768,1.21027\C,0,-3.4116,-0.49927,-0.00458\C,0,-2.5
 1977,-0.5753,-1.0889\C,0,-1.19648,-0.15202,-0.96359\C,0,-4.81854,-0.95
 247,-0.13504\C,0,-5.88209,-0.26919,0.47741\C,0,-7.18325,-0.74251,0.317
 08\C,0,-7.38905,-1.88759,-0.45689\N,0,-6.39524,-2.56516,-1.04769\C,0,-
 5.15269,-2.10108,-0.87933\H,0,3.05229,1.81783,1.22996\H,0,3.25167,0.47
 994,2.39803\H,0,6.10077,-2.56201,-2.13714\H,0,5.47067,-4.64162,-0.8842
 1\H,0,3.94013,-4.5427,1.05588\H,0,2.95916,-2.37073,1.83105\H,0,2.13693
 ,1.79911,-0.78104\H,0,0.54338,1.76876,-1.51868\H,0,1.26345,3.44712,0.9
 4778\H,0,2.11336,5.01249,-0.79931\H,0,1.07547,4.23137,-2.02623\H,0,0.0
 6323,5.9136,0.3637\H,0,-0.73912,5.77257,-1.22623\H,0,-1.30938,3.37268,
 -0.74711\H,0,-1.20612,3.82174,0.97767\H,0,-1.24681,0.83385,2.29222\H,0
 ,-3.58187,0.06166,2.08076\H,0,-2.86613,-0.95842,-2.0506\H,0,-0.51943,-
 0.23678,-1.81586\H,0,-5.69171,0.63807,1.05533\H,0,-8.02908,-0.22621,0.
 77576\H,0,-8.39954,-2.28089,-0.61024\H,0,-4.35826,-2.68975,-1.35023\\V
 ersion=EM64L-G09RevC.01\State=1-A\HF=-1277.4122755\RMSD=3.369e-09\Dipo
 le=-0.5819325,0.9584152,0.5176216\Quadrupole=-4.48064,4.0915696,0.3890
 704,-12.8509996,-0.6717316,3.3070204\PG=C01 [X(C24H23N5O1)]\\@


 My opinions may have changed, but not the fact that I am right.
                       -- Ashleigh Brilliant
 Job cpu time:  0 days  1 hours 38 minutes 28.4 seconds.
 File lengths (MBytes):  RWF=    159 Int=      0 D2E=      0 Chk=     11 Scr=      1
 Normal termination of Gaussian 09 at Sat Sep 10 10:49:47 2022.
