 Entering Gaussian System, Link 0=g09
 Input=Mol21.gjf
 Output=Mol21.log
 Initial command:
 /opt/gaussian/l1.exe /home/scr/lqcapf-6/Gau-558199.inp -scrdir=/home/scr/lqcapf-6/
 Entering Link 1 = /opt/gaussian/l1.exe PID=    558201.
  
 Copyright (c) 1988,1990,1992,1993,1995,1998,2003,2009,2011,
            Gaussian, Inc.  All Rights Reserved.
  
 This is part of the Gaussian(R) 09 program.  It is based on
 the Gaussian(R) 03 system (copyright 2003, Gaussian, Inc.),
 the Gaussian(R) 98 system (copyright 1998, Gaussian, Inc.),
 the Gaussian(R) 94 system (copyright 1995, Gaussian, Inc.),
 the Gaussian 92(TM) system (copyright 1992, Gaussian, Inc.),
 the Gaussian 90(TM) system (copyright 1990, Gaussian, Inc.),
 the Gaussian 88(TM) system (copyright 1988, Gaussian, Inc.),
 the Gaussian 86(TM) system (copyright 1986, Carnegie Mellon
 University), and the Gaussian 82(TM) system (copyright 1983,
 Carnegie Mellon University). Gaussian is a federally registered
 trademark of Gaussian, Inc.
  
 This software contains proprietary and confidential information,
 including trade secrets, belonging to Gaussian, Inc.
  
 This software is provided under written license and may be
 used, copied, transmitted, or stored only in accord with that
 written license.
  
 The following legend is applicable only to US Government
 contracts under FAR:
  
                    RESTRICTED RIGHTS LEGEND
  
 Use, reproduction and disclosure by the US Government is
 subject to restrictions as set forth in subparagraphs (a)
 and (c) of the Commercial Computer Software - Restricted
 Rights clause in FAR 52.227-19.
  
 Gaussian, Inc.
 340 Quinnipiac St., Bldg. 40, Wallingford CT 06492
  
  
 ---------------------------------------------------------------
 Warning -- This program may not be used in any manner that
 competes with the business of Gaussian, Inc. or will provide
 assistance to any competitor of Gaussian, Inc.  The licensee
 of this program is prohibited from giving any competitor of
 Gaussian, Inc. access to this program.  By using this program,
 the user acknowledges that Gaussian, Inc. is engaged in the
 business of creating and licensing software in the field of
 computational chemistry and represents and warrants to the
 licensee that it is not a competitor of Gaussian, Inc. and that
 it will not use this program in any manner prohibited above.
 ---------------------------------------------------------------
  

 Cite this work as:
 Gaussian 09, Revision C.01,
 M. J. Frisch, G. W. Trucks, H. B. Schlegel, G. E. Scuseria, 
 M. A. Robb, J. R. Cheeseman, G. Scalmani, V. Barone, B. Mennucci, 
 G. A. Petersson, H. Nakatsuji, M. Caricato, X. Li, H. P. Hratchian, 
 A. F. Izmaylov, J. Bloino, G. Zheng, J. L. Sonnenberg, M. Hada, 
 M. Ehara, K. Toyota, R. Fukuda, J. Hasegawa, M. Ishida, T. Nakajima, 
 Y. Honda, O. Kitao, H. Nakai, T. Vreven, J. A. Montgomery, Jr., 
 J. E. Peralta, F. Ogliaro, M. Bearpark, J. J. Heyd, E. Brothers, 
 K. N. Kudin, V. N. Staroverov, T. Keith, R. Kobayashi, J. Normand, 
 K. Raghavachari, A. Rendell, J. C. Burant, S. S. Iyengar, J. Tomasi, 
 M. Cossi, N. Rega, J. M. Millam, M. Klene, J. E. Knox, J. B. Cross, 
 V. Bakken, C. Adamo, J. Jaramillo, R. Gomperts, R. E. Stratmann, 
 O. Yazyev, A. J. Austin, R. Cammi, C. Pomelli, J. W. Ochterski, 
 R. L. Martin, K. Morokuma, V. G. Zakrzewski, G. A. Voth, 
 P. Salvador, J. J. Dannenberg, S. Dapprich, A. D. Daniels, 
 O. Farkas, J. B. Foresman, J. V. Ortiz, J. Cioslowski, 
 and D. J. Fox, Gaussian, Inc., Wallingford CT, 2010.
 
 ******************************************
 Gaussian 09:  EM64L-G09RevC.01 23-Sep-2011
                10-Sep-2022 
 ******************************************
 %nprocshared=8
 Will use up to    8 processors via shared memory.
 %mem=1600MB
 ---------------------------------------
 #p b3lyp/cc-pvdz pop=(chelpg,readradii)
 ---------------------------------------
 1/38=1/1;
 2/12=2,17=6,18=5,40=1/2;
 3/5=16,11=2,16=1,25=1,30=1,74=-5/1,2,3;
 4//1;
 5/5=2,38=5/2;
 6/7=2,8=2,9=2,10=2,15=8,20=103,28=1/1,2;
 99/5=1,9=1/99;
 Leave Link    1 at Sat Sep 10 10:01:43 2022, MaxMem=  209715200 cpu:       0.2
 (Enter /opt/gaussian/l101.exe)
 ---------
 Mol21.log
 ---------
 Charge =  0 Multiplicity = 1
 Symbolic Z-Matrix:
 O                     0.83022  -1.44298  -0.10121 
 C                     0.93486  -0.37738  -0.68074 
 C                     2.31422   0.11864  -1.1624 
 N                     3.34788  -0.86306  -0.94986 
 N                     3.93313  -1.45511  -2.0363 
 N                     4.8518   -2.26765  -1.64174 
 C                     4.9003   -2.2334   -0.26142 
 C                     5.73049  -2.91818   0.64382 
 C                     5.54992  -2.66284   1.99571 
 C                     4.56202  -1.75096   2.44841 
 C                     3.72976  -1.0703    1.56918 
 C                     3.92192  -1.32733   0.20159 
 N                    -0.13826   0.46193  -0.94856 
 C                     0.061     1.78505  -1.55228 
 C                     0.5331    2.87387  -0.60945 
 C                     0.97252   4.15956  -1.07505 
 C                     1.34014   5.00164  -0.06023 
 S                     1.16321   4.24563   1.49335 
 C                     0.58478   2.77948   0.76014 
 C                    -1.48087   0.06401  -0.6207 
 C                    -2.39219   1.01232  -0.12923 
 C                    -3.7124    0.65459   0.14183 
 C                    -4.16535  -0.65955  -0.05753 
 C                    -3.2425   -1.60179  -0.54602 
 C                    -1.92421  -1.2527   -0.82637 
 C                    -5.54983  -1.06288   0.22585 
 C                    -6.59698  -0.30626   0.72562 
 N                    -7.67019  -1.16698   0.80117 
 C                    -7.24548  -2.38749   0.35466 
 N                    -5.97983  -2.36049   0.00183 
 H                     2.30613   0.30603  -2.24518 
 H                     2.57608   1.06239  -0.6578 
 H                     6.48334  -3.61956   0.281 
 H                     6.17373  -3.17423   2.7317 
 H                     4.44799  -1.58664   3.52228 
 H                     2.95679  -0.38973   1.92627 
 H                     0.76706   1.70417  -2.39382 
 H                    -0.89776   2.07783  -2.00496 
 H                     1.01321   4.44034  -2.12885 
 H                     1.71114   6.02199  -0.13332 
 H                     0.30769   1.93063   1.38182 
 H                    -2.07269   2.03874   0.05646 
 H                    -4.39223   1.42      0.52268 
 H                    -3.58327  -2.62448  -0.70959 
 H                    -1.2346   -2.00708  -1.19826 
 H                    -6.67727   0.73276   1.02795 
 H                    -7.90252  -3.25365   0.31041 
 H                    -8.59905  -0.93479   1.12906 
 
 NAtoms=     48 NQM=        0 NQMF=       0 NMMI=     48 NMMIF=      0
                NMic=       0 NMicF=      0.
                    Isotopes and Nuclear Properties:
 (Nuclear quadrupole moments (NQMom) in fm**2, nuclear magnetic moments (NMagM)
  in nuclear magnetons)

  Atom         1           2           3           4           5           6           7           8           9          10
 IAtWgt=          16          12          12          14          14          14          12          12          12          12
 AtmWgt=  15.9949146  12.0000000  12.0000000  14.0030740  14.0030740  14.0030740  12.0000000  12.0000000  12.0000000  12.0000000
 NucSpn=           0           0           0           2           2           2           0           0           0           0
 AtZEff=   0.0000000   0.0000000   0.0000000   0.0000000   0.0000000   0.0000000   0.0000000   0.0000000   0.0000000   0.0000000
 NQMom=    0.0000000   0.0000000   0.0000000   2.0440000   2.0440000   2.0440000   0.0000000   0.0000000   0.0000000   0.0000000
 NMagM=    0.0000000   0.0000000   0.0000000   0.4037610   0.4037610   0.4037610   0.0000000   0.0000000   0.0000000   0.0000000

  Atom        11          12          13          14          15          16          17          18          19          20
 IAtWgt=          12          12          14          12          12          12          12          32          12          12
 AtmWgt=  12.0000000  12.0000000  14.0030740  12.0000000  12.0000000  12.0000000  12.0000000  31.9720718  12.0000000  12.0000000
 NucSpn=           0           0           2           0           0           0           0           0           0           0
 AtZEff=   0.0000000   0.0000000   0.0000000   0.0000000   0.0000000   0.0000000   0.0000000   0.0000000   0.0000000   0.0000000
 NQMom=    0.0000000   0.0000000   2.0440000   0.0000000   0.0000000   0.0000000   0.0000000   0.0000000   0.0000000   0.0000000
 NMagM=    0.0000000   0.0000000   0.4037610   0.0000000   0.0000000   0.0000000   0.0000000   0.0000000   0.0000000   0.0000000

  Atom        21          22          23          24          25          26          27          28          29          30
 IAtWgt=          12          12          12          12          12          12          12          14          12          14
 AtmWgt=  12.0000000  12.0000000  12.0000000  12.0000000  12.0000000  12.0000000  12.0000000  14.0030740  12.0000000  14.0030740
 NucSpn=           0           0           0           0           0           0           0           2           0           2
 AtZEff=   0.0000000   0.0000000   0.0000000   0.0000000   0.0000000   0.0000000   0.0000000   0.0000000   0.0000000   0.0000000
 NQMom=    0.0000000   0.0000000   0.0000000   0.0000000   0.0000000   0.0000000   0.0000000   2.0440000   0.0000000   2.0440000
 NMagM=    0.0000000   0.0000000   0.0000000   0.0000000   0.0000000   0.0000000   0.0000000   0.4037610   0.0000000   0.4037610

  Atom        31          32          33          34          35          36          37          38          39          40
 IAtWgt=           1           1           1           1           1           1           1           1           1           1
 AtmWgt=   1.0078250   1.0078250   1.0078250   1.0078250   1.0078250   1.0078250   1.0078250   1.0078250   1.0078250   1.0078250
 NucSpn=           1           1           1           1           1           1           1           1           1           1
 AtZEff=   0.0000000   0.0000000   0.0000000   0.0000000   0.0000000   0.0000000   0.0000000   0.0000000   0.0000000   0.0000000
 NQMom=    0.0000000   0.0000000   0.0000000   0.0000000   0.0000000   0.0000000   0.0000000   0.0000000   0.0000000   0.0000000
 NMagM=    2.7928460   2.7928460   2.7928460   2.7928460   2.7928460   2.7928460   2.7928460   2.7928460   2.7928460   2.7928460

  Atom        41          42          43          44          45          46          47          48
 IAtWgt=           1           1           1           1           1           1           1           1
 AtmWgt=   1.0078250   1.0078250   1.0078250   1.0078250   1.0078250   1.0078250   1.0078250   1.0078250
 NucSpn=           1           1           1           1           1           1           1           1
 AtZEff=   0.0000000   0.0000000   0.0000000   0.0000000   0.0000000   0.0000000   0.0000000   0.0000000
 NQMom=    0.0000000   0.0000000   0.0000000   0.0000000   0.0000000   0.0000000   0.0000000   0.0000000
 NMagM=    2.7928460   2.7928460   2.7928460   2.7928460   2.7928460   2.7928460   2.7928460   2.7928460
 Leave Link  101 at Sat Sep 10 10:01:43 2022, MaxMem=  209715200 cpu:       0.7
 (Enter /opt/gaussian/l202.exe)
                          Input orientation:                          
 ---------------------------------------------------------------------
 Center     Atomic      Atomic             Coordinates (Angstroms)
 Number     Number       Type             X           Y           Z
 ---------------------------------------------------------------------
      1          8           0        0.830220   -1.442980   -0.101210
      2          6           0        0.934860   -0.377380   -0.680740
      3          6           0        2.314220    0.118640   -1.162400
      4          7           0        3.347880   -0.863060   -0.949860
      5          7           0        3.933130   -1.455110   -2.036300
      6          7           0        4.851800   -2.267650   -1.641740
      7          6           0        4.900300   -2.233400   -0.261420
      8          6           0        5.730490   -2.918180    0.643820
      9          6           0        5.549920   -2.662840    1.995710
     10          6           0        4.562020   -1.750960    2.448410
     11          6           0        3.729760   -1.070300    1.569180
     12          6           0        3.921920   -1.327330    0.201590
     13          7           0       -0.138260    0.461930   -0.948560
     14          6           0        0.061000    1.785050   -1.552280
     15          6           0        0.533100    2.873870   -0.609450
     16          6           0        0.972520    4.159560   -1.075050
     17          6           0        1.340140    5.001640   -0.060230
     18         16           0        1.163210    4.245630    1.493350
     19          6           0        0.584780    2.779480    0.760140
     20          6           0       -1.480870    0.064010   -0.620700
     21          6           0       -2.392190    1.012320   -0.129230
     22          6           0       -3.712400    0.654590    0.141830
     23          6           0       -4.165350   -0.659550   -0.057530
     24          6           0       -3.242500   -1.601790   -0.546020
     25          6           0       -1.924210   -1.252700   -0.826370
     26          6           0       -5.549830   -1.062880    0.225850
     27          6           0       -6.596980   -0.306260    0.725620
     28          7           0       -7.670190   -1.166980    0.801170
     29          6           0       -7.245480   -2.387490    0.354660
     30          7           0       -5.979830   -2.360490    0.001830
     31          1           0        2.306130    0.306030   -2.245180
     32          1           0        2.576080    1.062390   -0.657800
     33          1           0        6.483340   -3.619560    0.281000
     34          1           0        6.173730   -3.174230    2.731700
     35          1           0        4.447990   -1.586640    3.522280
     36          1           0        2.956790   -0.389730    1.926270
     37          1           0        0.767060    1.704170   -2.393820
     38          1           0       -0.897760    2.077830   -2.004960
     39          1           0        1.013210    4.440340   -2.128850
     40          1           0        1.711140    6.021990   -0.133320
     41          1           0        0.307690    1.930630    1.381820
     42          1           0       -2.072690    2.038740    0.056460
     43          1           0       -4.392230    1.420000    0.522680
     44          1           0       -3.583270   -2.624480   -0.709590
     45          1           0       -1.234600   -2.007080   -1.198260
     46          1           0       -6.677270    0.732760    1.027950
     47          1           0       -7.902520   -3.253650    0.310410
     48          1           0       -8.599050   -0.934790    1.129060
 ---------------------------------------------------------------------
                    Distance matrix (angstroms):
                    1          2          3          4          5
     1  O    0.000000
     2  C    1.217501   0.000000
     3  C    2.401466   1.542941   0.000000
     4  N    2.719398   2.476081   1.441305   0.000000
     5  N    3.656880   3.462466   2.421004   1.368719   0.000000
     6  N    4.384794   4.454106   3.516171   2.171024   1.288353
     7  C    4.149215   4.398335   3.609940   2.182152   2.165953
     8  C    5.171453   5.586429   4.914835   3.527062   3.543179
     9  C    5.306666   5.803920   5.308488   4.094456   4.508850
    10  C    4.530093   4.983432   4.646069   3.716281   4.538243
    11  C    3.366961   3.654278   3.298312   2.556236   3.631656
    12  C    3.108645   3.256292   2.556560   1.367811   2.241563
    13  N    2.298834   1.388436   2.485605   3.729447   4.629734
    14  C    3.621806   2.489843   2.829475   4.263681   5.072110
    15  C    4.356809   3.276754   3.327076   4.690790   5.686490
    16  C    5.688327   4.554198   4.258735   5.557402   6.419792
    17  C    6.464892   5.429838   5.099735   6.262361   7.233123
    18  S    5.917245   5.113808   5.040821   6.069660   7.254607
    19  C    4.316403   3.487758   3.710417   4.881283   6.079743
    20  C    2.807495   2.456457   3.833945   4.927944   5.798538
    21  C    4.051322   3.647560   4.900653   6.094168   7.052290
    22  C    5.009418   4.831005   6.189379   7.303602   8.224914
    23  C    5.056816   5.145887   6.618999   7.568771   8.374594
    24  C    4.100015   4.355188   5.849525   6.643938   7.330219
    25  C    2.854636   2.993606   4.467413   5.287911   5.984424
    26  C    6.399725   6.583542   8.072578   8.977275   9.756931
    27  C    7.559040   7.662344   9.118917  10.100371  10.946747
    28  N    8.552627   8.767349  10.256552  11.160481  11.948694
    29  C    8.143516   8.487082   9.998501  10.781694  11.469409
    30  N    6.872352   7.225757   8.734574   9.494956  10.160731
    31  H    3.135914   2.189727   1.098905   2.032208   2.406735
    32  H    3.103981   2.183361   1.101751   2.094835   3.174847
    33  H    6.069708   6.497869   5.782655   4.352519   4.069188
    34  H    6.290922   6.849297   6.395532   5.184672   5.541614
    35  H    5.122361   5.609792   5.422839   4.661957   5.583923
    36  H    3.121267   3.299220   3.195500   2.940938   4.217847
    37  H    3.894176   2.701046   2.534562   3.916162   4.486967
    38  H    4.359619   3.337680   3.855535   5.271388   5.984993
    39  H    6.225614   5.031261   4.615598   5.913269   6.579577
    40  H    7.516836   6.469483   6.022645   7.123873   8.029047
    41  H    3.722051   3.158228   3.712482   4.741750   6.024168
    42  H    4.535870   3.927653   4.941395   6.230225   7.256480
    43  H    5.988312   5.749494   7.036299   8.203051   9.172037
    44  H    4.609226   5.046166   6.519979   7.155499   7.721648
    45  H    2.405246   2.762301   4.136919   4.729652   5.264258
    46  H    7.897547   7.880137   9.274787  10.342244  11.258641
    47  H    8.927973   9.346368  10.859249  11.570424  12.199361
    48  H    9.522760   9.720161  11.200891  12.126673  12.936219
                    6          7          8          9         10
     6  N    0.000000
     7  C    1.381596   0.000000
     8  C    2.533588   1.406271   0.000000
     9  C    3.724861   2.387689   1.387592   0.000000
    10  C    4.132828   2.773150   2.446277   1.418594   0.000000
    11  C    3.605916   2.464561   2.876434   2.455829   1.388884
    12  C    2.268644   1.411584   2.448938   2.766376   2.374319
    13  N    5.729904   5.755350   6.957230   7.126591   6.207167
    14  C    6.275679   6.421299   7.686764   7.905707   6.983414
    15  C    6.793528   6.728876   7.882347   7.912680   6.853594
    16  C    7.528544   7.547144   8.699839   8.770821   7.761026
    17  C    8.226512   8.066041   9.082643   8.982950   7.891222
    18  S    8.115251   7.682636   8.538262   8.198936   6.958674
    19  C    7.032070   6.693001   7.678228   7.469812   6.260478
    20  C    6.825091   6.791650   7.905453   7.982062   7.016414
    21  C    8.094522   7.983269   9.056730   9.005514   7.914606
    22  C    9.223130   9.092948  10.108652  10.011632   8.920370
    23  C    9.295413   9.203509  10.174525  10.129928   9.145376
    24  C    8.195222   8.172216   9.146756   9.213733   8.360586
    25  C    6.899947   6.917722   7.970553   8.112660   7.283106
    26  C   10.636412  10.526764  11.439513  11.353269  10.376066
    27  C   11.854367  11.699383  12.601402  12.438399  11.383253
    28  N   12.805449  12.660315  13.515535  13.357988  12.356431
    29  C   12.261491  12.162371  12.990036  12.903144  12.008581
    30  N   10.956010  10.884056  11.741157  11.704790  10.839183
    31  H    3.669932   4.136874   5.519791   6.109133   5.599110
    32  H    4.151651   4.052326   5.243039   5.455472   4.637611
    33  H    2.861208   2.172941   1.091034   2.174124   3.446854
    34  H    4.657936   3.386082   2.149713   1.091943   2.168769
    35  H    5.224360   3.865135   3.421014   2.168611   1.092337
    36  H    4.455148   3.458661   3.966251   3.449083   2.168488
    37  H    5.746832   6.093871   7.431623   7.823970   7.055979
    38  H    7.216132   7.432640   8.712626   8.947172   8.018811
    39  H    7.743977   7.945789   9.169964   9.383437   8.478063
    40  H    8.992064   8.850910   9.832892   9.731150   8.672462
    41  H    6.885957   6.413381   7.311796   6.996985   5.726346
    42  H    8.329312   8.183814   9.263135   9.163500   8.006412
    43  H   10.185066  10.015651  11.013807  10.848306   9.692369
    44  H    8.493918   8.504397   9.416162   9.525507   8.779621
    45  H    6.108096   6.210144   7.261945   7.527362   6.853073
    46  H   12.208569  12.020845  12.939452  12.726776  11.597768
    47  H   12.940470  12.856131  13.641212  13.570462  12.735536
    48  H   13.797797  13.632765  14.474288  14.280427  13.252192
                   11         12         13         14         15
    11  C    0.000000
    12  C    1.404739   0.000000
    13  N    4.862954   4.583597   0.000000
    14  C    5.599673   5.260197   1.467934   0.000000
    15  C    5.524630   5.458202   2.526494   1.515696   0.000000
    16  C    6.476555   6.358831   3.862939   2.587840   1.436270
    17  C    6.725602   6.840322   4.856312   3.769465   2.341017
    18  S    5.903562   6.351142   4.687551   4.067577   2.588539
    19  C    5.036492   5.321125   2.968751   2.571094   1.373811
    20  C    5.764798   5.639338   1.438205   2.491422   3.457096
    21  C    6.685819   6.741765   2.460575   2.939443   3.500472
    22  C    7.771636   7.887612   3.741730   4.287948   4.849113
    23  C    8.071410   8.118929   4.274237   5.106112   5.904668
    24  C    7.305406   7.208548   3.749305   4.836978   5.855827
    25  C    6.143233   5.936287   2.478811   3.700801   4.807703
    26  C    9.376320   9.475472   5.743638   6.538644   7.293680
    27  C   10.389269  10.581325   6.716253   7.341056   7.920460
    28  N   11.426200  11.608713   7.902207   8.603750   9.252691
    29  C   11.120519  11.218654   7.767249   8.627350   9.440218
    30  N    9.919542   9.957509   6.556923   7.489485   8.377974
    31  H    4.297714   3.356386   2.771384   2.776368   3.523216
    32  H    3.292231   2.874126   2.795127   2.765494   2.730854
    33  H    3.967409   3.438240   7.875022   8.591692   8.852282
    34  H    3.427968   3.857868   8.161323   8.961719   8.919613
    35  H    2.144076   3.372087   6.724488   7.507672   7.231439
    36  H    1.090033   2.187485   4.309212   5.021512   4.791162
    37  H    5.672799   5.087169   2.109868   1.101477   2.146372
    38  H    6.640718   6.300261   2.074597   1.099936   2.151392
    39  H    7.170929   6.867136   4.306590   2.879184   2.234482
    40  H    7.567953   7.681941   5.916009   4.763200   3.394869
    41  H    4.555354   5.006986   2.790452   2.948049   2.214874
    42  H    6.754471   6.876543   2.690430   2.684220   2.816207
    43  H    8.559409   8.762192   4.602033   4.926457   5.258739
    44  H    7.815925   7.670771   4.631536   5.782282   6.869235
    45  H    5.760308   5.386217   2.712991   4.022954   5.224474
    46  H   10.575927  10.829112   6.836563   7.291720   7.697718
    47  H   11.902162  11.980815   8.699096   9.606027  10.466725
    48  H   12.337408  12.561408   8.823395   9.464860  10.046117
                   16         17         18         19         20
    16  C    0.000000
    17  C    1.368979   0.000000
    18  S    2.576907   1.736798   0.000000
    19  C    2.328709   2.486276   1.738325   0.000000
    20  C    4.795736   5.714229   5.380178   3.680680   0.000000
    21  C    4.703293   5.463490   5.072271   3.574379   1.404044
    22  C    5.976126   6.668271   6.204333   4.833552   2.431042
    23  C    7.117364   7.896803   7.406725   5.921085   2.836747
    24  C    7.158172   8.052445   7.600107   5.962353   2.425656
    25  C    6.143732   7.096458   6.718995   5.007047   1.404484
    26  C    8.456197   9.183242   8.651690   7.258281   4.306154
    27  C    8.971248   9.580670   9.029378   7.816691   5.303231
    28  N   10.324179  10.953535  10.382891   9.149905   6.468750
    29  C   10.603936  11.335089  10.770374   9.390153   6.339709
    30  N    9.591970  10.382041   9.843194   8.371883   5.148435
    31  H    4.242336   5.268387   5.550074   4.255931   4.127818
    32  H    3.512544   4.171610   4.093491   2.987345   4.178155
    33  H    9.629264  10.044602   9.572606   8.716094   8.821020
    34  H    9.763627   9.899662   9.038426   8.400600   8.962013
    35  H    8.138375   8.117792   6.994406   6.451109   7.418916
    36  H    5.800111   5.968803   4.989079   4.126764   5.136707
    37  H    2.794693   4.080119   4.661121   3.337212   3.299586
    38  H    2.948946   4.163993   4.602730   3.214967   2.512303
    39  H    1.091324   2.168209   3.630530   3.359802   5.258062
    40  H    2.213834   1.088162   2.470170   3.546946   6.776724
    41  H    3.383244   3.546345   2.470542   1.088031   3.270062
    42  H    3.879626   4.521040   4.172058   2.847105   2.169874
    43  H    6.232052   6.784393   6.307876   5.164804   3.409112
    44  H    8.179974   9.100513   8.635996   6.981084   3.414083
    45  H    6.550878   7.552917   7.217385   5.482393   2.164171
    46  H    8.642040   9.148024   8.604068   7.549712   5.492526
    47  H   11.646524  12.398143  11.824805  10.422820   7.287758
    48  H   11.064604  11.638003  11.057630   9.913356   7.397820
                   21         22         23         24         25
    21  C    0.000000
    22  C    1.394417   0.000000
    23  C    2.438111   1.404234   0.000000
    24  C    2.780344   2.405243   1.406446   0.000000
    25  C    2.415642   2.787972   2.442468   1.392246   0.000000
    26  C    3.795158   2.516528   1.469614   2.491983   3.779989
    27  C    4.488840   3.095940   2.578946   3.814184   5.013901
    28  N    5.785523   4.406467   3.644003   4.648486   5.972648
    29  C    5.945358   4.667141   3.555683   4.177607   5.567629
    30  N    4.925869   3.775122   2.487782   2.892878   4.284993
    31  H    5.200990   6.483981   6.899146   6.108536   4.726356
    32  H    4.996559   6.352219   6.983715   6.400486   5.063661
    33  H   10.019862  11.056258  11.057615   9.967313   8.804271
    34  H    9.954251  10.913425  11.000000  10.093632   9.051451
    35  H    8.177786   9.112767   9.373589   8.700283   7.721865
    36  H    5.899357   6.982330   7.398185   6.783252   5.669736
    37  H    3.948150   5.253256   5.947612   5.515461   4.294521
    38  H    2.624309   3.815300   4.686457   4.600643   3.679009
    39  H    5.229393   6.466783   7.557561   7.558026   6.537247
    40  H    6.475657   7.635409   8.898419   9.101148   8.161936
    41  H    3.227370   4.396246   5.365524   5.366415   4.471138
    42  H    1.090917   2.147512   3.416576   3.871033   3.411013
    43  H    2.142743   1.092277   2.170863   3.405175   3.879998
    44  H    3.870633   3.390264   2.150570   1.090309   2.155898
    45  H    3.405821   3.875541   3.421461   2.149730   1.087637
    46  H    4.447373   3.095444   3.070266   4.441301   5.474681
    47  H    6.982515   5.732352   4.564118   5.017758   6.405955
    48  H    6.625681   5.232600   4.597983   5.651850   6.962633
                   26         27         28         29         30
    26  C    0.000000
    27  C    1.385196   0.000000
    28  N    2.199490   1.377798   0.000000
    29  C    2.155554   2.211263   1.367258   0.000000
    30  N    1.385235   2.263759   2.218271   1.314187   0.000000
    31  H    8.348414   9.405632  10.534561  10.259019   8.989801
    32  H    8.445592   9.377211  10.587008  10.458957   9.238767
    33  H   12.301904  13.500756  14.373870  13.784191  12.529717
    34  H   12.172877  13.241625  14.121265  13.650805  12.482924
    35  H   10.540265  11.465254  12.427021  12.141352  11.033215
    36  H    8.700985   9.629281  10.714601  10.514148   9.351499
    37  H    7.377150   8.246322   9.467769   9.407264   8.232929
    38  H    6.040060   6.754336   8.016793   8.111747   7.039412
    39  H    8.882766   9.412396  10.743765  10.999684   9.984673
    40  H   10.151161  10.478997  11.855965  12.295467  11.376962
    41  H    6.678915   7.287575   8.577815   8.760799   7.736342
    42  H    4.662536   5.139650   6.493323   6.814557   5.884042
    43  H    2.755511   2.807504   4.185098   4.760908   4.133263
    44  H    2.679739   4.064040   4.594520   3.821070   2.513824
    45  H    4.641208   5.945521   6.791193   6.219883   4.907374
    46  H    2.266894   1.085086   2.155535   3.242243   3.332798
    47  H    3.215863   3.250222   2.156157   1.088068   2.142357
    48  H    3.182756   2.136843   1.012030   2.131240   3.188037
                   31         32         33         34         35
    31  H    0.000000
    32  H    1.778968   0.000000
    33  H    6.264258   6.169982   0.000000
    34  H    7.199991   6.510050   2.510002   0.000000
    35  H    6.436875   5.290981   4.333741   2.474598   0.000000
    36  H    4.278836   2.988480   5.057200   4.330226   2.490686
    37  H    2.084616   2.588088   8.256671   8.905157   7.705772
    38  H    3.669045   3.861803   9.600339  10.001303   8.517967
    39  H    4.333324   4.002137  10.034525  10.403730   8.947484
    40  H    6.122595   5.061703  10.765920  10.615720   8.873839
    41  H    4.448395   3.171669   8.375862   7.892541   5.839079
    42  H    5.241555   4.803591  10.260235  10.116096   8.226455
    43  H    7.332803   7.076635  11.988895  11.731421   9.807496
    44  H    6.755069   7.178669  10.164059  10.360683   9.137121
    45  H    4.356982   4.922908   8.022151   8.467005   7.399466
    46  H    9.570630   9.411424  13.881725  13.539407  11.634978
    47  H   11.109406  11.373948  14.390543  14.283199  12.869737
    48  H   11.482512  11.491959  15.342936  15.027261  13.280725
                   36         37         38         39         40
    36  H    0.000000
    37  H    5.276600   0.000000
    38  H    6.033322   1.749988   0.000000
    39  H    6.599324   2.759968   3.041153   0.000000
    40  H    6.848628   4.964345   5.085842   2.640239   0.000000
    41  H    3.563457   3.810218   3.597924   4.372780   4.583072
    42  H    5.889764   3.765633   2.373066   4.479513   5.497242
    43  H    7.697615   5.933380   4.362686   6.735863   7.672012
    44  H    7.396908   6.363899   5.567914   8.547140  10.155014
    45  H    5.472318   4.382851   4.177405   6.891144   8.618436
    46  H    9.740743   8.250466   6.664120   9.102473   9.984484
    47  H   11.346262  10.346712   9.102323  12.026542  13.366258
    48  H   11.596123  10.348855   8.843519  11.484840  12.501616
                   41         42         43         44         45
    41  H    0.000000
    42  H    2.726624   0.000000
    43  H    4.805009   2.445499   0.000000
    44  H    6.345281   4.961281   4.304733   0.000000
    45  H    4.953891   4.318029   4.967609   2.477142   0.000000
    46  H    7.095758   4.883803   2.439058   4.884971   6.487325
    47  H    9.768942   7.877868   5.848949   4.482430   6.949185
    48  H    9.359730   7.251602   4.859019   5.603011   7.797522
                   46         47         48
    46  H    0.000000
    47  H    4.231733   0.000000
    48  H    2.546406   2.555866   0.000000
 Stoichiometry    C22H18N6OS
 Framework group  C1[X(C22H18N6OS)]
 Deg. of freedom   138
 Full point group                 C1      NOp   1
 Largest Abelian subgroup         C1      NOp   1
 Largest concise Abelian subgroup C1      NOp   1
                         Standard orientation:                         
 ---------------------------------------------------------------------
 Center     Atomic      Atomic             Coordinates (Angstroms)
 Number     Number       Type             X           Y           Z
 ---------------------------------------------------------------------
      1          8           0        0.830221   -1.442980   -0.101209
      2          6           0        0.934860   -0.377380   -0.680739
      3          6           0        2.314220    0.118640   -1.162399
      4          7           0        3.347881   -0.863059   -0.949859
      5          7           0        3.933131   -1.455109   -2.036299
      6          7           0        4.851801   -2.267649   -1.641739
      7          6           0        4.900301   -2.233399   -0.261419
      8          6           0        5.730491   -2.918179    0.643821
      9          6           0        5.549921   -2.662839    1.995711
     10          6           0        4.562021   -1.750959    2.448411
     11          6           0        3.729761   -1.070299    1.569181
     12          6           0        3.921921   -1.327329    0.201591
     13          7           0       -0.138260    0.461930   -0.948559
     14          6           0        0.061000    1.785050   -1.552279
     15          6           0        0.533100    2.873870   -0.609449
     16          6           0        0.972520    4.159560   -1.075049
     17          6           0        1.340139    5.001640   -0.060229
     18         16           0        1.163209    4.245630    1.493351
     19          6           0        0.584780    2.779480    0.760141
     20          6           0       -1.480870    0.064010   -0.620699
     21          6           0       -2.392190    1.012319   -0.129229
     22          6           0       -3.712400    0.654589    0.141831
     23          6           0       -4.165349   -0.659551   -0.057529
     24          6           0       -3.242499   -1.601791   -0.546019
     25          6           0       -1.924209   -1.252701   -0.826369
     26          6           0       -5.549829   -1.062881    0.225851
     27          6           0       -6.596980   -0.306262    0.725621
     28          7           0       -7.670189   -1.166982    0.801171
     29          6           0       -7.245479   -2.387492    0.354661
     30          7           0       -5.979829   -2.360491    0.001831
     31          1           0        2.306130    0.306030   -2.245179
     32          1           0        2.576080    1.062390   -0.657799
     33          1           0        6.483341   -3.619559    0.281001
     34          1           0        6.173731   -3.174229    2.731701
     35          1           0        4.447991   -1.586639    3.522281
     36          1           0        2.956790   -0.389730    1.926271
     37          1           0        0.767060    1.704170   -2.393819
     38          1           0       -0.897760    2.077830   -2.004959
     39          1           0        1.013209    4.440340   -2.128849
     40          1           0        1.711139    6.021990   -0.133319
     41          1           0        0.307690    1.930630    1.381821
     42          1           0       -2.072690    2.038739    0.056461
     43          1           0       -4.392230    1.419999    0.522681
     44          1           0       -3.583269   -2.624481   -0.709589
     45          1           0       -1.234599   -2.007080   -1.198259
     46          1           0       -6.677270    0.732758    1.027951
     47          1           0       -7.902519   -3.253652    0.310411
     48          1           0       -8.599049   -0.934792    1.129061
 ---------------------------------------------------------------------
 Rotational constants (GHZ):      0.1893896      0.0735908      0.0593202
 Leave Link  202 at Sat Sep 10 10:01:43 2022, MaxMem=  209715200 cpu:       0.1
 (Enter /opt/gaussian/l301.exe)
 Standard basis: CC-pVDZ (5D, 7F)
 Ernie: Thresh=  0.10000D-02 Tol=  0.10000D-05 Strict=F.
 Ernie:  68 primitive shells out of 778 were deleted.
 There are   514 symmetry adapted basis functions of A   symmetry.
 Integral buffers will be    131072 words long.
 Raffenetti 2 integral format.
 Two-electron integral symmetry is turned on.
   514 basis functions,  1154 primitive gaussians,   544 cartesian basis functions
   108 alpha electrons      108 beta electrons
       nuclear repulsion energy      2773.8828306925 Hartrees.
 IExCor=  402 DFT=T Ex+Corr=B3LYP ExCW=0 ScaHFX=  0.200000
 ScaDFX=  0.800000  0.720000  1.000000  0.810000 ScalE2=  1.000000  1.000000
 IRadAn=      0 IRanWt=     -1 IRanGd=            0 ICorTp=0
 NAtoms=   48 NActive=   48 NUniq=   48 SFac= 1.00D+00 NAtFMM=   60 NAOKFM=F Big=F
 Leave Link  301 at Sat Sep 10 10:01:43 2022, MaxMem=  209715200 cpu:       0.3
 (Enter /opt/gaussian/l302.exe)
 NPDir=0 NMtPBC=     1 NCelOv=     1 NCel=       1 NClECP=     1 NCelD=      1
         NCelK=      1 NCelE2=     1 NClLst=     1 CellRange=     0.0.
 One-electron integrals computed using PRISM.
 NBasis=   514 RedAO= T  NBF=   514
 NBsUse=   514 1.00D-06 NBFU=   514
 Precomputing XC quadrature grid using
 IXCGrd= 2 IRadAn=           0 IRanWt=          -1 IRanGd=           0 AccXCQ= 0.00D+00.
 NRdTot=    3097 NPtTot=      395606 NUsed=      417922 NTot=      417954
 NSgBfM=   519   519   521   521   523 NAtAll=    48    48.
 Leave Link  302 at Sat Sep 10 10:01:44 2022, MaxMem=  209715200 cpu:       7.1
 (Enter /opt/gaussian/l303.exe)
 DipDrv:  MaxL=1.
 Leave Link  303 at Sat Sep 10 10:01:44 2022, MaxMem=  209715200 cpu:       1.1
 (Enter /opt/gaussian/l401.exe)
 Harris functional with IExCor=  402 diagonalized for initial guess.
 ExpMin= 1.22D-01 ExpMax= 1.11D+05 ExpMxC= 1.07D+03 IAcc=2 IRadAn=         4 AccDes= 0.00D+00
 HarFok:  IExCor=  402 AccDes= 0.00D+00 IRadAn=         4 IDoV= 1
 ScaDFX=  1.000000  1.000000  1.000000  1.000000
 FoFCou: FMM=F IPFlag=           0 FMFlag=      100000 FMFlg1=           0
         NFxFlg=           0 DoJE=T BraDBF=F KetDBF=T FulRan=T
         Omega=  0.000000  0.000000  1.000000  0.000000  0.000000 ICntrl=     500 IOpCl=  0
         NMat0=    1 NMatS0=    1 NMatT0=    0 NMatD0=    1 NMtDS0=    0 NMtDT0=    0
         I1Cent=           4 NGrid=           0.
 Petite list used in FoFCou.
 Harris En= -1650.93314409765    
 Initial guess orbital symmetries:
       Occupied  (A) (A) (A) (A) (A) (A) (A) (A) (A) (A) (A) (A)
                 (A) (A) (A) (A) (A) (A) (A) (A) (A) (A) (A) (A)
                 (A) (A) (A) (A) (A) (A) (A) (A) (A) (A) (A) (A)
                 (A) (A) (A) (A) (A) (A) (A) (A) (A) (A) (A) (A)
                 (A) (A) (A) (A) (A) (A) (A) (A) (A) (A) (A) (A)
                 (A) (A) (A) (A) (A) (A) (A) (A) (A) (A) (A) (A)
                 (A) (A) (A) (A) (A) (A) (A) (A) (A) (A) (A) (A)
                 (A) (A) (A) (A) (A) (A) (A) (A) (A) (A) (A) (A)
                 (A) (A) (A) (A) (A) (A) (A) (A) (A) (A) (A) (A)
       Virtual   (A) (A) (A) (A) (A) (A) (A) (A) (A) (A) (A) (A)
                 (A) (A) (A) (A) (A) (A) (A) (A) (A) (A) (A) (A)
                 (A) (A) (A) (A) (A) (A) (A) (A) (A) (A) (A) (A)
                 (A) (A) (A) (A) (A) (A) (A) (A) (A) (A) (A) (A)
                 (A) (A) (A) (A) (A) (A) (A) (A) (A) (A) (A) (A)
                 (A) (A) (A) (A) (A) (A) (A) (A) (A) (A) (A) (A)
                 (A) (A) (A) (A) (A) (A) (A) (A) (A) (A) (A) (A)
                 (A) (A) (A) (A) (A) (A) (A) (A) (A) (A) (A) (A)
                 (A) (A) (A) (A) (A) (A) (A) (A) (A) (A) (A) (A)
                 (A) (A) (A) (A) (A) (A) (A) (A) (A) (A) (A) (A)
                 (A) (A) (A) (A) (A) (A) (A) (A) (A) (A) (A) (A)
                 (A) (A) (A) (A) (A) (A) (A) (A) (A) (A) (A) (A)
                 (A) (A) (A) (A) (A) (A) (A) (A) (A) (A) (A) (A)
                 (A) (A) (A) (A) (A) (A) (A) (A) (A) (A) (A) (A)
                 (A) (A) (A) (A) (A) (A) (A) (A) (A) (A) (A) (A)
                 (A) (A) (A) (A) (A) (A) (A) (A) (A) (A) (A) (A)
                 (A) (A) (A) (A) (A) (A) (A) (A) (A) (A) (A) (A)
                 (A) (A) (A) (A) (A) (A) (A) (A) (A) (A) (A) (A)
                 (A) (A) (A) (A) (A) (A) (A) (A) (A) (A) (A) (A)
                 (A) (A) (A) (A) (A) (A) (A) (A) (A) (A) (A) (A)
                 (A) (A) (A) (A) (A) (A) (A) (A) (A) (A) (A) (A)
                 (A) (A) (A) (A) (A) (A) (A) (A) (A) (A) (A) (A)
                 (A) (A) (A) (A) (A) (A) (A) (A) (A) (A) (A) (A)
                 (A) (A) (A) (A) (A) (A) (A) (A) (A) (A) (A) (A)
                 (A) (A) (A) (A) (A) (A) (A) (A) (A) (A) (A) (A)
                 (A) (A) (A) (A) (A) (A) (A) (A) (A) (A) (A) (A)
                 (A) (A) (A) (A) (A) (A) (A) (A) (A) (A) (A) (A)
                 (A) (A) (A) (A) (A) (A) (A) (A) (A) (A) (A) (A)
                 (A) (A) (A) (A) (A) (A) (A) (A) (A) (A) (A) (A)
                 (A) (A) (A) (A) (A) (A) (A) (A) (A) (A) (A) (A)
                 (A) (A) (A) (A) (A) (A) (A) (A) (A) (A) (A) (A)
                 (A) (A) (A) (A) (A) (A) (A) (A) (A) (A) (A) (A)
                 (A) (A) (A) (A) (A) (A) (A) (A) (A) (A) (A) (A)
                 (A) (A) (A) (A) (A) (A) (A) (A) (A) (A)
 The electronic state of the initial guess is 1-A.
 Leave Link  401 at Sat Sep 10 10:01:47 2022, MaxMem=  209715200 cpu:      22.8
 (Enter /opt/gaussian/l502.exe)
 Closed shell SCF:
 Requested convergence on RMS density matrix=1.00D-08 within 128 cycles.
 Requested convergence on MAX density matrix=1.00D-06.
 Requested convergence on             energy=1.00D-06.
 No special actions if energy rises.
 Using DIIS extrapolation, IDIIS=  1040.
 Integral symmetry usage will be decided dynamically.
       417477 words used for storage of precomputed grid.
 IEnd=     1331893 IEndB=     1331893 NGot=   209715200 MDV=   208696428
 LenX=   208696428 LenY=   208399948
 Fock matrices will be formed incrementally for  20 cycles.
 Integral accuracy reduced to 1.0D-05 until final iterations.

 Cycle   1  Pass 0  IDiag  1:
 FoFCou: FMM=F IPFlag=           0 FMFlag=      100000 FMFlg1=           0
         NFxFlg=           0 DoJE=F BraDBF=F KetDBF=F FulRan=T
         Omega=  0.000000  0.000000  1.000000  0.000000  0.000000 ICntrl=       0 IOpCl=  0
         NMat0=    1 NMatS0=    1 NMatT0=    0 NMatD0=    1 NMtDS0=    0 NMtDT0=    0
         I1Cent=           0 NGrid=           0.
 Symmetry not used in FoFCou.
 E= -1650.51446625322    
 DIIS: error= 2.15D-02 at cycle   1 NSaved=   1.
 NSaved= 1 IEnMin= 1 EnMin= -1650.51446625322     IErMin= 1 ErrMin= 2.15D-02
 ErrMax= 2.15D-02 EMaxC= 1.00D-01 BMatC= 5.91D-01 BMatP= 5.91D-01
 IDIUse=3 WtCom= 7.85D-01 WtEn= 2.15D-01
 Coeff-Com:  0.100D+01
 Coeff-En:   0.100D+01
 Coeff:      0.100D+01
 Gap=     0.262 Goal=   None    Shift=    0.000
 GapD=    0.262 DampG=1.000 DampE=0.500 DampFc=0.5000 IDamp=-1.
 Damping current iteration by 5.00D-01
 RMSDP=4.46D-03 MaxDP=2.02D-01              OVMax= 3.03D-01

 Cycle   2  Pass 0  IDiag  1:
 RMSU=  1.56D-03    CP:  9.82D-01
 E= -1650.65837557842     Delta-E=       -0.143909325194 Rises=F Damp=T
 DIIS: error= 9.28D-03 at cycle   2 NSaved=   2.
 NSaved= 2 IEnMin= 2 EnMin= -1650.65837557842     IErMin= 2 ErrMin= 9.28D-03
 ErrMax= 9.28D-03 EMaxC= 1.00D-01 BMatC= 1.22D-01 BMatP= 5.91D-01
 IDIUse=3 WtCom= 9.07D-01 WtEn= 9.28D-02
 Coeff-Com:  0.256D+00 0.744D+00
 Coeff-En:   0.386D+00 0.614D+00
 Coeff:      0.268D+00 0.732D+00
 Gap=     0.223 Goal=   None    Shift=    0.000
 RMSDP=1.50D-03 MaxDP=6.51D-02 DE=-1.44D-01 OVMax= 3.11D-01

 Cycle   3  Pass 0  IDiag  1:
 RMSU=  9.56D-04    CP:  9.67D-01  7.21D-01
 E= -1651.08230084526     Delta-E=       -0.423925266849 Rises=F Damp=F
 DIIS: error= 8.97D-03 at cycle   3 NSaved=   3.
 NSaved= 3 IEnMin= 3 EnMin= -1651.08230084526     IErMin= 3 ErrMin= 8.97D-03
 ErrMax= 8.97D-03 EMaxC= 1.00D-01 BMatC= 8.65D-02 BMatP= 1.22D-01
 IDIUse=3 WtCom= 9.10D-01 WtEn= 8.97D-02
 Coeff-Com:  0.863D-01 0.448D+00 0.465D+00
 Coeff-En:   0.000D+00 0.000D+00 0.100D+01
 Coeff:      0.786D-01 0.408D+00 0.513D+00
 Gap=     0.174 Goal=   None    Shift=    0.000
 RMSDP=7.48D-04 MaxDP=5.05D-02 DE=-4.24D-01 OVMax= 7.38D-02

 Cycle   4  Pass 0  IDiag  1:
 RMSU=  4.10D-04    CP:  9.71D-01  7.91D-01  6.72D-01
 E= -1651.14580530202     Delta-E=       -0.063504456759 Rises=F Damp=F
 DIIS: error= 3.89D-03 at cycle   4 NSaved=   4.
 NSaved= 4 IEnMin= 4 EnMin= -1651.14580530202     IErMin= 4 ErrMin= 3.89D-03
 ErrMax= 3.89D-03 EMaxC= 1.00D-01 BMatC= 1.89D-02 BMatP= 8.65D-02
 IDIUse=3 WtCom= 9.61D-01 WtEn= 3.89D-02
 Coeff-Com:  0.208D-01 0.134D+00 0.330D+00 0.515D+00
 Coeff-En:   0.000D+00 0.000D+00 0.208D+00 0.792D+00
 Coeff:      0.200D-01 0.129D+00 0.325D+00 0.526D+00
 Gap=     0.176 Goal=   None    Shift=    0.000
 RMSDP=3.41D-04 MaxDP=2.08D-02 DE=-6.35D-02 OVMax= 4.23D-02

 Cycle   5  Pass 0  IDiag  1:
 RMSU=  1.49D-04    CP:  9.70D-01  7.69D-01  7.38D-01  5.73D-01
 E= -1651.16124330999     Delta-E=       -0.015438007968 Rises=F Damp=F
 DIIS: error= 2.52D-03 at cycle   5 NSaved=   5.
 NSaved= 5 IEnMin= 5 EnMin= -1651.16124330999     IErMin= 5 ErrMin= 2.52D-03
 ErrMax= 2.52D-03 EMaxC= 1.00D-01 BMatC= 2.14D-03 BMatP= 1.89D-02
 IDIUse=3 WtCom= 9.75D-01 WtEn= 2.52D-02
 Coeff-Com:  0.361D-02 0.254D-01 0.145D+00 0.340D+00 0.486D+00
 Coeff-En:   0.000D+00 0.000D+00 0.000D+00 0.994D-01 0.901D+00
 Coeff:      0.352D-02 0.247D-01 0.142D+00 0.334D+00 0.496D+00
 Gap=     0.170 Goal=   None    Shift=    0.000
 RMSDP=1.23D-04 MaxDP=7.26D-03 DE=-1.54D-02 OVMax= 1.70D-02

 Cycle   6  Pass 0  IDiag  1:
 RMSU=  3.83D-05    CP:  9.70D-01  7.68D-01  7.51D-01  6.59D-01  5.39D-01
 E= -1651.16344389874     Delta-E=       -0.002200588753 Rises=F Damp=F
 DIIS: error= 7.20D-04 at cycle   6 NSaved=   6.
 NSaved= 6 IEnMin= 6 EnMin= -1651.16344389874     IErMin= 6 ErrMin= 7.20D-04
 ErrMax= 7.20D-04 EMaxC= 1.00D-01 BMatC= 1.87D-04 BMatP= 2.14D-03
 IDIUse=3 WtCom= 9.93D-01 WtEn= 7.20D-03
 Coeff-Com:  0.551D-04-0.305D-02 0.428D-01 0.131D+00 0.290D+00 0.539D+00
 Coeff-En:   0.000D+00 0.000D+00 0.000D+00 0.000D+00 0.306D-01 0.969D+00
 Coeff:      0.547D-04-0.303D-02 0.425D-01 0.130D+00 0.288D+00 0.542D+00
 Gap=     0.170 Goal=   None    Shift=    0.000
 RMSDP=3.09D-05 MaxDP=2.61D-03 DE=-2.20D-03 OVMax= 3.66D-03

 Cycle   7  Pass 0  IDiag  1:
 RMSU=  1.40D-05    CP:  9.70D-01  7.69D-01  7.53D-01  6.52D-01  5.89D-01
                    CP:  6.24D-01
 E= -1651.16362517921     Delta-E=       -0.000181280468 Rises=F Damp=F
 DIIS: error= 2.12D-04 at cycle   7 NSaved=   7.
 NSaved= 7 IEnMin= 7 EnMin= -1651.16362517921     IErMin= 7 ErrMin= 2.12D-04
 ErrMax= 2.12D-04 EMaxC= 1.00D-01 BMatC= 1.72D-05 BMatP= 1.87D-04
 IDIUse=3 WtCom= 9.98D-01 WtEn= 2.12D-03
 Coeff-Com: -0.650D-04-0.393D-02 0.109D-01 0.412D-01 0.113D+00 0.306D+00
 Coeff-Com:  0.533D+00
 Coeff-En:   0.000D+00 0.000D+00 0.000D+00 0.000D+00 0.000D+00 0.215D-01
 Coeff-En:   0.978D+00
 Coeff:     -0.649D-04-0.392D-02 0.109D-01 0.411D-01 0.113D+00 0.305D+00
 Coeff:      0.534D+00
 Gap=     0.170 Goal=   None    Shift=    0.000
 RMSDP=9.38D-06 MaxDP=8.59D-04 DE=-1.81D-04 OVMax= 1.02D-03

 Initial convergence to 1.0D-05 achieved.  Increase integral accuracy.
 Cycle   8  Pass 1  IDiag  1:
 E= -1651.16369011350     Delta-E=       -0.000064934289 Rises=F Damp=F
 DIIS: error= 1.81D-04 at cycle   1 NSaved=   1.
 NSaved= 1 IEnMin= 1 EnMin= -1651.16369011350     IErMin= 1 ErrMin= 1.81D-04
 ErrMax= 1.81D-04 EMaxC= 1.00D-01 BMatC= 1.02D-05 BMatP= 1.02D-05
 IDIUse=3 WtCom= 9.98D-01 WtEn= 1.81D-03
 Coeff-Com:  0.100D+01
 Coeff-En:   0.100D+01
 Coeff:      0.100D+01
 Gap=     0.170 Goal=   None    Shift=    0.000
 RMSDP=9.38D-06 MaxDP=8.59D-04 DE=-6.49D-05 OVMax= 8.06D-04

 Cycle   9  Pass 1  IDiag  1:
 RMSU=  8.75D-05    CP:  1.00D+00
 E= -1651.16369598505     Delta-E=       -0.000005871545 Rises=F Damp=F
 DIIS: error= 1.12D-04 at cycle   2 NSaved=   2.
 NSaved= 2 IEnMin= 2 EnMin= -1651.16369598505     IErMin= 2 ErrMin= 1.12D-04
 ErrMax= 1.12D-04 EMaxC= 1.00D-01 BMatC= 4.21D-06 BMatP= 1.02D-05
 IDIUse=3 WtCom= 9.99D-01 WtEn= 1.12D-03
 Coeff-Com:  0.336D+00 0.664D+00
 Coeff-En:   0.307D-01 0.969D+00
 Coeff:      0.335D+00 0.665D+00
 Gap=     0.170 Goal=   None    Shift=    0.000
 RMSDP=8.33D-06 MaxDP=5.33D-04 DE=-5.87D-06 OVMax= 1.06D-03

 Cycle  10  Pass 1  IDiag  1:
 RMSU=  5.87D-06    CP:  1.00D+00  1.00D+00
 E= -1651.16369492183     Delta-E=        0.000001063217 Rises=F Damp=F
 DIIS: error= 1.31D-04 at cycle   3 NSaved=   3.
 NSaved= 3 IEnMin= 2 EnMin= -1651.16369598505     IErMin= 2 ErrMin= 1.12D-04
 ErrMax= 1.31D-04 EMaxC= 1.00D-01 BMatC= 5.25D-06 BMatP= 4.21D-06
 IDIUse=3 WtCom= 4.67D-01 WtEn= 5.33D-01
 Coeff-Com:  0.239D-02 0.527D+00 0.471D+00
 Coeff-En:   0.000D+00 0.540D+00 0.460D+00
 Coeff:      0.112D-02 0.534D+00 0.465D+00
 Gap=     0.170 Goal=   None    Shift=    0.000
 RMSDP=4.51D-06 MaxDP=2.93D-04 DE= 1.06D-06 OVMax= 5.46D-04

 Cycle  11  Pass 1  IDiag  1:
 RMSU=  7.30D-07    CP:  1.00D+00  1.01D+00  4.78D-01
 E= -1651.16370022383     Delta-E=       -0.000005302002 Rises=F Damp=F
 DIIS: error= 1.23D-05 at cycle   4 NSaved=   4.
 NSaved= 4 IEnMin= 4 EnMin= -1651.16370022383     IErMin= 4 ErrMin= 1.23D-05
 ErrMax= 1.23D-05 EMaxC= 1.00D-01 BMatC= 9.82D-08 BMatP= 4.21D-06
 IDIUse=1 WtCom= 1.00D+00 WtEn= 0.00D+00
 Coeff-Com: -0.356D-02 0.336D+00 0.299D+00 0.369D+00
 Coeff:     -0.356D-02 0.336D+00 0.299D+00 0.369D+00
 Gap=     0.170 Goal=   None    Shift=    0.000
 RMSDP=6.55D-07 MaxDP=5.02D-05 DE=-5.30D-06 OVMax= 7.13D-05

 Cycle  12  Pass 1  IDiag  1:
 RMSU=  2.05D-07    CP:  1.00D+00  1.01D+00  4.76D-01  4.32D-01
 E= -1651.16370031399     Delta-E=       -0.000000090159 Rises=F Damp=F
 DIIS: error= 1.63D-06 at cycle   5 NSaved=   5.
 NSaved= 5 IEnMin= 5 EnMin= -1651.16370031399     IErMin= 5 ErrMin= 1.63D-06
 ErrMax= 1.63D-06 EMaxC= 1.00D-01 BMatC= 3.29D-09 BMatP= 9.82D-08
 IDIUse=1 WtCom= 1.00D+00 WtEn= 0.00D+00
 Coeff-Com: -0.232D-02 0.184D+00 0.163D+00 0.229D+00 0.427D+00
 Coeff:     -0.232D-02 0.184D+00 0.163D+00 0.229D+00 0.427D+00
 Gap=     0.170 Goal=   None    Shift=    0.000
 RMSDP=1.34D-07 MaxDP=7.11D-06 DE=-9.02D-08 OVMax= 1.34D-05

 Cycle  13  Pass 1  IDiag  1:
 RMSU=  7.00D-08    CP:  1.00D+00  1.01D+00  4.77D-01  4.54D-01  7.03D-01
 E= -1651.16370031701     Delta-E=       -0.000000003023 Rises=F Damp=F
 DIIS: error= 6.60D-07 at cycle   6 NSaved=   6.
 NSaved= 6 IEnMin= 6 EnMin= -1651.16370031701     IErMin= 6 ErrMin= 6.60D-07
 ErrMax= 6.60D-07 EMaxC= 1.00D-01 BMatC= 2.39D-10 BMatP= 3.29D-09
 IDIUse=1 WtCom= 1.00D+00 WtEn= 0.00D+00
 Coeff-Com: -0.922D-03 0.664D-01 0.587D-01 0.880D-01 0.248D+00 0.540D+00
 Coeff:     -0.922D-03 0.664D-01 0.587D-01 0.880D-01 0.248D+00 0.540D+00
 Gap=     0.170 Goal=   None    Shift=    0.000
 RMSDP=3.61D-08 MaxDP=1.89D-06 DE=-3.02D-09 OVMax= 4.48D-06

 Cycle  14  Pass 1  IDiag  1:
 RMSU=  1.95D-08    CP:  1.00D+00  1.01D+00  4.77D-01  4.59D-01  7.42D-01
                    CP:  8.06D-01
 E= -1651.16370031718     Delta-E=       -0.000000000170 Rises=F Damp=F
 DIIS: error= 2.53D-07 at cycle   7 NSaved=   7.
 NSaved= 7 IEnMin= 7 EnMin= -1651.16370031718     IErMin= 7 ErrMin= 2.53D-07
 ErrMax= 2.53D-07 EMaxC= 1.00D-01 BMatC= 2.39D-11 BMatP= 2.39D-10
 IDIUse=1 WtCom= 1.00D+00 WtEn= 0.00D+00
 Coeff-Com: -0.192D-03 0.118D-01 0.103D-01 0.173D-01 0.773D-01 0.291D+00
 Coeff-Com:  0.592D+00
 Coeff:     -0.192D-03 0.118D-01 0.103D-01 0.173D-01 0.773D-01 0.291D+00
 Coeff:      0.592D+00
 Gap=     0.170 Goal=   None    Shift=    0.000
 RMSDP=1.41D-08 MaxDP=7.29D-07 DE=-1.70D-10 OVMax= 1.65D-06

 Cycle  15  Pass 1  IDiag  1:
 RMSU=  7.24D-09    CP:  1.00D+00  1.01D+00  4.77D-01  4.59D-01  7.51D-01
                    CP:  8.41D-01  6.92D-01
 E= -1651.16370031719     Delta-E=       -0.000000000003 Rises=F Damp=F
 DIIS: error= 1.13D-07 at cycle   8 NSaved=   8.
 NSaved= 8 IEnMin= 8 EnMin= -1651.16370031719     IErMin= 8 ErrMin= 1.13D-07
 ErrMax= 1.13D-07 EMaxC= 1.00D-01 BMatC= 4.05D-12 BMatP= 2.39D-11
 IDIUse=1 WtCom= 1.00D+00 WtEn= 0.00D+00
 Coeff-Com:  0.346D-04-0.365D-02-0.334D-02-0.396D-02 0.526D-02 0.835D-01
 Coeff-Com:  0.344D+00 0.579D+00
 Coeff:      0.346D-04-0.365D-02-0.334D-02-0.396D-02 0.526D-02 0.835D-01
 Coeff:      0.344D+00 0.579D+00
 Gap=     0.170 Goal=   None    Shift=    0.000
 RMSDP=5.44D-09 MaxDP=2.44D-07 DE=-2.73D-12 OVMax= 7.86D-07

 SCF Done:  E(RB3LYP) =  -1651.16370032     A.U. after   15 cycles
             Convg  =    0.5440D-08             -V/T =  2.0056
 KE= 1.641943655169D+03 PE=-9.407203517652D+03 EE= 3.340213331473D+03
 Leave Link  502 at Sat Sep 10 10:13:02 2022, MaxMem=  209715200 cpu:    4994.0
 (Enter /opt/gaussian/l601.exe)
 Copying SCF densities to generalized density rwf, IOpCl= 0 IROHF=0.

 **********************************************************************

            Population analysis using the SCF density.

 **********************************************************************

 Orbital symmetries:
       Occupied  (A) (A) (A) (A) (A) (A) (A) (A) (A) (A) (A) (A)
                 (A) (A) (A) (A) (A) (A) (A) (A) (A) (A) (A) (A)
                 (A) (A) (A) (A) (A) (A) (A) (A) (A) (A) (A) (A)
                 (A) (A) (A) (A) (A) (A) (A) (A) (A) (A) (A) (A)
                 (A) (A) (A) (A) (A) (A) (A) (A) (A) (A) (A) (A)
                 (A) (A) (A) (A) (A) (A) (A) (A) (A) (A) (A) (A)
                 (A) (A) (A) (A) (A) (A) (A) (A) (A) (A) (A) (A)
                 (A) (A) (A) (A) (A) (A) (A) (A) (A) (A) (A) (A)
                 (A) (A) (A) (A) (A) (A) (A) (A) (A) (A) (A) (A)
       Virtual   (A) (A) (A) (A) (A) (A) (A) (A) (A) (A) (A) (A)
                 (A) (A) (A) (A) (A) (A) (A) (A) (A) (A) (A) (A)
                 (A) (A) (A) (A) (A) (A) (A) (A) (A) (A) (A) (A)
                 (A) (A) (A) (A) (A) (A) (A) (A) (A) (A) (A) (A)
                 (A) (A) (A) (A) (A) (A) (A) (A) (A) (A) (A) (A)
                 (A) (A) (A) (A) (A) (A) (A) (A) (A) (A) (A) (A)
                 (A) (A) (A) (A) (A) (A) (A) (A) (A) (A) (A) (A)
                 (A) (A) (A) (A) (A) (A) (A) (A) (A) (A) (A) (A)
                 (A) (A) (A) (A) (A) (A) (A) (A) (A) (A) (A) (A)
                 (A) (A) (A) (A) (A) (A) (A) (A) (A) (A) (A) (A)
                 (A) (A) (A) (A) (A) (A) (A) (A) (A) (A) (A) (A)
                 (A) (A) (A) (A) (A) (A) (A) (A) (A) (A) (A) (A)
                 (A) (A) (A) (A) (A) (A) (A) (A) (A) (A) (A) (A)
                 (A) (A) (A) (A) (A) (A) (A) (A) (A) (A) (A) (A)
                 (A) (A) (A) (A) (A) (A) (A) (A) (A) (A) (A) (A)
                 (A) (A) (A) (A) (A) (A) (A) (A) (A) (A) (A) (A)
                 (A) (A) (A) (A) (A) (A) (A) (A) (A) (A) (A) (A)
                 (A) (A) (A) (A) (A) (A) (A) (A) (A) (A) (A) (A)
                 (A) (A) (A) (A) (A) (A) (A) (A) (A) (A) (A) (A)
                 (A) (A) (A) (A) (A) (A) (A) (A) (A) (A) (A) (A)
                 (A) (A) (A) (A) (A) (A) (A) (A) (A) (A) (A) (A)
                 (A) (A) (A) (A) (A) (A) (A) (A) (A) (A) (A) (A)
                 (A) (A) (A) (A) (A) (A) (A) (A) (A) (A) (A) (A)
                 (A) (A) (A) (A) (A) (A) (A) (A) (A) (A) (A) (A)
                 (A) (A) (A) (A) (A) (A) (A) (A) (A) (A) (A) (A)
                 (A) (A) (A) (A) (A) (A) (A) (A) (A) (A) (A) (A)
                 (A) (A) (A) (A) (A) (A) (A) (A) (A) (A) (A) (A)
                 (A) (A) (A) (A) (A) (A) (A) (A) (A) (A) (A) (A)
                 (A) (A) (A) (A) (A) (A) (A) (A) (A) (A) (A) (A)
                 (A) (A) (A) (A) (A) (A) (A) (A) (A) (A) (A) (A)
                 (A) (A) (A) (A) (A) (A) (A) (A) (A) (A) (A) (A)
                 (A) (A) (A) (A) (A) (A) (A) (A) (A) (A) (A) (A)
                 (A) (A) (A) (A) (A) (A) (A) (A) (A) (A) (A) (A)
                 (A) (A) (A) (A) (A) (A) (A) (A) (A) (A)
 The electronic state is 1-A.
 Alpha  occ. eigenvalues --  -88.92141 -19.12079 -14.40617 -14.39792 -14.38450
 Alpha  occ. eigenvalues --  -14.38160 -14.34233 -14.31428 -10.30228 -10.25433
 Alpha  occ. eigenvalues --  -10.25176 -10.24756 -10.23303 -10.23004 -10.22692
 Alpha  occ. eigenvalues --  -10.22617 -10.22312 -10.21780 -10.21095 -10.20939
 Alpha  occ. eigenvalues --  -10.20564 -10.19858 -10.19691 -10.19526 -10.19423
 Alpha  occ. eigenvalues --  -10.19374 -10.19288 -10.18976 -10.18693 -10.18308
 Alpha  occ. eigenvalues --   -7.98345  -5.94669  -5.94290  -5.93980  -1.08878
 Alpha  occ. eigenvalues --   -1.05292  -1.02234  -0.96032  -0.91910  -0.89528
 Alpha  occ. eigenvalues --   -0.88306  -0.85905  -0.85299  -0.78921  -0.77791
 Alpha  occ. eigenvalues --   -0.76949  -0.76163  -0.74839  -0.74316  -0.74171
 Alpha  occ. eigenvalues --   -0.72514  -0.69861  -0.65337  -0.64361  -0.62698
 Alpha  occ. eigenvalues --   -0.61759  -0.60719  -0.59891  -0.58400  -0.57809
 Alpha  occ. eigenvalues --   -0.56555  -0.56081  -0.55472  -0.53368  -0.52288
 Alpha  occ. eigenvalues --   -0.51881  -0.51241  -0.50323  -0.47535  -0.46968
 Alpha  occ. eigenvalues --   -0.46311  -0.46126  -0.45447  -0.44724  -0.44360
 Alpha  occ. eigenvalues --   -0.44125  -0.44074  -0.43800  -0.42864  -0.42618
 Alpha  occ. eigenvalues --   -0.42301  -0.41844  -0.41443  -0.40557  -0.39842
 Alpha  occ. eigenvalues --   -0.38872  -0.38365  -0.37246  -0.36997  -0.36575
 Alpha  occ. eigenvalues --   -0.36159  -0.35854  -0.35077  -0.34531  -0.32521
 Alpha  occ. eigenvalues --   -0.31161  -0.30594  -0.28298  -0.27629  -0.27032
 Alpha  occ. eigenvalues --   -0.26425  -0.26115  -0.25637  -0.25143  -0.25021
 Alpha  occ. eigenvalues --   -0.24406  -0.22922  -0.20640
 Alpha virt. eigenvalues --   -0.03677  -0.03161  -0.03027  -0.00875   0.01042
 Alpha virt. eigenvalues --    0.01467   0.01998   0.02453   0.02707   0.03886
 Alpha virt. eigenvalues --    0.04090   0.05246   0.06382   0.06702   0.07141
 Alpha virt. eigenvalues --    0.07892   0.08063   0.09147   0.09354   0.09773
 Alpha virt. eigenvalues --    0.10043   0.11157   0.11285   0.11641   0.12608
 Alpha virt. eigenvalues --    0.13817   0.14118   0.15428   0.15581   0.16312
 Alpha virt. eigenvalues --    0.16617   0.16795   0.18146   0.18621   0.19831
 Alpha virt. eigenvalues --    0.21031   0.21286   0.21795   0.22197   0.24495
 Alpha virt. eigenvalues --    0.24694   0.25232   0.25739   0.25992   0.27089
 Alpha virt. eigenvalues --    0.27835   0.28676   0.29171   0.29984   0.30637
 Alpha virt. eigenvalues --    0.31499   0.31852   0.33549   0.33888   0.35402
 Alpha virt. eigenvalues --    0.35778   0.36876   0.37595   0.38599   0.38852
 Alpha virt. eigenvalues --    0.40348   0.41104   0.41603   0.42425   0.43636
 Alpha virt. eigenvalues --    0.44067   0.44690   0.44990   0.45176   0.45755
 Alpha virt. eigenvalues --    0.46134   0.46625   0.46828   0.47116   0.47218
 Alpha virt. eigenvalues --    0.47549   0.47834   0.48099   0.48139   0.48814
 Alpha virt. eigenvalues --    0.49294   0.49702   0.50007   0.50340   0.50392
 Alpha virt. eigenvalues --    0.50636   0.51013   0.51309   0.52258   0.52484
 Alpha virt. eigenvalues --    0.52797   0.52882   0.53525   0.53724   0.54436
 Alpha virt. eigenvalues --    0.54859   0.55440   0.55628   0.55860   0.56216
 Alpha virt. eigenvalues --    0.57165   0.57622   0.57891   0.58357   0.59076
 Alpha virt. eigenvalues --    0.59601   0.60034   0.60245   0.60798   0.61686
 Alpha virt. eigenvalues --    0.61710   0.62426   0.63295   0.63558   0.64560
 Alpha virt. eigenvalues --    0.65096   0.65220   0.65533   0.65955   0.66299
 Alpha virt. eigenvalues --    0.66698   0.67463   0.67834   0.68415   0.68676
 Alpha virt. eigenvalues --    0.68962   0.69561   0.70136   0.70559   0.71824
 Alpha virt. eigenvalues --    0.71999   0.72777   0.73342   0.73796   0.74582
 Alpha virt. eigenvalues --    0.74869   0.75514   0.75866   0.77151   0.77406
 Alpha virt. eigenvalues --    0.78135   0.78636   0.79842   0.81498   0.82259
 Alpha virt. eigenvalues --    0.83320   0.84043   0.84683   0.84927   0.85152
 Alpha virt. eigenvalues --    0.85986   0.86889   0.87249   0.88019   0.88429
 Alpha virt. eigenvalues --    0.89120   0.89206   0.89688   0.90445   0.91205
 Alpha virt. eigenvalues --    0.91953   0.92235   0.93571   0.93862   0.94904
 Alpha virt. eigenvalues --    0.94962   0.95370   0.95787   0.96716   0.97947
 Alpha virt. eigenvalues --    0.99073   0.99367   1.00266   1.00564   1.00848
 Alpha virt. eigenvalues --    1.01084   1.01332   1.01778   1.02399   1.02777
 Alpha virt. eigenvalues --    1.03347   1.04544   1.04970   1.05417   1.05809
 Alpha virt. eigenvalues --    1.06345   1.06642   1.07383   1.07539   1.07759
 Alpha virt. eigenvalues --    1.08800   1.09280   1.09887   1.09991   1.11134
 Alpha virt. eigenvalues --    1.11889   1.12594   1.14554   1.16186   1.16714
 Alpha virt. eigenvalues --    1.17913   1.18536   1.19289   1.20177   1.20314
 Alpha virt. eigenvalues --    1.21379   1.23416   1.23831   1.24191   1.24727
 Alpha virt. eigenvalues --    1.25704   1.27145   1.28727   1.30164   1.30669
 Alpha virt. eigenvalues --    1.31418   1.31847   1.33546   1.34164   1.34664
 Alpha virt. eigenvalues --    1.35651   1.36761   1.38829   1.39548   1.40127
 Alpha virt. eigenvalues --    1.41836   1.42983   1.43868   1.44892   1.45959
 Alpha virt. eigenvalues --    1.46619   1.47441   1.48583   1.49065   1.49574
 Alpha virt. eigenvalues --    1.50214   1.50957   1.51490   1.51647   1.52497
 Alpha virt. eigenvalues --    1.52860   1.54230   1.55353   1.55917   1.56105
 Alpha virt. eigenvalues --    1.56688   1.57356   1.57545   1.58300   1.59298
 Alpha virt. eigenvalues --    1.59541   1.60094   1.60574   1.60966   1.61655
 Alpha virt. eigenvalues --    1.62535   1.63097   1.63919   1.64069   1.64613
 Alpha virt. eigenvalues --    1.65117   1.65315   1.65686   1.66040   1.66990
 Alpha virt. eigenvalues --    1.67635   1.68321   1.68520   1.68699   1.69211
 Alpha virt. eigenvalues --    1.70127   1.70427   1.71626   1.72075   1.72766
 Alpha virt. eigenvalues --    1.73317   1.73571   1.74354   1.74676   1.75017
 Alpha virt. eigenvalues --    1.75871   1.77195   1.77404   1.77912   1.78974
 Alpha virt. eigenvalues --    1.79232   1.79702   1.80025   1.80915   1.81843
 Alpha virt. eigenvalues --    1.82113   1.83033   1.83134   1.84304   1.84865
 Alpha virt. eigenvalues --    1.84985   1.85426   1.86485   1.87165   1.87564
 Alpha virt. eigenvalues --    1.89046   1.89360   1.90824   1.91297   1.91699
 Alpha virt. eigenvalues --    1.91733   1.92391   1.93655   1.94592   1.95667
 Alpha virt. eigenvalues --    1.96344   1.97532   1.98017   1.98320   1.98590
 Alpha virt. eigenvalues --    1.99080   2.00060   2.00532   2.01672   2.02673
 Alpha virt. eigenvalues --    2.03641   2.04166   2.04805   2.06271   2.06765
 Alpha virt. eigenvalues --    2.07819   2.08499   2.09972   2.10924   2.12081
 Alpha virt. eigenvalues --    2.12930   2.13184   2.14943   2.15173   2.16304
 Alpha virt. eigenvalues --    2.17935   2.19040   2.20018   2.21365   2.22454
 Alpha virt. eigenvalues --    2.24552   2.25226   2.27653   2.28605   2.29149
 Alpha virt. eigenvalues --    2.29762   2.32602   2.33681   2.34151   2.35858
 Alpha virt. eigenvalues --    2.36318   2.38306   2.39967   2.40456   2.41610
 Alpha virt. eigenvalues --    2.41847   2.43180   2.43296   2.44105   2.44172
 Alpha virt. eigenvalues --    2.44958   2.45764   2.46501   2.47406   2.48510
 Alpha virt. eigenvalues --    2.50227   2.51662   2.52393   2.53524   2.56445
 Alpha virt. eigenvalues --    2.58058   2.58846   2.59888   2.61470   2.62326
 Alpha virt. eigenvalues --    2.63310   2.64734   2.67899   2.69168   2.70550
 Alpha virt. eigenvalues --    2.70828   2.71609   2.71752   2.72879   2.74169
 Alpha virt. eigenvalues --    2.77924   2.78948   2.80308   2.80467   2.82934
 Alpha virt. eigenvalues --    2.88231   2.92604   2.93843   2.96272   2.98234
 Alpha virt. eigenvalues --    3.03277   3.03953   3.07590   3.08424   3.10432
 Alpha virt. eigenvalues --    3.15312   3.37085   3.41374   3.49515   3.53881
 Alpha virt. eigenvalues --    3.54278
          Condensed to atoms (all electrons):
              1          2          3          4          5          6
     1  O    7.614004   0.761427  -0.090246  -0.003295  -0.000022   0.000013
     2  C    0.761427   4.635049   0.283979  -0.040698  -0.000353  -0.000325
     3  C   -0.090246   0.283979   4.803781   0.365983  -0.049373   0.006612
     4  N   -0.003295  -0.040698   0.365983   6.504899   0.293898  -0.113503
     5  N   -0.000022  -0.000353  -0.049373   0.293898   6.547482   0.459258
     6  N    0.000013  -0.000325   0.006612  -0.113503   0.459258   6.432250
     7  C   -0.000917  -0.000887   0.010455  -0.005003  -0.126383   0.508704
     8  C   -0.000022   0.000020  -0.000441   0.007337   0.000523  -0.050970
     9  C    0.000015  -0.000002   0.000038   0.000505   0.000119   0.004328
    10  C    0.000028   0.000067  -0.000353   0.002491  -0.000123  -0.000689
    11  C    0.004794   0.002037  -0.005908  -0.059259   0.003346   0.011685
    12  C    0.009408   0.001688  -0.075537   0.322365  -0.091121  -0.072476
    13  N   -0.068456   0.373653  -0.074198   0.001517  -0.000023   0.000000
    14  C    0.002697  -0.053455   0.006849   0.000111   0.000028   0.000000
    15  C   -0.000100  -0.000496  -0.008174   0.000070   0.000000   0.000000
    16  C   -0.000003  -0.000080  -0.000467  -0.000001   0.000000   0.000000
    17  C    0.000000  -0.000001   0.000064   0.000000   0.000000   0.000000
    18  S    0.000000  -0.000101   0.000097   0.000000   0.000000   0.000000
    19  C   -0.000235   0.000372  -0.003410  -0.000004  -0.000001   0.000000
    20  C   -0.007614  -0.053765   0.007014  -0.000009   0.000001   0.000000
    21  C   -0.000526   0.003218  -0.000671   0.000002   0.000000   0.000000
    22  C    0.000032   0.000297   0.000005   0.000000   0.000000   0.000000
    23  C   -0.000019  -0.000036   0.000000   0.000000   0.000000   0.000000
    24  C   -0.000082   0.000138  -0.000001   0.000000   0.000000   0.000000
    25  C    0.001620  -0.012481   0.000477  -0.000021  -0.000001   0.000000
    26  C    0.000000   0.000001   0.000000   0.000000   0.000000   0.000000
    27  C    0.000000   0.000000   0.000000   0.000000   0.000000   0.000000
    28  N    0.000000   0.000000   0.000000   0.000000   0.000000   0.000000
    29  C    0.000000   0.000000   0.000000   0.000000   0.000000   0.000000
    30  N    0.000000   0.000000   0.000000   0.000000   0.000000   0.000000
    31  H    0.001066  -0.005727   0.334837  -0.022815   0.023954   0.000136
    32  H    0.000993  -0.015770   0.352316  -0.021439   0.001717  -0.000330
    33  H    0.000000   0.000000   0.000003  -0.000009  -0.000558  -0.000946
    34  H    0.000000   0.000000  -0.000001   0.000003   0.000008  -0.000096
    35  H   -0.000004   0.000000  -0.000014  -0.000134   0.000005  -0.000008
    36  H    0.003296   0.000363   0.001792  -0.006184  -0.000272  -0.000234
    37  H    0.000280  -0.015126   0.013057   0.000464  -0.000231   0.000002
    38  H   -0.000166   0.005996  -0.000845  -0.000009   0.000000   0.000000
    39  H    0.000000  -0.000022  -0.000025   0.000000   0.000000   0.000000
    40  H    0.000000   0.000000   0.000000   0.000000   0.000000   0.000000
    41  H    0.000184   0.002398  -0.000270   0.000004   0.000000   0.000000
    42  H   -0.000010  -0.001013  -0.000021   0.000000   0.000000   0.000000
    43  H    0.000000   0.000004   0.000000   0.000000   0.000000   0.000000
    44  H   -0.000013  -0.000013   0.000000   0.000000   0.000000   0.000000
    45  H    0.011653   0.000806   0.000144  -0.000003   0.000001   0.000000
    46  H    0.000000   0.000000   0.000000   0.000000   0.000000   0.000000
    47  H    0.000000   0.000000   0.000000   0.000000   0.000000   0.000000
    48  H    0.000000   0.000000   0.000000   0.000000   0.000000   0.000000
              7          8          9         10         11         12
     1  O   -0.000917  -0.000022   0.000015   0.000028   0.004794   0.009408
     2  C   -0.000887   0.000020  -0.000002   0.000067   0.002037   0.001688
     3  C    0.010455  -0.000441   0.000038  -0.000353  -0.005908  -0.075537
     4  N   -0.005003   0.007337   0.000505   0.002491  -0.059259   0.322365
     5  N   -0.126383   0.000523   0.000119  -0.000123   0.003346  -0.091121
     6  N    0.508704  -0.050970   0.004328  -0.000689   0.011685  -0.072476
     7  C    4.982569   0.427156   0.028667  -0.078468  -0.016180   0.281167
     8  C    0.427156   4.780137   0.497630   0.013925  -0.072304   0.013884
     9  C    0.028667   0.497630   4.761082   0.463699   0.007265  -0.089383
    10  C   -0.078468   0.013925   0.463699   4.720550   0.513097   0.026948
    11  C   -0.016180  -0.072304   0.007265   0.513097   4.852863   0.393569
    12  C    0.281167   0.013884  -0.089383   0.026948   0.393569   5.059611
    13  N   -0.000009   0.000000   0.000000  -0.000001  -0.000025   0.000440
    14  C    0.000001   0.000000   0.000000   0.000000  -0.000001   0.000012
    15  C    0.000000   0.000000   0.000000   0.000000  -0.000005  -0.000023
    16  C    0.000000   0.000000   0.000000   0.000000   0.000000   0.000000
    17  C    0.000000   0.000000   0.000000   0.000000   0.000000   0.000000
    18  S    0.000000   0.000000   0.000000   0.000000  -0.000015   0.000000
    19  C   -0.000001   0.000000   0.000000   0.000001  -0.000115  -0.000039
    20  C    0.000000   0.000000   0.000000   0.000000  -0.000001   0.000001
    21  C    0.000000   0.000000   0.000000   0.000000   0.000000   0.000001
    22  C    0.000000   0.000000   0.000000   0.000000   0.000000   0.000000
    23  C    0.000000   0.000000   0.000000   0.000000   0.000000   0.000000
    24  C    0.000000   0.000000   0.000000   0.000000   0.000000   0.000000
    25  C    0.000000   0.000000   0.000000   0.000000   0.000001  -0.000003
    26  C    0.000000   0.000000   0.000000   0.000000   0.000000   0.000000
    27  C    0.000000   0.000000   0.000000   0.000000   0.000000   0.000000
    28  N    0.000000   0.000000   0.000000   0.000000   0.000000   0.000000
    29  C    0.000000   0.000000   0.000000   0.000000   0.000000   0.000000
    30  N    0.000000   0.000000   0.000000   0.000000   0.000000   0.000000
    31  H   -0.000677  -0.000022   0.000003   0.000017   0.000334   0.010715
    32  H    0.000858   0.000023  -0.000017   0.000020   0.001707  -0.000853
    33  H   -0.041305   0.376772  -0.058901   0.010162  -0.001376   0.015997
    34  H    0.010817  -0.048511   0.389158  -0.051331   0.011387  -0.000934
    35  H   -0.000742   0.011008  -0.050473   0.385991  -0.047002   0.010764
    36  H    0.009621  -0.000014   0.008700  -0.044766   0.365506  -0.028803
    37  H   -0.000002   0.000000   0.000000   0.000000  -0.000001  -0.000012
    38  H    0.000000   0.000000   0.000000   0.000000   0.000000   0.000001
    39  H    0.000000   0.000000   0.000000   0.000000   0.000000   0.000000
    40  H    0.000000   0.000000   0.000000   0.000000   0.000000   0.000000
    41  H    0.000000   0.000000   0.000000   0.000000  -0.000027  -0.000006
    42  H    0.000000   0.000000   0.000000   0.000000   0.000000   0.000000
    43  H    0.000000   0.000000   0.000000   0.000000   0.000000   0.000000
    44  H    0.000000   0.000000   0.000000   0.000000   0.000000   0.000000
    45  H   -0.000001   0.000000   0.000000   0.000000   0.000000   0.000019
    46  H    0.000000   0.000000   0.000000   0.000000   0.000000   0.000000
    47  H    0.000000   0.000000   0.000000   0.000000   0.000000   0.000000
    48  H    0.000000   0.000000   0.000000   0.000000   0.000000   0.000000
             13         14         15         16         17         18
     1  O   -0.068456   0.002697  -0.000100  -0.000003   0.000000   0.000000
     2  C    0.373653  -0.053455  -0.000496  -0.000080  -0.000001  -0.000101
     3  C   -0.074198   0.006849  -0.008174  -0.000467   0.000064   0.000097
     4  N    0.001517   0.000111   0.000070  -0.000001   0.000000   0.000000
     5  N   -0.000023   0.000028   0.000000   0.000000   0.000000   0.000000
     6  N    0.000000   0.000000   0.000000   0.000000   0.000000   0.000000
     7  C   -0.000009   0.000001   0.000000   0.000000   0.000000   0.000000
     8  C    0.000000   0.000000   0.000000   0.000000   0.000000   0.000000
     9  C    0.000000   0.000000   0.000000   0.000000   0.000000   0.000000
    10  C   -0.000001   0.000000   0.000000   0.000000   0.000000   0.000000
    11  C   -0.000025  -0.000001  -0.000005   0.000000   0.000000  -0.000015
    12  C    0.000440   0.000012  -0.000023   0.000000   0.000000   0.000000
    13  N    6.545442   0.364131  -0.044674   0.003957  -0.000190   0.000114
    14  C    0.364131   4.670664   0.380617  -0.069177   0.007659   0.008729
    15  C   -0.044674   0.380617   4.890591   0.451660  -0.007444  -0.083543
    16  C    0.003957  -0.069177   0.451660   4.757852   0.548448  -0.091556
    17  C   -0.000190   0.007659  -0.007444   0.548448   4.956883   0.365885
    18  S    0.000114   0.008729  -0.083543  -0.091556   0.365885  15.362431
    19  C    0.002136  -0.091544   0.551233  -0.038795  -0.103392   0.357307
    20  C    0.321608  -0.058857  -0.004543   0.000037   0.000001  -0.000035
    21  C   -0.053792  -0.001545  -0.004359  -0.000124   0.000021   0.000031
    22  C    0.003920  -0.000030   0.000213   0.000002   0.000000  -0.000003
    23  C    0.000421  -0.000025   0.000000   0.000000   0.000000   0.000000
    24  C    0.003505   0.000142   0.000006   0.000000   0.000000   0.000000
    25  C   -0.048241   0.002394  -0.000527   0.000013   0.000000   0.000000
    26  C    0.000002  -0.000001   0.000000   0.000000   0.000000   0.000000
    27  C    0.000000   0.000000   0.000000   0.000000   0.000000   0.000000
    28  N    0.000000   0.000000   0.000000   0.000000   0.000000   0.000000
    29  C    0.000000   0.000000   0.000000   0.000000   0.000000   0.000000
    30  N    0.000000   0.000000   0.000000   0.000000   0.000000   0.000000
    31  H   -0.000802  -0.000758  -0.001032  -0.000069  -0.000012   0.000003
    32  H   -0.001300   0.003229   0.004207   0.000480  -0.000218  -0.000367
    33  H    0.000000   0.000000   0.000000   0.000000   0.000000   0.000000
    34  H    0.000000   0.000000   0.000000   0.000000   0.000000   0.000000
    35  H    0.000000   0.000000   0.000000   0.000000   0.000000   0.000000
    36  H   -0.000081  -0.000023   0.000068  -0.000008  -0.000005   0.000096
    37  H   -0.018099   0.352821  -0.026320  -0.006246   0.000146  -0.000134
    38  H   -0.011185   0.351707  -0.020231  -0.000580   0.000071  -0.000034
    39  H    0.000169  -0.008297  -0.049965   0.402224  -0.056314   0.008201
    40  H    0.000002  -0.000201   0.006837  -0.016394   0.387209  -0.043478
    41  H    0.003848  -0.019080  -0.005604   0.011180   0.001932  -0.042740
    42  H   -0.012665   0.008958  -0.003764  -0.000062  -0.000185  -0.000057
    43  H   -0.000147   0.000013   0.000005  -0.000001   0.000000   0.000000
    44  H   -0.000117   0.000005   0.000000   0.000000   0.000000   0.000000
    45  H   -0.011555  -0.000588  -0.000039   0.000000   0.000000   0.000000
    46  H    0.000000   0.000000   0.000000   0.000000   0.000000   0.000000
    47  H    0.000000   0.000000   0.000000   0.000000   0.000000   0.000000
    48  H    0.000000   0.000000   0.000000   0.000000   0.000000   0.000000
             19         20         21         22         23         24
     1  O   -0.000235  -0.007614  -0.000526   0.000032  -0.000019  -0.000082
     2  C    0.000372  -0.053765   0.003218   0.000297  -0.000036   0.000138
     3  C   -0.003410   0.007014  -0.000671   0.000005   0.000000  -0.000001
     4  N   -0.000004  -0.000009   0.000002   0.000000   0.000000   0.000000
     5  N   -0.000001   0.000001   0.000000   0.000000   0.000000   0.000000
     6  N    0.000000   0.000000   0.000000   0.000000   0.000000   0.000000
     7  C   -0.000001   0.000000   0.000000   0.000000   0.000000   0.000000
     8  C    0.000000   0.000000   0.000000   0.000000   0.000000   0.000000
     9  C    0.000000   0.000000   0.000000   0.000000   0.000000   0.000000
    10  C    0.000001   0.000000   0.000000   0.000000   0.000000   0.000000
    11  C   -0.000115  -0.000001   0.000000   0.000000   0.000000   0.000000
    12  C   -0.000039   0.000001   0.000001   0.000000   0.000000   0.000000
    13  N    0.002136   0.321608  -0.053792   0.003920   0.000421   0.003505
    14  C   -0.091544  -0.058857  -0.001545  -0.000030  -0.000025   0.000142
    15  C    0.551233  -0.004543  -0.004359   0.000213   0.000000   0.000006
    16  C   -0.038795   0.000037  -0.000124   0.000002   0.000000   0.000000
    17  C   -0.103392   0.000001   0.000021   0.000000   0.000000   0.000000
    18  S    0.357307  -0.000035   0.000031  -0.000003   0.000000   0.000000
    19  C    5.069917   0.000253  -0.003978  -0.000083   0.000001  -0.000001
    20  C    0.000253   4.925464   0.433525   0.009993  -0.082267   0.019727
    21  C   -0.003978   0.433525   4.831423   0.495048   0.017976  -0.071479
    22  C   -0.000083   0.009993   0.495048   4.919474   0.467230  -0.059415
    23  C    0.000001  -0.082267   0.017976   0.467230   5.090043   0.369050
    24  C   -0.000001   0.019727  -0.071479  -0.059415   0.369050   4.947946
    25  C    0.000008   0.462249  -0.033808  -0.071503   0.020135   0.462226
    26  C    0.000000   0.000563   0.010983  -0.077412   0.283902  -0.097361
    27  C    0.000000   0.000002  -0.000350  -0.035677  -0.050246   0.022589
    28  N    0.000000   0.000000  -0.000004   0.000068   0.003512   0.000037
    29  C    0.000000   0.000001   0.000008   0.000139   0.009513  -0.000572
    30  N    0.000000   0.000016  -0.000062   0.005155  -0.057439  -0.001919
    31  H    0.000239   0.000028   0.000011   0.000000   0.000000  -0.000003
    32  H    0.002469  -0.000502   0.000067  -0.000001   0.000000   0.000001
    33  H    0.000000   0.000000   0.000000   0.000000   0.000000   0.000000
    34  H    0.000000   0.000000   0.000000   0.000000   0.000000   0.000000
    35  H   -0.000001   0.000000   0.000000   0.000000   0.000000   0.000000
    36  H    0.000771   0.000012   0.000004   0.000000   0.000000   0.000000
    37  H    0.005466   0.007354   0.000070  -0.000035   0.000000  -0.000006
    38  H   -0.002022  -0.010808   0.012858   0.000919  -0.000095  -0.000185
    39  H    0.011678  -0.000015  -0.000003   0.000000   0.000000   0.000000
    40  H    0.003336   0.000000   0.000000   0.000000   0.000000   0.000000
    41  H    0.382940   0.000960   0.001891   0.000272  -0.000006  -0.000026
    42  H    0.005275  -0.044594   0.373262  -0.039476   0.009701   0.000010
    43  H    0.000002   0.011479  -0.048968   0.378871  -0.040416   0.013839
    44  H    0.000000   0.011553  -0.000782   0.012502  -0.049118   0.393174
    45  H    0.000005  -0.039401   0.010716  -0.000135   0.009559  -0.042334
    46  H    0.000000  -0.000008   0.000509   0.005305  -0.015619  -0.000753
    47  H    0.000000   0.000000   0.000000   0.000011  -0.000833   0.000008
    48  H    0.000000   0.000000   0.000000   0.000028  -0.000284  -0.000012
             25         26         27         28         29         30
     1  O    0.001620   0.000000   0.000000   0.000000   0.000000   0.000000
     2  C   -0.012481   0.000001   0.000000   0.000000   0.000000   0.000000
     3  C    0.000477   0.000000   0.000000   0.000000   0.000000   0.000000
     4  N   -0.000021   0.000000   0.000000   0.000000   0.000000   0.000000
     5  N   -0.000001   0.000000   0.000000   0.000000   0.000000   0.000000
     6  N    0.000000   0.000000   0.000000   0.000000   0.000000   0.000000
     7  C    0.000000   0.000000   0.000000   0.000000   0.000000   0.000000
     8  C    0.000000   0.000000   0.000000   0.000000   0.000000   0.000000
     9  C    0.000000   0.000000   0.000000   0.000000   0.000000   0.000000
    10  C    0.000000   0.000000   0.000000   0.000000   0.000000   0.000000
    11  C    0.000001   0.000000   0.000000   0.000000   0.000000   0.000000
    12  C   -0.000003   0.000000   0.000000   0.000000   0.000000   0.000000
[...]
    35  H    0.000000   0.000000   0.000000   0.000000   0.000000   0.000000
    36  H   -0.000015   0.000000   0.000000   0.000000   0.000305  -0.000001
    37  H    0.680833  -0.030104   0.002916   0.000004   0.000017   0.000652
    38  H   -0.030104   0.656962   0.001017   0.000004  -0.000036  -0.002895
    39  H    0.002916   0.001017   0.724834  -0.008720  -0.000146  -0.000021
    40  H    0.000004   0.000004  -0.008720   0.653063  -0.000127   0.000001
    41  H    0.000017  -0.000036  -0.000146  -0.000127   0.637855   0.000025
    42  H    0.000652  -0.002895  -0.000021   0.000001   0.000025   0.743354
    43  H   -0.000001   0.000028   0.000000   0.000000  -0.000002  -0.018068
    44  H    0.000000   0.000003   0.000000   0.000000   0.000000   0.000055
    45  H    0.000018   0.000048   0.000000   0.000000   0.000000  -0.000250
    46  H    0.000000   0.000000   0.000000   0.000000   0.000000   0.000010
    47  H    0.000000   0.000000   0.000000   0.000000   0.000000   0.000000
    48  H    0.000000   0.000000   0.000000   0.000000   0.000000   0.000000
             43         44         45         46         47         48
     1  O    0.000000  -0.000013   0.011653   0.000000   0.000000   0.000000
     2  C    0.000004  -0.000013   0.000806   0.000000   0.000000   0.000000
     3  C    0.000000   0.000000   0.000144   0.000000   0.000000   0.000000
     4  N    0.000000   0.000000  -0.000003   0.000000   0.000000   0.000000
     5  N    0.000000   0.000000   0.000001   0.000000   0.000000   0.000000
     6  N    0.000000   0.000000   0.000000   0.000000   0.000000   0.000000
     7  C    0.000000   0.000000  -0.000001   0.000000   0.000000   0.000000
     8  C    0.000000   0.000000   0.000000   0.000000   0.000000   0.000000
     9  C    0.000000   0.000000   0.000000   0.000000   0.000000   0.000000
    10  C    0.000000   0.000000   0.000000   0.000000   0.000000   0.000000
    11  C    0.000000   0.000000   0.000000   0.000000   0.000000   0.000000
    12  C    0.000000   0.000000   0.000019   0.000000   0.000000   0.000000
    13  N   -0.000147  -0.000117  -0.011555   0.000000   0.000000   0.000000
    14  C    0.000013   0.000005  -0.000588   0.000000   0.000000   0.000000
    15  C    0.000005   0.000000  -0.000039   0.000000   0.000000   0.000000
    16  C   -0.000001   0.000000   0.000000   0.000000   0.000000   0.000000
    17  C    0.000000   0.000000   0.000000   0.000000   0.000000   0.000000
    18  S    0.000000   0.000000   0.000000   0.000000   0.000000   0.000000
    19  C    0.000002   0.000000   0.000005   0.000000   0.000000   0.000000
    20  C    0.011479   0.011553  -0.039401  -0.000008   0.000000   0.000000
    21  C   -0.048968  -0.000782   0.010716   0.000509   0.000000   0.000000
    22  C    0.378871   0.012502  -0.000135   0.005305   0.000011   0.000028
    23  C   -0.040416  -0.049118   0.009559  -0.015619  -0.000833  -0.000284
    24  C    0.013839   0.393174  -0.042334  -0.000753   0.000008  -0.000012
    25  C   -0.000795  -0.053637   0.382185   0.000019   0.000000   0.000000
    26  C   -0.029971  -0.030562  -0.000359  -0.009623  -0.000423   0.011430
    27  C    0.007301   0.002529   0.000000   0.376632   0.007822  -0.035915
    28  N    0.000068   0.000063   0.000000  -0.031823  -0.034347   0.369621
    29  C   -0.000082  -0.000154  -0.000001   0.006784   0.391699  -0.028211
    30  N    0.000023   0.029574  -0.000033   0.005219  -0.019243   0.005842
    31  H    0.000000   0.000000  -0.000065   0.000000   0.000000   0.000000
    32  H    0.000000   0.000000   0.000001   0.000000   0.000000   0.000000
    33  H    0.000000   0.000000   0.000000   0.000000   0.000000   0.000000
    34  H    0.000000   0.000000   0.000000   0.000000   0.000000   0.000000
    35  H    0.000000   0.000000   0.000000   0.000000   0.000000   0.000000
    36  H    0.000000   0.000000   0.000002   0.000000   0.000000   0.000000
    37  H   -0.000001   0.000000   0.000018   0.000000   0.000000   0.000000
    38  H    0.000028   0.000003   0.000048   0.000000   0.000000   0.000000
    39  H    0.000000   0.000000   0.000000   0.000000   0.000000   0.000000
    40  H    0.000000   0.000000   0.000000   0.000000   0.000000   0.000000
    41  H   -0.000002   0.000000   0.000000   0.000000   0.000000   0.000000
    42  H   -0.018068   0.000055  -0.000250   0.000010   0.000000   0.000000
    43  H    0.783368  -0.000175   0.000051  -0.001246  -0.000001   0.000017
    44  H   -0.000175   0.732538  -0.015805  -0.000068  -0.000044  -0.000009
    45  H    0.000051  -0.015805   0.712394   0.000000   0.000000   0.000000
    46  H   -0.001246  -0.000068   0.000000   0.674515  -0.000217  -0.004545
    47  H   -0.000001  -0.000044   0.000000  -0.000217   0.653994  -0.002815
    48  H    0.000017  -0.000009   0.000000  -0.004545  -0.002815   0.592276
 Mulliken atomic charges:
              1
     1  O   -0.239781
     2  C    0.128837
     3  C    0.122452
     4  N   -0.227264
     5  N   -0.061878
     6  N   -0.183409
     7  C    0.010560
     8  C    0.043868
     9  C    0.037568
    10  C    0.038736
    11  C    0.034627
    12  C    0.212601
    13  N   -0.279307
    14  C    0.142812
    15  C   -0.024661
    16  C    0.047708
    17  C   -0.100560
    18  S    0.159171
    19  C   -0.149788
    20  C    0.090578
    21  C    0.028824
    22  C   -0.015714
    23  C    0.015359
    24  C    0.041751
    25  C    0.087782
    26  C    0.099919
    27  C   -0.003269
    28  N   -0.045157
    29  C    0.136770
    30  N   -0.218013
    31  H    0.059631
    32  H    0.059659
    33  H   -0.023719
    34  H   -0.028553
    35  H   -0.026679
    36  H   -0.031454
    37  H    0.036309
    38  H    0.048000
    39  H   -0.027502
    40  H    0.018459
    41  H    0.024489
    42  H   -0.027902
    43  H   -0.055198
    44  H   -0.031500
    45  H   -0.017035
    46  H   -0.005093
    47  H    0.004391
    48  H    0.092576
 Sum of Mulliken atomic charges =   0.00000
 Mulliken charges with hydrogens summed into heavy atoms:
              1
     1  O   -0.239781
     2  C    0.128837
     3  C    0.241742
     4  N   -0.227264
     5  N   -0.061878
     6  N   -0.183409
     7  C    0.010560
     8  C    0.020148
     9  C    0.009015
    10  C    0.012056
    11  C    0.003173
    12  C    0.212601
    13  N   -0.279307
    14  C    0.227121
    15  C   -0.024661
    16  C    0.020206
    17  C   -0.082101
    18  S    0.159171
    19  C   -0.125300
    20  C    0.090578
    21  C    0.000922
    22  C   -0.070912
    23  C    0.015359
    24  C    0.010252
    25  C    0.070747
    26  C    0.099919
    27  C   -0.008363
    28  N    0.047419
    29  C    0.141161
    30  N   -0.218013
 Sum of Mulliken charges with hydrogens summed into heavy atoms =   0.00000
 Electronic spatial extent (au):  <R**2>=          17401.1019
 Charge=              0.0000 electrons
 Dipole moment (field-independent basis, Debye):
    X=             -6.3618    Y=              6.1492    Z=              2.3032  Tot=              9.1428
 Quadrupole moment (field-independent basis, Debye-Ang):
   XX=           -136.6245   YY=           -175.0406   ZZ=           -177.4116
   XY=              7.7939   XZ=              1.0501   YZ=            -10.7887
 Traceless Quadrupole moment (field-independent basis, Debye-Ang):
   XX=             26.4010   YY=            -12.0150   ZZ=            -14.3860
   XY=              7.7939   XZ=              1.0501   YZ=            -10.7887
 Octapole moment (field-independent basis, Debye-Ang**2):
  XXX=           -634.2045  YYY=             67.2670  ZZZ=             19.7399  XYY=              7.8238
  XXY=            -25.7645  XXZ=            178.6007  XZZ=            -12.7949  YZZ=             19.3932
  YYZ=             -1.0227  XYZ=            -36.6775
 Hexadecapole moment (field-independent basis, Debye-Ang**3):
 XXXX=         -11387.6586 YYYY=          -5379.4138 ZZZZ=          -1510.7597 XXXY=            497.1701
 XXXZ=           -576.0679 YYYX=            214.8643 YYYZ=            -62.8590 ZZZX=             90.9221
 ZZZY=            -69.5188 XXYY=          -3522.8475 XXZZ=          -3082.9714 YYZZ=          -1221.9384
 XXYZ=           -276.3336 YYXZ=             46.3229 ZZXY=             42.7296
 N-N= 2.773882830693D+03 E-N=-9.407203513504D+03  KE= 1.641943655169D+03
 No NMR shielding tensors so no spin-rotation constants.
 Leave Link  601 at Sat Sep 10 10:13:03 2022, MaxMem=  209715200 cpu:       3.6
 (Enter /opt/gaussian/l602.exe)
 Breneman (CHELPG) radii used.
 Read replacement radii for each type of atom:
 Rad(35) =   1.900000000000D+00
 Atom Element Radius
    1     8    1.70
    2     6    1.50
    3     6    1.50
    4     7    1.70
    5     7    1.70
    6     7    1.70
    7     6    1.50
    8     6    1.50
    9     6    1.50
   10     6    1.50
   11     6    1.50
   12     6    1.50
   13     7    1.70
   14     6    1.50
   15     6    1.50
   16     6    1.50
   17     6    1.50
   18    16    2.00
   19     6    1.50
   20     6    1.50
   21     6    1.50
   22     6    1.50
   23     6    1.50
   24     6    1.50
   25     6    1.50
   26     6    1.50
   27     6    1.50
   28     7    1.70
   29     6    1.50
   30     7    1.70
   31     1    1.45
   32     1    1.45
   33     1    1.45
   34     1    1.45
   35     1    1.45
   36     1    1.45
   37     1    1.45
   38     1    1.45
   39     1    1.45
   40     1    1.45
   41     1    1.45
   42     1    1.45
   43     1    1.45
   44     1    1.45
   45     1    1.45
   46     1    1.45
   47     1    1.45
   48     1    1.45
 Generate Potential Derived Charges using the Breneman model, NDens= 1.
 Grid spacing= 0.300 Box extension= 2.800
 NStep X,Y,Z=   70     52     40   Total possible points=      145600
 Number of Points to Fit=   27107

 **********************************************************************

            Electrostatic Properties Using The SCF Density

 **********************************************************************

       Atomic Center    1 is at   0.830221 -1.442980 -0.101209
       Atomic Center    2 is at   0.934860 -0.377380 -0.680739
       Atomic Center    3 is at   2.314220  0.118640 -1.162399
       Atomic Center    4 is at   3.347881 -0.863059 -0.949859
       Atomic Center    5 is at   3.933131 -1.455109 -2.036299
       Atomic Center    6 is at   4.851801 -2.267649 -1.641739
       Atomic Center    7 is at   4.900301 -2.233399 -0.261419
       Atomic Center    8 is at   5.730491 -2.918179  0.643821
       Atomic Center    9 is at   5.549921 -2.662839  1.995711
       Atomic Center   10 is at   4.562021 -1.750959  2.448411
       Atomic Center   11 is at   3.729761 -1.070299  1.569181
       Atomic Center   12 is at   3.921921 -1.327329  0.201591
       Atomic Center   13 is at  -0.138260  0.461930 -0.948559
       Atomic Center   14 is at   0.061000  1.785050 -1.552279
       Atomic Center   15 is at   0.533100  2.873870 -0.609449
       Atomic Center   16 is at   0.972520  4.159560 -1.075049
       Atomic Center   17 is at   1.340139  5.001640 -0.060229
       Atomic Center   18 is at   1.163209  4.245630  1.493351
       Atomic Center   19 is at   0.584780  2.779480  0.760141
       Atomic Center   20 is at  -1.480870  0.064010 -0.620699
       Atomic Center   21 is at  -2.392190  1.012319 -0.129229
       Atomic Center   22 is at  -3.712400  0.654589  0.141831
       Atomic Center   23 is at  -4.165349 -0.659551 -0.057529
       Atomic Center   24 is at  -3.242499 -1.601791 -0.546019
       Atomic Center   25 is at  -1.924209 -1.252701 -0.826369
       Atomic Center   26 is at  -5.549829 -1.062881  0.225851
       Atomic Center   27 is at  -6.596980 -0.306262  0.725621
       Atomic Center   28 is at  -7.670189 -1.166982  0.801171
       Atomic Center   29 is at  -7.245479 -2.387492  0.354661
       Atomic Center   30 is at  -5.979829 -2.360491  0.001831
       Atomic Center   31 is at   2.306130  0.306030 -2.245179
       Atomic Center   32 is at   2.576080  1.062390 -0.657799
       Atomic Center   33 is at   6.483341 -3.619559  0.281001
       Atomic Center   34 is at   6.173731 -3.174229  2.731701
       Atomic Center   35 is at   4.447991 -1.586639  3.522281
       Atomic Center   36 is at   2.956790 -0.389730  1.926271
       Atomic Center   37 is at   0.767060  1.704170 -2.393819
       Atomic Center   38 is at  -0.897760  2.077830 -2.004959
       Atomic Center   39 is at   1.013209  4.440340 -2.128849
       Atomic Center   40 is at   1.711139  6.021990 -0.133319
       Atomic Center   41 is at   0.307690  1.930630  1.381821
       Atomic Center   42 is at  -2.072690  2.038739  0.056461
       Atomic Center   43 is at  -4.392230  1.419999  0.522681
       Atomic Center   44 is at  -3.583269 -2.624481 -0.709589
       Atomic Center   45 is at  -1.234599 -2.007080 -1.198259
       Atomic Center   46 is at  -6.677270  0.732758  1.027951
       Atomic Center   47 is at  -7.902519 -3.253652  0.310411
       Atomic Center   48 is at  -8.599049 -0.934792  1.129061
   27107 points will be used for fitting atomic charges
 Fitting point charges to electrostatic potential
 Charges from ESP fit, RMS=   0.00426 RRMS=   0.21241:
 Charge=   0.00000 Dipole=    -6.2453     6.2425     2.2181 Tot=     9.1045
              1
     1  O   -0.503917
     2  C    0.581921
     3  C    0.003004
     4  N    0.313213
     5  N   -0.232619
     6  N   -0.346757
     7  C    0.416861
     8  C   -0.253471
     9  C   -0.063297
    10  C   -0.093445
    11  C   -0.142965
    12  C   -0.081735
    13  N   -0.429820
    14  C    0.167484
    15  C    0.151045
    16  C   -0.212939
    17  C   -0.145926
    18  S    0.005982
    19  C   -0.181956
    20  C    0.261048
    21  C   -0.101216
    22  C   -0.133485
    23  C   -0.087777
    24  C    0.080115
    25  C   -0.269160
    26  C    0.309310
    27  C   -0.239813
    28  N   -0.225555
    29  C    0.189262
    30  N   -0.466246
    31  H    0.007695
    32  H   -0.036645
    33  H    0.125336
    34  H    0.087327
    35  H    0.089432
    36  H    0.110807
    37  H    0.056419
    38  H    0.001851
    39  H    0.111729
    40  H    0.165994
    41  H    0.156879
    42  H    0.045370
    43  H    0.090496
    44  H    0.035019
    45  H    0.161531
    46  H    0.156287
    47  H    0.075881
    48  H    0.291446
 Charges from ESP fit with hydrogens summed into heavy atoms:
              1
     1  O   -0.503917
     2  C    0.581921
     3  C   -0.025946
     4  N    0.313213
     5  N   -0.232619
     6  N   -0.346757
     7  C    0.416861
     8  C   -0.128135
     9  C    0.024030
    10  C   -0.004014
    11  C   -0.032157
    12  C   -0.081735
    13  N   -0.429820
    14  C    0.225754
    15  C    0.151045
    16  C   -0.101210
    17  C    0.020068
    18  S    0.005982
    19  C   -0.025077
    20  C    0.261048
    21  C   -0.055846
    22  C   -0.042990
    23  C   -0.087777
    24  C    0.115134
    25  C   -0.107629
    26  C    0.309310
    27  C   -0.083526
    28  N    0.065891
    29  C    0.265142
    30  N   -0.466246
    31  H    0.000000
    32  H    0.000000
    33  H    0.000000
    34  H    0.000000
    35  H    0.000000
    36  H    0.000000
    37  H    0.000000
    38  H    0.000000
    39  H    0.000000
    40  H    0.000000
    41  H    0.000000
    42  H    0.000000
    43  H    0.000000
    44  H    0.000000
    45  H    0.000000
    46  H    0.000000
    47  H    0.000000
    48  H    0.000000
 -----------------------------------------------------------------

              Electrostatic Properties (Atomic Units)

 -----------------------------------------------------------------
    Center     Electric         -------- Electric Field --------
               Potential          X             Y             Z
 -----------------------------------------------------------------
    1 Atom    -22.369313
    2 Atom    -14.640475
    3 Atom    -14.688065
    4 Atom    -18.298445
    5 Atom    -18.335962
    6 Atom    -18.374369
    7 Atom    -14.742342
    8 Atom    -14.752795
    9 Atom    -14.756068
   10 Atom    -14.750823
   11 Atom    -14.746876
   12 Atom    -14.719758
   13 Atom    -18.320089
   14 Atom    -14.684517
   15 Atom    -14.728969
   16 Atom    -14.736951
   17 Atom    -14.716987
   18 Atom    -59.175044
   19 Atom    -14.720075
   20 Atom    -14.710627
   21 Atom    -14.752585
   22 Atom    -14.753805
   23 Atom    -14.749543
   24 Atom    -14.764177
   25 Atom    -14.760177
   26 Atom    -14.733680
   27 Atom    -14.720845
   28 Atom    -18.304996
   29 Atom    -14.695738
   30 Atom    -18.399505
   31 Atom     -1.059576
   32 Atom     -1.063903
   33 Atom     -1.093885
   34 Atom     -1.099667
   35 Atom     -1.096521
   36 Atom     -1.086700
   37 Atom     -1.069605
   38 Atom     -1.069886
   39 Atom     -1.066770
   40 Atom     -1.053366
   41 Atom     -1.054674
   42 Atom     -1.087753
   43 Atom     -1.092770
   44 Atom     -1.110039
   45 Atom     -1.103927
   46 Atom     -1.057906
   47 Atom     -1.060511
   48 Atom     -0.966215
 -----------------------------------------------------------------
 Leave Link  602 at Sat Sep 10 10:13:16 2022, MaxMem=  209715200 cpu:      97.0
 (Enter /opt/gaussian/l9999.exe)
 1\1\GINC-LQCAPF-6\SP\RB3LYP\CC-pVDZ\C22H18N6O1S1\LQCAPF-6\10-Sep-2022\
 0\\#p b3lyp/cc-pvdz pop=(chelpg,readradii)\\Mol21.log\\0,1\O,0,0.83022
 ,-1.44298,-0.10121\C,0,0.93486,-0.37738,-0.68074\C,0,2.31422,0.11864,-
 1.1624\N,0,3.34788,-0.86306,-0.94986\N,0,3.93313,-1.45511,-2.0363\N,0,
 4.8518,-2.26765,-1.64174\C,0,4.9003,-2.2334,-0.26142\C,0,5.73049,-2.91
 818,0.64382\C,0,5.54992,-2.66284,1.99571\C,0,4.56202,-1.75096,2.44841\
 C,0,3.72976,-1.0703,1.56918\C,0,3.92192,-1.32733,0.20159\N,0,-0.13826,
 0.46193,-0.94856\C,0,0.061,1.78505,-1.55228\C,0,0.5331,2.87387,-0.6094
 5\C,0,0.97252,4.15956,-1.07505\C,0,1.34014,5.00164,-0.06023\S,0,1.1632
 1,4.24563,1.49335\C,0,0.58478,2.77948,0.76014\C,0,-1.48087,0.06401,-0.
 6207\C,0,-2.39219,1.01232,-0.12923\C,0,-3.7124,0.65459,0.14183\C,0,-4.
 16535,-0.65955,-0.05753\C,0,-3.2425,-1.60179,-0.54602\C,0,-1.92421,-1.
 2527,-0.82637\C,0,-5.54983,-1.06288,0.22585\C,0,-6.59698,-0.30626,0.72
 562\N,0,-7.67019,-1.16698,0.80117\C,0,-7.24548,-2.38749,0.35466\N,0,-5
 .97983,-2.36049,0.00183\H,0,2.30613,0.30603,-2.24518\H,0,2.57608,1.062
 39,-0.6578\H,0,6.48334,-3.61956,0.281\H,0,6.17373,-3.17423,2.7317\H,0,
 4.44799,-1.58664,3.52228\H,0,2.95679,-0.38973,1.92627\H,0,0.76706,1.70
 417,-2.39382\H,0,-0.89776,2.07783,-2.00496\H,0,1.01321,4.44034,-2.1288
 5\H,0,1.71114,6.02199,-0.13332\H,0,0.30769,1.93063,1.38182\H,0,-2.0726
 9,2.03874,0.05646\H,0,-4.39223,1.42,0.52268\H,0,-3.58327,-2.62448,-0.7
 0959\H,0,-1.2346,-2.00708,-1.19826\H,0,-6.67727,0.73276,1.02795\H,0,-7
 .90252,-3.25365,0.31041\H,0,-8.59905,-0.93479,1.12906\\Version=EM64L-G
 09RevC.01\State=1-A\HF=-1651.1637003\RMSD=5.440e-09\Dipole=-2.5029292,
 2.419275,0.9061638\Quadrupole=19.6285329,-8.9328823,-10.6956506,5.7945
 979,0.7807089,-8.0211104\PG=C01 [X(C22H18N6O1S1)]\\@


 THE ENLIGHTENED ONE, BECAUSE HE SAW MANKIND DROWNING  
 IN THE GREAT SEA OF BIRTH, DEATH, AND SORROW, LONGED TO SAVE 
 THEM, FOR THIS HE WAS MOVED TO PITY.                         
 BECAUSE HE SAW MEN OF THE WORLD STRAYING IN FALSE PATHS, AND 
 NONE TO GUIDE THEM, FOR THIS HE WAS MOVED TO PITY.           
                     ..................                       
 BECAUSE HE SAW THE MEN OF THE WORLD PLOUGHING THEIR FIELDS,  
 SOWING THE SEED, TRAFFICKING, HUCKSTERING, BUYING, SELLING,  
 AND AT THE END WINNOWING NOTHING BUT BITTERNESS,             
 FOR THIS HE WAS MOVED TO PITY......                   
                   BUDAH'S PITY - UPSAKA SILA SUTRA           
 Job cpu time:  0 days  1 hours 25 minutes 27.3 seconds.
 File lengths (MBytes):  RWF=    147 Int=      0 D2E=      0 Chk=     10 Scr=      1
 Normal termination of Gaussian 09 at Sat Sep 10 10:13:16 2022.
