 Entering Gaussian System, Link 0=g09
 Input=Mol27.gjf
 Output=Mol27.log
 Initial command:
 /opt/gaussian/l1.exe /home/scr/lqcapf-6/Gau-565181.inp -scrdir=/home/scr/lqcapf-6/
 Entering Link 1 = /opt/gaussian/l1.exe PID=    565183.
  
 Copyright (c) 1988,1990,1992,1993,1995,1998,2003,2009,2011,
            Gaussian, Inc.  All Rights Reserved.
  
 This is part of the Gaussian(R) 09 program.  It is based on
 the Gaussian(R) 03 system (copyright 2003, Gaussian, Inc.),
 the Gaussian(R) 98 system (copyright 1998, Gaussian, Inc.),
 the Gaussian(R) 94 system (copyright 1995, Gaussian, Inc.),
 the Gaussian 92(TM) system (copyright 1992, Gaussian, Inc.),
 the Gaussian 90(TM) system (copyright 1990, Gaussian, Inc.),
 the Gaussian 88(TM) system (copyright 1988, Gaussian, Inc.),
 the Gaussian 86(TM) system (copyright 1986, Carnegie Mellon
 University), and the Gaussian 82(TM) system (copyright 1983,
 Carnegie Mellon University). Gaussian is a federally registered
 trademark of Gaussian, Inc.
  
 This software contains proprietary and confidential information,
 including trade secrets, belonging to Gaussian, Inc.
  
 This software is provided under written license and may be
 used, copied, transmitted, or stored only in accord with that
 written license.
  
 The following legend is applicable only to US Government
 contracts under FAR:
  
                    RESTRICTED RIGHTS LEGEND
  
 Use, reproduction and disclosure by the US Government is
 subject to restrictions as set forth in subparagraphs (a)
 and (c) of the Commercial Computer Software - Restricted
 Rights clause in FAR 52.227-19.
  
 Gaussian, Inc.
 340 Quinnipiac St., Bldg. 40, Wallingford CT 06492
  
  
 ---------------------------------------------------------------
 Warning -- This program may not be used in any manner that
 competes with the business of Gaussian, Inc. or will provide
 assistance to any competitor of Gaussian, Inc.  The licensee
 of this program is prohibited from giving any competitor of
 Gaussian, Inc. access to this program.  By using this program,
 the user acknowledges that Gaussian, Inc. is engaged in the
 business of creating and licensing software in the field of
 computational chemistry and represents and warrants to the
 licensee that it is not a competitor of Gaussian, Inc. and that
 it will not use this program in any manner prohibited above.
 ---------------------------------------------------------------
  

 Cite this work as:
 Gaussian 09, Revision C.01,
 M. J. Frisch, G. W. Trucks, H. B. Schlegel, G. E. Scuseria, 
 M. A. Robb, J. R. Cheeseman, G. Scalmani, V. Barone, B. Mennucci, 
 G. A. Petersson, H. Nakatsuji, M. Caricato, X. Li, H. P. Hratchian, 
 A. F. Izmaylov, J. Bloino, G. Zheng, J. L. Sonnenberg, M. Hada, 
 M. Ehara, K. Toyota, R. Fukuda, J. Hasegawa, M. Ishida, T. Nakajima, 
 Y. Honda, O. Kitao, H. Nakai, T. Vreven, J. A. Montgomery, Jr., 
 J. E. Peralta, F. Ogliaro, M. Bearpark, J. J. Heyd, E. Brothers, 
 K. N. Kudin, V. N. Staroverov, T. Keith, R. Kobayashi, J. Normand, 
 K. Raghavachari, A. Rendell, J. C. Burant, S. S. Iyengar, J. Tomasi, 
 M. Cossi, N. Rega, J. M. Millam, M. Klene, J. E. Knox, J. B. Cross, 
 V. Bakken, C. Adamo, J. Jaramillo, R. Gomperts, R. E. Stratmann, 
 O. Yazyev, A. J. Austin, R. Cammi, C. Pomelli, J. W. Ochterski, 
 R. L. Martin, K. Morokuma, V. G. Zakrzewski, G. A. Voth, 
 P. Salvador, J. J. Dannenberg, S. Dapprich, A. D. Daniels, 
 O. Farkas, J. B. Foresman, J. V. Ortiz, J. Cioslowski, 
 and D. J. Fox, Gaussian, Inc., Wallingford CT, 2010.
 
 ******************************************
 Gaussian 09:  EM64L-G09RevC.01 23-Sep-2011
                10-Sep-2022 
 ******************************************
 %nprocshared=8
 Will use up to    8 processors via shared memory.
 %mem=1600MB
 ---------------------------------------
 #p b3lyp/cc-pvdz pop=(chelpg,readradii)
 ---------------------------------------
 1/38=1/1;
 2/12=2,17=6,18=5,40=1/2;
 3/5=16,11=2,16=1,25=1,30=1,74=-5/1,2,3;
 4//1;
 5/5=2,38=5/2;
 6/7=2,8=2,9=2,10=2,15=8,20=103,28=1/1,2;
 99/5=1,9=1/99;
 Leave Link    1 at Sat Sep 10 11:17:34 2022, MaxMem=  209715200 cpu:       0.2
 (Enter /opt/gaussian/l101.exe)
 ---------
 Mol27.log
 ---------
 Charge =  0 Multiplicity = 1
 Symbolic Z-Matrix:
 O                     1.21735  -1.3724   -0.42481 
 C                     1.33695  -0.2622   -0.9068 
 C                     2.72524   0.31553  -1.24621 
 N                     3.77601  -0.64023  -1.00456 
 N                     4.3933   -1.24791  -2.06222 
 N                     5.29448  -2.06035  -1.62641 
 C                     5.29207  -2.01319  -0.24551 
 C                     6.08261  -2.69202   0.69876 
 C                     5.85097  -2.42084   2.04007 
 C                     4.85382  -1.49652   2.44496 
 C                     4.06137  -0.81934   1.52672 
 C                     4.30285  -1.09696   0.17114 
 N                     0.24844   0.55306  -1.18694 
 C                     0.37258   1.95606  -1.61211 
 C                     0.38963   2.93183  -0.45899 
 C                    -0.56186   3.88271  -0.19839 
 S                    -0.13936   4.78242   1.22476 
 C                     1.29704   3.79682   1.36485 
 N                     1.4404    2.89277   0.43889 
 C                    -1.0708    0.09307  -0.84671 
 C                    -2.05685   0.03231  -1.83904 
 C                    -3.35257  -0.3764   -1.52428 
 C                    -3.69591  -0.75117  -0.21297 
 C                    -2.69012  -0.69841   0.77036 
 C                    -1.39664  -0.28085   0.46248 
 C                    -5.07228  -1.19348   0.12096 
 C                    -6.20756  -0.59978  -0.45492 
 C                    -7.4751   -1.05883  -0.10096 
 C                    -7.57556  -2.09939   0.82629 
 N                    -6.51206  -2.69009   1.38807 
 C                    -5.30326  -2.2423    1.03312 
 H                     2.79221   0.57495  -2.31218 
 H                     2.89372   1.22589  -0.65035 
 H                     6.84531  -3.40131   0.37381 
 H                     6.44272  -2.92793   2.80498 
 H                     4.7025   -1.31778   3.51198 
 H                     3.28651  -0.12012   1.84302 
 H                     1.28506   2.07607  -2.21026 
 H                    -0.46971   2.19322  -2.27524 
 H                    -1.47358   4.09618  -0.75182 
 H                     2.006     3.95625   2.17855 
 H                    -1.80243   0.28472  -2.87093 
 H                    -4.09778  -0.44293  -2.31961 
 H                    -2.92979  -0.96301   1.80201 
 H                    -0.63331  -0.24466   1.23905 
 H                    -6.09718   0.23011  -1.15676 
 H                    -8.37449  -0.61035  -0.52797 
 H                    -8.5563   -2.47775   1.13335 
 H                    -4.45219  -2.76177   1.48585 
 
 NAtoms=     49 NQM=        0 NQMF=       0 NMMI=     49 NMMIF=      0
                NMic=       0 NMicF=      0.
                    Isotopes and Nuclear Properties:
 (Nuclear quadrupole moments (NQMom) in fm**2, nuclear magnetic moments (NMagM)
  in nuclear magnetons)

  Atom         1           2           3           4           5           6           7           8           9          10
 IAtWgt=          16          12          12          14          14          14          12          12          12          12
 AtmWgt=  15.9949146  12.0000000  12.0000000  14.0030740  14.0030740  14.0030740  12.0000000  12.0000000  12.0000000  12.0000000
 NucSpn=           0           0           0           2           2           2           0           0           0           0
 AtZEff=   0.0000000   0.0000000   0.0000000   0.0000000   0.0000000   0.0000000   0.0000000   0.0000000   0.0000000   0.0000000
 NQMom=    0.0000000   0.0000000   0.0000000   2.0440000   2.0440000   2.0440000   0.0000000   0.0000000   0.0000000   0.0000000
 NMagM=    0.0000000   0.0000000   0.0000000   0.4037610   0.4037610   0.4037610   0.0000000   0.0000000   0.0000000   0.0000000

  Atom        11          12          13          14          15          16          17          18          19          20
 IAtWgt=          12          12          14          12          12          12          32          12          14          12
 AtmWgt=  12.0000000  12.0000000  14.0030740  12.0000000  12.0000000  12.0000000  31.9720718  12.0000000  14.0030740  12.0000000
 NucSpn=           0           0           2           0           0           0           0           0           2           0
 AtZEff=   0.0000000   0.0000000   0.0000000   0.0000000   0.0000000   0.0000000   0.0000000   0.0000000   0.0000000   0.0000000
 NQMom=    0.0000000   0.0000000   2.0440000   0.0000000   0.0000000   0.0000000   0.0000000   0.0000000   2.0440000   0.0000000
 NMagM=    0.0000000   0.0000000   0.4037610   0.0000000   0.0000000   0.0000000   0.0000000   0.0000000   0.4037610   0.0000000

  Atom        21          22          23          24          25          26          27          28          29          30
 IAtWgt=          12          12          12          12          12          12          12          12          12          14
 AtmWgt=  12.0000000  12.0000000  12.0000000  12.0000000  12.0000000  12.0000000  12.0000000  12.0000000  12.0000000  14.0030740
 NucSpn=           0           0           0           0           0           0           0           0           0           2
 AtZEff=   0.0000000   0.0000000   0.0000000   0.0000000   0.0000000   0.0000000   0.0000000   0.0000000   0.0000000   0.0000000
 NQMom=    0.0000000   0.0000000   0.0000000   0.0000000   0.0000000   0.0000000   0.0000000   0.0000000   0.0000000   2.0440000
 NMagM=    0.0000000   0.0000000   0.0000000   0.0000000   0.0000000   0.0000000   0.0000000   0.0000000   0.0000000   0.4037610

  Atom        31          32          33          34          35          36          37          38          39          40
 IAtWgt=          12           1           1           1           1           1           1           1           1           1
 AtmWgt=  12.0000000   1.0078250   1.0078250   1.0078250   1.0078250   1.0078250   1.0078250   1.0078250   1.0078250   1.0078250
 NucSpn=           0           1           1           1           1           1           1           1           1           1
 AtZEff=   0.0000000   0.0000000   0.0000000   0.0000000   0.0000000   0.0000000   0.0000000   0.0000000   0.0000000   0.0000000
 NQMom=    0.0000000   0.0000000   0.0000000   0.0000000   0.0000000   0.0000000   0.0000000   0.0000000   0.0000000   0.0000000
 NMagM=    0.0000000   2.7928460   2.7928460   2.7928460   2.7928460   2.7928460   2.7928460   2.7928460   2.7928460   2.7928460

  Atom        41          42          43          44          45          46          47          48          49
 IAtWgt=           1           1           1           1           1           1           1           1           1
 AtmWgt=   1.0078250   1.0078250   1.0078250   1.0078250   1.0078250   1.0078250   1.0078250   1.0078250   1.0078250
 NucSpn=           1           1           1           1           1           1           1           1           1
 AtZEff=   0.0000000   0.0000000   0.0000000   0.0000000   0.0000000   0.0000000   0.0000000   0.0000000   0.0000000
 NQMom=    0.0000000   0.0000000   0.0000000   0.0000000   0.0000000   0.0000000   0.0000000   0.0000000   0.0000000
 NMagM=    2.7928460   2.7928460   2.7928460   2.7928460   2.7928460   2.7928460   2.7928460   2.7928460   2.7928460
 Leave Link  101 at Sat Sep 10 11:17:34 2022, MaxMem=  209715200 cpu:       0.7
 (Enter /opt/gaussian/l202.exe)
                          Input orientation:                          
 ---------------------------------------------------------------------
 Center     Atomic      Atomic             Coordinates (Angstroms)
 Number     Number       Type             X           Y           Z
 ---------------------------------------------------------------------
      1          8           0        1.217350   -1.372400   -0.424810
      2          6           0        1.336950   -0.262200   -0.906800
      3          6           0        2.725240    0.315530   -1.246210
      4          7           0        3.776010   -0.640230   -1.004560
      5          7           0        4.393300   -1.247910   -2.062220
      6          7           0        5.294480   -2.060350   -1.626410
      7          6           0        5.292070   -2.013190   -0.245510
      8          6           0        6.082610   -2.692020    0.698760
      9          6           0        5.850970   -2.420840    2.040070
     10          6           0        4.853820   -1.496520    2.444960
     11          6           0        4.061370   -0.819340    1.526720
     12          6           0        4.302850   -1.096960    0.171140
     13          7           0        0.248440    0.553060   -1.186940
     14          6           0        0.372580    1.956060   -1.612110
     15          6           0        0.389630    2.931830   -0.458990
     16          6           0       -0.561860    3.882710   -0.198390
     17         16           0       -0.139360    4.782420    1.224760
     18          6           0        1.297040    3.796820    1.364850
     19          7           0        1.440400    2.892770    0.438890
     20          6           0       -1.070800    0.093070   -0.846710
     21          6           0       -2.056850    0.032310   -1.839040
     22          6           0       -3.352570   -0.376400   -1.524280
     23          6           0       -3.695910   -0.751170   -0.212970
     24          6           0       -2.690120   -0.698410    0.770360
     25          6           0       -1.396640   -0.280850    0.462480
     26          6           0       -5.072280   -1.193480    0.120960
     27          6           0       -6.207560   -0.599780   -0.454920
     28          6           0       -7.475100   -1.058830   -0.100960
     29          6           0       -7.575560   -2.099390    0.826290
     30          7           0       -6.512060   -2.690090    1.388070
     31          6           0       -5.303260   -2.242300    1.033120
     32          1           0        2.792210    0.574950   -2.312180
     33          1           0        2.893720    1.225890   -0.650350
     34          1           0        6.845310   -3.401310    0.373810
     35          1           0        6.442720   -2.927930    2.804980
     36          1           0        4.702500   -1.317780    3.511980
     37          1           0        3.286510   -0.120120    1.843020
     38          1           0        1.285060    2.076070   -2.210260
     39          1           0       -0.469710    2.193220   -2.275240
     40          1           0       -1.473580    4.096180   -0.751820
     41          1           0        2.006000    3.956250    2.178550
     42          1           0       -1.802430    0.284720   -2.870930
     43          1           0       -4.097780   -0.442930   -2.319610
     44          1           0       -2.929790   -0.963010    1.802010
     45          1           0       -0.633310   -0.244660    1.239050
     46          1           0       -6.097180    0.230110   -1.156760
     47          1           0       -8.374490   -0.610350   -0.527970
     48          1           0       -8.556300   -2.477750    1.133350
     49          1           0       -4.452190   -2.761770    1.485850
 ---------------------------------------------------------------------
                    Distance matrix (angstroms):
                    1          2          3          4          5
     1  O    0.000000
     2  C    1.216208   0.000000
     3  C    2.407808   1.541532   0.000000
     4  N    2.723770   2.470117   1.440829   0.000000
     5  N    3.575370   3.412901   2.427476   1.367102   0.000000
     6  N    4.305822   4.406044   3.519993   2.170067   1.289230
     7  C    4.128693   4.375642   3.607347   2.181654   2.166536
     8  C    5.164742   5.568046   4.909195   3.525840   3.544324
     9  C    5.352130   5.806905   5.296937   4.092164   4.508808
    10  C    4.634102   5.012606   4.630239   3.714040   4.537462
    11  C    3.493250   3.695252   3.280597   2.553603   3.629647
    12  C    3.154573   3.264252   2.548110   1.366906   2.240282
    13  N    2.286269   1.388518   2.488870   3.728398   4.603202
    14  C    3.633451   2.519553   2.891406   4.323560   5.160834
    15  C    4.383228   3.361514   3.594414   4.952255   6.005826
    16  C    5.552750   4.613849   4.962633   6.318545   7.372295
    17  S    6.514872   5.671969   5.853608   7.050186   8.228859
    18  C    5.470838   4.651627   4.580040   5.607745   6.839659
    19  N    4.357454   3.431533   3.336546   4.474451   5.667486
    20  C    2.749770   2.434561   3.823481   4.904509   5.756047
    21  C    3.833229   3.531811   4.827012   5.930508   6.579757
    22  C    4.804687   4.731376   6.123387   7.152368   7.813284
    23  C    4.956907   5.103937   6.590645   7.514553   8.312749
    24  C    4.141378   4.384112   5.866920   6.705562   7.648549
    25  C    2.968452   3.057416   4.501687   5.388661   6.390049
    26  C    6.315799   6.557576   8.059006   8.936729   9.714239
    27  C    7.465061   7.565566   9.014369   9.998770  10.741588
    28  C    8.704131   8.884606  10.356032  11.295096  12.030844
    29  C    8.911175   9.263461  10.781168  11.590483  12.341885
    30  N    8.047771   8.530418  10.064835  10.759693  11.528715
    31  C    6.738000   7.195587   8.728955   9.442029  10.227083
    32  H    3.136004   2.189451   1.099125   2.038233   2.439014
    33  H    3.100354   2.168804   1.100995   2.094351   3.218976
    34  H    6.035578   6.468076   5.780514   4.352479   4.072312
    35  H    6.336853   6.852176   6.383716   5.182423   5.541861
    36  H    5.258096   5.653918   5.405334   4.660106   5.583206
    37  H    3.315521   3.373793   3.169883   2.935786   4.212813
    38  H    3.883859   2.677538   2.470427   3.877735   4.553231
    39  H    4.357053   3.341517   3.846080   5.260153   5.961176
    40  H    6.103557   5.188311   5.671669   7.075002   8.043428
    41  H    5.982806   5.268997   5.049864   5.864533   7.125069
    42  H    4.224763   3.743345   4.810453   5.954650   6.433509
    43  H    5.718810   5.618272   6.948457   7.985290   8.533035
    44  H    4.724944   5.102338   6.550242   7.276591   8.284992
    45  H    2.732246   2.913229   4.215470   4.963100   6.096860
    46  H    7.523705   7.454605   8.823287   9.912645  10.632712
    47  H    9.622617   9.725060  11.161412  12.159880  12.875437
    48  H    9.958609  10.341531  11.863299  12.650415  13.394638
    49  H    6.142040   6.744388   8.273417   8.854736   9.650040
                    6          7          8          9         10
     6  N    0.000000
     7  C    1.381707   0.000000
     8  C    2.535068   1.406204   0.000000
     9  C    3.725951   2.387975   1.387915   0.000000
    10  C    4.133780   2.774462   2.447112   1.418665   0.000000
    11  C    3.605953   2.465907   2.877127   2.455809   1.389142
    12  C    2.267738   1.411252   2.447477   2.764459   2.373494
    13  N    5.699611   5.736735   6.937143   7.116602   6.212970
    14  C    6.352704   6.467142   7.716813   7.906227   6.961439
    15  C    7.095230   6.966543   8.085672   8.045036   6.926197
    16  C    8.464982   8.308571   9.390470   9.266598   8.077933
    17  S    9.191262   8.822836   9.739448   9.404028   8.114544
    18  C    7.696337   7.232547   8.090142   7.736504   6.468135
    19  N    6.607026   6.274728   7.266879   7.088819   5.911144
    20  C    6.764757   6.729330   7.830484   7.909750   6.961538
    21  C    7.646338   7.792948   8.950598   9.143252   8.273291
    22  C    8.810085   8.890677   9.966274  10.079160   9.184464
    23  C    9.194503   9.076207  10.010874   9.950221   8.984321
    24  C    8.447084   8.153281   8.996688   8.805064   7.768674
    25  C    7.231955   6.945581   7.861854   7.719857   6.669058
    26  C   10.548672  10.403171  11.269918  11.158261  10.199033
    27  C   11.653436  11.588057  12.520253  12.447866  11.470291
    28  C   12.899311  12.803606  13.679121  13.565516  12.596648
    29  C   13.101725  12.912478  13.671616  13.485114  12.548826
    30  N   12.201559  11.935839  12.613519  12.383138  11.477145
    31  C   10.927868  10.674662  11.399653  11.201012  10.281817
    32  H    3.698167   4.149565   5.528615   6.105150   5.583154
    33  H    4.185178   4.050632   5.228684   5.411315   4.564477
    34  H    2.864285   2.173244   1.091053   2.174041   3.447306
    35  H    4.659224   3.386183   2.149766   1.091969   2.168675
    36  H    5.225409   3.866513   3.421615   2.168466   1.092418
    37  H    4.453468   3.459471   3.967641   3.450883   2.171007
    38  H    5.790190   6.052968   7.362986   7.689931   6.868080
    39  H    7.193033   7.416994   8.697307   8.936579   8.014639
    40  H    9.190996   9.129883  10.260597  10.193882   9.029601
    41  H    7.841639   7.232464   7.937759   7.447835   6.157415
    42  H    7.577223   7.906020   9.153006   9.487492   8.702710
    43  H    9.555685   9.743556  10.853999  11.040678  10.195211
    44  H    8.977574   8.537810   9.242835   8.904139   7.828321
    45  H    6.829809   6.359382   7.168338   6.886456   5.755864
    46  H   11.629131  11.643787  12.662112  12.649330  11.656674
    47  H   13.789482  13.741274  14.657625  14.568336  13.587192
    48  H   14.129211  13.924598  14.646927  14.435886  13.509791
    49  H   10.255522   9.925149  10.564392  10.323686   9.440475
                   11         12         13         14         15
    11  C    0.000000
    12  C    1.404629   0.000000
    13  N    4.877076   4.583142   0.000000
    14  C    5.582318   5.286581   1.471254   0.000000
    15  C    5.612129   5.651681   2.491665   1.510663   0.000000
    16  C    6.816123   6.971303   3.566565   2.565884   1.370189
    17  S    7.008354   7.443820   4.884073   4.037106   2.557250
    18  C    5.382997   5.865912   4.258306   3.620126   2.213141
    19  N    4.672539   4.917647   3.088419   2.494848   1.382690
    20  C    5.727550   5.597169   1.437964   2.477885   3.215858
    21  C    7.034647   6.764751   2.451689   3.107160   4.036957
    22  C    8.029402   7.873951   3.734296   4.396001   5.107180
    23  C    7.950255   8.015440   4.267028   5.083237   5.506056
    24  C    6.794801   7.029903   3.745976   4.701330   4.916788
    25  C    5.586810   5.764989   2.474324   3.526731   3.789615
    26  C    9.248768   9.375761   5.750745   6.524541   6.869278
    27  C   10.460690  10.540771   6.598851   7.153296   7.482994
    28  C   11.653190  11.781154   7.964334   8.541617   8.826524
    29  C   11.728055  11.938623   8.503150   9.250157   9.508384
    30  N   10.738545  10.999148   7.927992   8.830972   9.091256
    31  C    9.484975   9.712475   6.600309   7.539140   7.836263
    32  H    4.276911   3.353236   2.781620   2.872659   3.842081
    33  H    3.207180   2.838331   2.781750   2.795403   3.036003
    34  H    3.968135   3.437326   7.848036   8.633743   9.081741
    35  H    3.427963   3.855983   8.149958   8.956039   9.034942
    36  H    2.144935   3.371898   6.739328   7.464753   7.240762
    37  H    1.090579   2.186858   4.343236   4.973875   4.796411
    38  H    5.482364   4.984600   2.107445   1.097636   2.145010
    39  H    6.637854   6.291851   2.095295   1.097925   2.140741
    40  H    7.745305   7.822257   3.963380   2.954407   2.216531
    41  H    5.239818   5.902554   5.098749   4.586712   3.258636
    42  H    7.412316   6.959718   2.667189   3.018058   4.198782
    43  H    9.028160   8.786477   4.600496   5.122483   5.915045
    44  H    6.998053   7.415441   4.618813   5.575198   5.594680
    45  H    4.738463   5.121769   2.701716   3.739532   3.744307
    46  H   10.559287  10.568115   6.353904   6.711486   7.061507
    47  H   12.606191  12.705924   8.725978   9.180036   9.453126
    48  H   12.732268  12.968815   9.596510  10.340267  10.574912
    49  H    8.732434   9.008373   6.342541   7.425206   7.722869
                   16         17         18         19         20
    16  C    0.000000
    17  S    1.735898   0.000000
    18  C    2.430351   1.747649   0.000000
    19  N    2.322747   2.585345   1.302022   0.000000
    20  C    3.878235   5.210429   4.920917   3.974571   0.000000
    21  C    4.444357   5.968851   5.973694   5.059837   1.400252
    22  C    5.261755   6.670484   6.883437   6.124873   2.426103
    23  C    5.594223   6.733256   6.935653   6.331264   2.829412
    24  C    5.143406   6.062372   6.038042   5.483397   2.421477
    25  C    4.297539   5.272431   4.969666   4.256902   1.399988
    26  C    6.798057   7.827097   8.186488   7.695032   4.313170
    27  C    7.213352   8.283263   8.885982   8.455063   5.198062
    28  C    8.498306   9.470524  10.132935   9.766920   6.549662
    29  C    9.275100  10.139781  10.666694  10.313063   7.065247
    30  N    9.006855   9.822239  10.151974   9.762730   6.507498
    31  C    7.843038   8.720624   8.952373   8.497000   5.186659
    32  H    5.163252   6.229515   5.112390   3.842924   4.159646
    33  H    4.382236   5.036320   3.635945   2.465172   4.127864
    34  H   10.404351  10.792737   9.142130   8.296549   8.738716
    35  H   10.221017  10.260135   8.589194   8.031322   8.883370
    36  H    8.278009   8.117107   6.508952   6.149302   7.370188
    37  H    5.916076   6.012797   4.419169   3.802264   5.125061
    38  H    3.274551   4.599203   3.967686   2.776531   3.367734
    39  H    2.678838   4.366130   4.352378   3.391813   2.610103
    40  H    1.087698   2.481519   3.499463   3.370054   4.024441
    41  H    3.499880   2.488944   1.090940   2.115965   5.791637
    42  H    4.650486   6.306329   6.315330   5.317215   2.160898
    43  H    5.976074   7.452243   7.788120   7.029058   3.408715
    44  H    5.752364   6.413243   6.380688   5.985290   3.403949
    45  H    4.371101   5.051309   4.480584   3.844996   2.157743
    46  H    6.700726   7.867070   8.588040   8.151746   5.037798
    47  H    9.018503   9.998570  10.795574  10.466075   7.344405
    48  H   10.302430  11.115903  11.683841  11.369203   8.158582
    49  H    7.881653   8.693876   8.722579   8.233624   5.002474
                   21         22         23         24         25
    21  C    0.000000
    22  C    1.394635   0.000000
    23  C    2.438127   1.406367   0.000000
    24  C    2.782796   2.409959   1.407599   0.000000
    25  C    2.414734   2.789625   2.442146   1.393642   0.000000
    26  C    3.799603   2.516314   1.483759   2.518234   3.802612
    27  C    4.420828   3.056861   2.527814   3.726047   4.907982
    28  C    5.793871   4.414386   3.793347   4.877001   6.153893
    29  C    6.488782   5.131035   4.236678   5.082657   6.451240
    30  N    6.137964   4.880299   3.775373   4.353801   5.729631
    31  C    4.895133   3.718477   2.521861   3.046496   4.408469
    32  H    4.902214   6.267709   6.947012   6.417121   5.096822
    33  H    5.229317   6.507475   6.893714   6.074588   4.681436
    34  H    9.794636  10.805072  10.885076   9.919040   8.813335
    35  H   10.127815  11.009110  10.799913   9.618690   8.599413
    36  H    8.726109   9.546427   9.204868   7.908915   6.897404
    37  H    6.490940   7.448609   7.306128   6.099600   4.885040
    38  H    3.934860   5.290821   6.065683   5.690685   4.459835
    39  H    2.716398   3.934180   4.830192   4.750518   3.804646
    40  H    4.247033   4.912359   5.359656   5.175432   4.542999
    41  H    6.931456   7.822856   7.771161   6.760355   5.698761
    42  H    1.092354   2.157193   3.423899   3.874730   3.405313
    43  H    2.149929   1.091931   2.166666   3.405098   3.881037
    44  H    3.874265   3.403977   2.166093   1.091676   2.147145
    45  H    3.402619   3.879139   3.427015   2.157783   1.089515
    46  H    4.102304   2.834750   2.760389   4.022934   4.997809
    47  H    6.484172   5.125139   4.691286   5.831422   7.055491
    48  H    7.574850   6.209467   5.330764   6.140837   7.519120
    49  H    4.959781   3.995001   2.738697   2.806113   4.066772
                   26         27         28         29         30
    26  C    0.000000
    27  C    1.404627   0.000000
    28  C    2.416800   1.393798   0.000000
    29  C    2.754011   2.400365   1.397372   0.000000
    30  N    2.432771   2.803342   2.409495   1.339983   0.000000
    31  C    1.409046   2.393720   2.720961   2.286165   1.337050
    32  H    8.420078   9.264193  10.629035  11.157632  10.531941
    33  H    8.360946   9.284641  10.631754  11.083491  10.390320
    34  H   12.123011  13.375828  14.518497  14.486588  13.414689
    35  H   11.950209  13.269394  14.340284  14.181462  13.034206
    36  H   10.347018  11.631046  12.704894  12.592641  11.496112
    37  H    8.601567   9.779978  10.975996  11.087642  10.140202
    38  H    7.519329   8.147438   9.540291  10.255032   9.821372
    39  H    6.196383   6.636063   8.023641   8.862228   8.589328
    40  H    6.457003   6.674635   7.938261   8.837968   8.718880
    41  H    8.991965   9.754750  10.965329  11.415151  10.833099
    42  H    4.672087   5.101433   6.454227   7.258267   7.012075
    43  H    2.733013   2.820078   4.087546   4.973480   4.962395
    44  H    2.733004   3.996179   4.928521   4.881247   3.998351
    45  H    4.674916   5.836772   7.019159   7.197585   6.368833
    46  H    2.170161   1.092465   2.162116   3.397744   3.895620
    47  H    3.415515   2.168187   1.091959   2.165537   3.386026
    48  H    3.848724   3.400875   2.169297   1.095122   2.070963
    49  H    2.169555   3.394424   3.815227   3.260246   2.063435
                   31         32         33         34         35
    31  C    0.000000
    32  H    9.201335   0.000000
    33  H    9.058305   1.787654   0.000000
    34  H   12.221528   6.281147   6.170490   0.000000
    35  H   11.898640   7.195952   6.464436   2.509334   0.000000
    36  H   10.349624   6.415019   5.202589   4.333687   2.474025
    37  H    8.885029   4.241832   2.860581   5.058640   4.332531
    38  H    8.519025   2.129613   2.396646   8.221648   8.763225
    39  H    7.347264   3.641467   3.858582   9.582575   9.990821
    40  H    7.617663   5.747238   5.227061  11.255369  11.164979
    41  H    9.651907   5.676088   4.030582   8.989421   8.213941
    42  H    5.820932   4.637580   5.279261   9.944776  10.512829
    43  H    3.991455   6.964775   7.379191  11.651512  11.980767
    44  H    2.803771   7.213402   6.687198  10.175345   9.628645
    45  H    5.083444   5.001718   4.262897   8.163506   7.728019
    46  H    3.396865   8.970795   9.060039  13.529150  13.524707
    47  H    3.812180  11.370292  11.417500  15.499838  15.363250
    48  H    3.263089  12.246605  12.165586  15.447960  15.098596
    49  H    1.095050   8.834029   8.627119  11.370099  10.975736
                   36         37         38         39         40
    36  H    0.000000
    37  H    2.494964   0.000000
    38  H    7.479381   5.025747   0.000000
    39  H    8.518849   6.034964   1.759876   0.000000
    40  H    9.253914   6.867957   3.717255   2.636251   0.000000
    41  H    6.071618   4.285916   4.828715   5.392000   4.551277
    42  H    9.253305   6.948563   3.630153   2.402782   4.373328
    43  H   10.593287   8.482891   5.944097   4.484880   5.472468
    44  H    7.829541   6.273319   6.565004   5.712946   5.851325
    45  H    5.898192   3.968032   4.578610   4.280217   4.848970
    46  H   11.867021   9.857737   7.682115   6.064092   6.040542
    47  H   13.705084  11.909695  10.166310   8.567293   8.356081
    48  H   13.520325  12.096041  11.347659   9.941297   9.845575
    49  H    9.486762   8.184947   8.365522   7.386330   7.804535
                   41         42         43         44         45
    41  H    0.000000
    42  H    7.313106   0.000000
    43  H    8.765977   2.470235   0.000000
    44  H    6.978748   4.966300   4.315372   0.000000
    45  H    5.049382   4.305696   4.970505   2.471188   0.000000
    46  H    9.522076   4.624526   2.408901   4.495577   5.984913
    47  H   11.659059   7.034386   4.639855   5.932785   7.948708
    48  H   12.411728   8.323476   5.995150   5.865080   8.232353
    49  H    9.344509   5.940022   4.470364   2.377645   4.580458
                   46         47         48         49
    46  H    0.000000
    47  H    2.507567   0.000000
    48  H    4.315597   2.506037   0.000000
    49  H    4.317491   4.905967   4.129000   0.000000
 Stoichiometry    C23H18N6OS
 Framework group  C1[X(C23H18N6OS)]
 Deg. of freedom   141
 Full point group                 C1      NOp   1
 Largest Abelian subgroup         C1      NOp   1
 Largest concise Abelian subgroup C1      NOp   1
                         Standard orientation:                         
 ---------------------------------------------------------------------
 Center     Atomic      Atomic             Coordinates (Angstroms)
 Number     Number       Type             X           Y           Z
 ---------------------------------------------------------------------
      1          8           0        1.217350   -1.372400   -0.424810
      2          6           0        1.336950   -0.262200   -0.906800
      3          6           0        2.725240    0.315530   -1.246210
      4          7           0        3.776010   -0.640230   -1.004560
      5          7           0        4.393300   -1.247910   -2.062220
      6          7           0        5.294480   -2.060350   -1.626410
      7          6           0        5.292070   -2.013190   -0.245510
      8          6           0        6.082610   -2.692020    0.698760
      9          6           0        5.850970   -2.420840    2.040070
     10          6           0        4.853820   -1.496520    2.444960
     11          6           0        4.061370   -0.819340    1.526720
     12          6           0        4.302850   -1.096960    0.171140
     13          7           0        0.248440    0.553060   -1.186940
     14          6           0        0.372580    1.956060   -1.612110
     15          6           0        0.389630    2.931830   -0.458990
     16          6           0       -0.561860    3.882710   -0.198390
     17         16           0       -0.139360    4.782420    1.224760
     18          6           0        1.297040    3.796820    1.364850
     19          7           0        1.440400    2.892770    0.438890
     20          6           0       -1.070800    0.093070   -0.846710
     21          6           0       -2.056850    0.032310   -1.839040
     22          6           0       -3.352570   -0.376400   -1.524280
     23          6           0       -3.695910   -0.751170   -0.212970
     24          6           0       -2.690120   -0.698410    0.770360
     25          6           0       -1.396640   -0.280850    0.462480
     26          6           0       -5.072280   -1.193480    0.120960
     27          6           0       -6.207560   -0.599780   -0.454920
     28          6           0       -7.475100   -1.058830   -0.100960
     29          6           0       -7.575560   -2.099390    0.826290
     30          7           0       -6.512060   -2.690090    1.388070
     31          6           0       -5.303260   -2.242300    1.033120
     32          1           0        2.792210    0.574950   -2.312180
     33          1           0        2.893720    1.225890   -0.650350
     34          1           0        6.845310   -3.401310    0.373810
     35          1           0        6.442720   -2.927930    2.804980
     36          1           0        4.702500   -1.317780    3.511980
     37          1           0        3.286510   -0.120120    1.843020
     38          1           0        1.285060    2.076070   -2.210260
     39          1           0       -0.469710    2.193220   -2.275240
     40          1           0       -1.473580    4.096180   -0.751820
     41          1           0        2.006000    3.956250    2.178550
     42          1           0       -1.802430    0.284720   -2.870930
     43          1           0       -4.097780   -0.442930   -2.319610
     44          1           0       -2.929790   -0.963010    1.802010
     45          1           0       -0.633310   -0.244660    1.239050
     46          1           0       -6.097180    0.230110   -1.156760
     47          1           0       -8.374490   -0.610350   -0.527970
     48          1           0       -8.556300   -2.477750    1.133350
     49          1           0       -4.452190   -2.761770    1.485850
 ---------------------------------------------------------------------
 Rotational constants (GHZ):      0.1865830      0.0674438      0.0565400
 Leave Link  202 at Sat Sep 10 11:17:34 2022, MaxMem=  209715200 cpu:       0.0
 (Enter /opt/gaussian/l301.exe)
 Standard basis: CC-pVDZ (5D, 7F)
 Ernie: Thresh=  0.10000D-02 Tol=  0.10000D-05 Strict=F.
 Ernie:  70 primitive shells out of 800 were deleted.
 There are   528 symmetry adapted basis functions of A   symmetry.
 Integral buffers will be    131072 words long.
 Raffenetti 2 integral format.
 Two-electron integral symmetry is turned on.
   528 basis functions,  1187 primitive gaussians,   559 cartesian basis functions
   111 alpha electrons      111 beta electrons
       nuclear repulsion energy      2893.6513138513 Hartrees.
 IExCor=  402 DFT=T Ex+Corr=B3LYP ExCW=0 ScaHFX=  0.200000
 ScaDFX=  0.800000  0.720000  1.000000  0.810000 ScalE2=  1.000000  1.000000
 IRadAn=      0 IRanWt=     -1 IRanGd=            0 ICorTp=0
 NAtoms=   49 NActive=   49 NUniq=   49 SFac= 1.00D+00 NAtFMM=   60 NAOKFM=F Big=F
 Leave Link  301 at Sat Sep 10 11:17:34 2022, MaxMem=  209715200 cpu:       0.3
 (Enter /opt/gaussian/l302.exe)
 NPDir=0 NMtPBC=     1 NCelOv=     1 NCel=       1 NClECP=     1 NCelD=      1
         NCelK=      1 NCelE2=     1 NClLst=     1 CellRange=     0.0.
 One-electron integrals computed using PRISM.
 NBasis=   528 RedAO= T  NBF=   528
 NBsUse=   528 1.00D-06 NBFU=   528
 Precomputing XC quadrature grid using
 IXCGrd= 2 IRadAn=           0 IRanWt=          -1 IRanGd=           0 AccXCQ= 0.00D+00.
 NRdTot=    3163 NPtTot=      404674 NUsed=      427465 NTot=      427497
 NSgBfM=   544   544   544   544   544 NAtAll=    49    49.
 Leave Link  302 at Sat Sep 10 11:17:35 2022, MaxMem=  209715200 cpu:       7.7
 (Enter /opt/gaussian/l303.exe)
 DipDrv:  MaxL=1.
 Leave Link  303 at Sat Sep 10 11:17:35 2022, MaxMem=  209715200 cpu:       1.1
 (Enter /opt/gaussian/l401.exe)
 Harris functional with IExCor=  402 diagonalized for initial guess.
 ExpMin= 1.22D-01 ExpMax= 1.11D+05 ExpMxC= 1.07D+03 IAcc=2 IRadAn=         4 AccDes= 0.00D+00
 HarFok:  IExCor=  402 AccDes= 0.00D+00 IRadAn=         4 IDoV= 1
 ScaDFX=  1.000000  1.000000  1.000000  1.000000
 FoFCou: FMM=F IPFlag=           0 FMFlag=      100000 FMFlg1=           0
         NFxFlg=           0 DoJE=T BraDBF=F KetDBF=T FulRan=T
         Omega=  0.000000  0.000000  1.000000  0.000000  0.000000 ICntrl=     500 IOpCl=  0
         NMat0=    1 NMatS0=    1 NMatT0=    0 NMatD0=    1 NMtDS0=    0 NMtDT0=    0
         I1Cent=           4 NGrid=           0.
 Petite list used in FoFCou.
 Harris En= -1689.02112435766    
 Initial guess orbital symmetries:
       Occupied  (A) (A) (A) (A) (A) (A) (A) (A) (A) (A) (A) (A)
                 (A) (A) (A) (A) (A) (A) (A) (A) (A) (A) (A) (A)
                 (A) (A) (A) (A) (A) (A) (A) (A) (A) (A) (A) (A)
                 (A) (A) (A) (A) (A) (A) (A) (A) (A) (A) (A) (A)
                 (A) (A) (A) (A) (A) (A) (A) (A) (A) (A) (A) (A)
                 (A) (A) (A) (A) (A) (A) (A) (A) (A) (A) (A) (A)
                 (A) (A) (A) (A) (A) (A) (A) (A) (A) (A) (A) (A)
                 (A) (A) (A) (A) (A) (A) (A) (A) (A) (A) (A) (A)
                 (A) (A) (A) (A) (A) (A) (A) (A) (A) (A) (A) (A)
                 (A) (A) (A)
       Virtual   (A) (A) (A) (A) (A) (A) (A) (A) (A) (A) (A) (A)
                 (A) (A) (A) (A) (A) (A) (A) (A) (A) (A) (A) (A)
                 (A) (A) (A) (A) (A) (A) (A) (A) (A) (A) (A) (A)
                 (A) (A) (A) (A) (A) (A) (A) (A) (A) (A) (A) (A)
                 (A) (A) (A) (A) (A) (A) (A) (A) (A) (A) (A) (A)
                 (A) (A) (A) (A) (A) (A) (A) (A) (A) (A) (A) (A)
                 (A) (A) (A) (A) (A) (A) (A) (A) (A) (A) (A) (A)
                 (A) (A) (A) (A) (A) (A) (A) (A) (A) (A) (A) (A)
                 (A) (A) (A) (A) (A) (A) (A) (A) (A) (A) (A) (A)
                 (A) (A) (A) (A) (A) (A) (A) (A) (A) (A) (A) (A)
                 (A) (A) (A) (A) (A) (A) (A) (A) (A) (A) (A) (A)
                 (A) (A) (A) (A) (A) (A) (A) (A) (A) (A) (A) (A)
                 (A) (A) (A) (A) (A) (A) (A) (A) (A) (A) (A) (A)
                 (A) (A) (A) (A) (A) (A) (A) (A) (A) (A) (A) (A)
                 (A) (A) (A) (A) (A) (A) (A) (A) (A) (A) (A) (A)
                 (A) (A) (A) (A) (A) (A) (A) (A) (A) (A) (A) (A)
                 (A) (A) (A) (A) (A) (A) (A) (A) (A) (A) (A) (A)
                 (A) (A) (A) (A) (A) (A) (A) (A) (A) (A) (A) (A)
                 (A) (A) (A) (A) (A) (A) (A) (A) (A) (A) (A) (A)
                 (A) (A) (A) (A) (A) (A) (A) (A) (A) (A) (A) (A)
                 (A) (A) (A) (A) (A) (A) (A) (A) (A) (A) (A) (A)
                 (A) (A) (A) (A) (A) (A) (A) (A) (A) (A) (A) (A)
                 (A) (A) (A) (A) (A) (A) (A) (A) (A) (A) (A) (A)
                 (A) (A) (A) (A) (A) (A) (A) (A) (A) (A) (A) (A)
                 (A) (A) (A) (A) (A) (A) (A) (A) (A) (A) (A) (A)
                 (A) (A) (A) (A) (A) (A) (A) (A) (A) (A) (A) (A)
                 (A) (A) (A) (A) (A) (A) (A) (A) (A) (A) (A) (A)
                 (A) (A) (A) (A) (A) (A) (A) (A) (A) (A) (A) (A)
                 (A) (A) (A) (A) (A) (A) (A) (A) (A) (A) (A) (A)
                 (A) (A) (A) (A) (A) (A) (A) (A) (A) (A) (A) (A)
                 (A) (A) (A) (A) (A) (A) (A) (A) (A) (A) (A) (A)
                 (A) (A) (A) (A) (A) (A) (A) (A) (A) (A) (A) (A)
                 (A) (A) (A) (A) (A) (A) (A) (A) (A) (A) (A) (A)
                 (A) (A) (A) (A) (A) (A) (A) (A) (A) (A) (A) (A)
                 (A) (A) (A) (A) (A) (A) (A) (A) (A)
 The electronic state of the initial guess is 1-A.
 Leave Link  401 at Sat Sep 10 11:17:38 2022, MaxMem=  209715200 cpu:      23.8
 (Enter /opt/gaussian/l502.exe)
 Closed shell SCF:
 Requested convergence on RMS density matrix=1.00D-08 within 128 cycles.
 Requested convergence on MAX density matrix=1.00D-06.
 Requested convergence on             energy=1.00D-06.
 No special actions if energy rises.
 Using DIIS extrapolation, IDIIS=  1040.
 Integral symmetry usage will be decided dynamically.
       427011 words used for storage of precomputed grid.
 IEnd=     1391294 IEndB=     1391294 NGot=   209715200 MDV=   208653587
 LenX=   208653587 LenY=   208340547
 Fock matrices will be formed incrementally for  20 cycles.
 Integral accuracy reduced to 1.0D-05 until final iterations.

 Cycle   1  Pass 0  IDiag  1:
 FoFCou: FMM=F IPFlag=           0 FMFlag=      100000 FMFlg1=           0
         NFxFlg=           0 DoJE=F BraDBF=F KetDBF=F FulRan=T
         Omega=  0.000000  0.000000  1.000000  0.000000  0.000000 ICntrl=       0 IOpCl=  0
         NMat0=    1 NMatS0=    1 NMatT0=    0 NMatD0=    1 NMtDS0=    0 NMtDT0=    0
         I1Cent=           0 NGrid=           0.
 Symmetry not used in FoFCou.
 E= -1688.68094236878    
 DIIS: error= 2.33D-02 at cycle   1 NSaved=   1.
 NSaved= 1 IEnMin= 1 EnMin= -1688.68094236878     IErMin= 1 ErrMin= 2.33D-02
 ErrMax= 2.33D-02 EMaxC= 1.00D-01 BMatC= 5.43D-01 BMatP= 5.43D-01
 IDIUse=3 WtCom= 7.67D-01 WtEn= 2.33D-01
 Coeff-Com:  0.100D+01
 Coeff-En:   0.100D+01
 Coeff:      0.100D+01
 Gap=     0.332 Goal=   None    Shift=    0.000
 GapD=    0.332 DampG=1.000 DampE=0.500 DampFc=0.5000 IDamp=-1.
 Damping current iteration by 5.00D-01
 RMSDP=4.18D-03 MaxDP=2.12D-01              OVMax= 2.84D-01

 Cycle   2  Pass 0  IDiag  1:
 RMSU=  1.46D-03    CP:  9.81D-01
 E= -1688.81001441536     Delta-E=       -0.129072046579 Rises=F Damp=T
 DIIS: error= 9.26D-03 at cycle   2 NSaved=   2.
 NSaved= 2 IEnMin= 2 EnMin= -1688.81001441536     IErMin= 2 ErrMin= 9.26D-03
 ErrMax= 9.26D-03 EMaxC= 1.00D-01 BMatC= 1.16D-01 BMatP= 5.43D-01
 IDIUse=3 WtCom= 9.07D-01 WtEn= 9.26D-02
 Coeff-Com:  0.255D+00 0.745D+00
 Coeff-En:   0.385D+00 0.615D+00
 Coeff:      0.267D+00 0.733D+00
 Gap=     0.251 Goal=   None    Shift=    0.000
 RMSDP=1.43D-03 MaxDP=7.34D-02 DE=-1.29D-01 OVMax= 2.73D-01

 Cycle   3  Pass 0  IDiag  1:
 RMSU=  9.26D-04    CP:  9.69D-01  7.45D-01
 E= -1689.19673690403     Delta-E=       -0.386722488669 Rises=F Damp=F
 DIIS: error= 8.20D-03 at cycle   3 NSaved=   3.
 NSaved= 3 IEnMin= 3 EnMin= -1689.19673690403     IErMin= 3 ErrMin= 8.20D-03
 ErrMax= 8.20D-03 EMaxC= 1.00D-01 BMatC= 8.29D-02 BMatP= 1.16D-01
 IDIUse=3 WtCom= 9.18D-01 WtEn= 8.20D-02
 Coeff-Com:  0.723D-01 0.449D+00 0.479D+00
 Coeff-En:   0.000D+00 0.000D+00 0.100D+01
 Coeff:      0.664D-01 0.412D+00 0.522D+00
 Gap=     0.174 Goal=   None    Shift=    0.000
 RMSDP=6.73D-04 MaxDP=4.74D-02 DE=-3.87D-01 OVMax= 6.94D-02

 Cycle   4  Pass 0  IDiag  1:
 RMSU=  3.37D-04    CP:  9.72D-01  8.21D-01  6.60D-01
 E= -1689.26385138100     Delta-E=       -0.067114476970 Rises=F Damp=F
 DIIS: error= 2.94D-03 at cycle   4 NSaved=   4.
 NSaved= 4 IEnMin= 4 EnMin= -1689.26385138100     IErMin= 4 ErrMin= 2.94D-03
 ErrMax= 2.94D-03 EMaxC= 1.00D-01 BMatC= 1.19D-02 BMatP= 8.29D-02
 IDIUse=3 WtCom= 9.71D-01 WtEn= 2.94D-02
 Coeff-Com:  0.124D-01 0.122D+00 0.300D+00 0.566D+00
 Coeff-En:   0.000D+00 0.000D+00 0.120D+00 0.880D+00
 Coeff:      0.120D-01 0.118D+00 0.294D+00 0.576D+00
 Gap=     0.176 Goal=   None    Shift=    0.000
 RMSDP=2.51D-04 MaxDP=1.44D-02 DE=-6.71D-02 OVMax= 2.29D-02

 Cycle   5  Pass 0  IDiag  1:
 RMSU=  1.24D-04    CP:  9.71D-01  8.02D-01  7.14D-01  6.66D-01
 E= -1689.27293291353     Delta-E=       -0.009081532531 Rises=F Damp=F
 DIIS: error= 1.52D-03 at cycle   5 NSaved=   5.
 NSaved= 5 IEnMin= 5 EnMin= -1689.27293291353     IErMin= 5 ErrMin= 1.52D-03
 ErrMax= 1.52D-03 EMaxC= 1.00D-01 BMatC= 1.63D-03 BMatP= 1.19D-02
 IDIUse=3 WtCom= 9.85D-01 WtEn= 1.52D-02
 Coeff-Com:  0.141D-02 0.297D-01 0.133D+00 0.364D+00 0.472D+00
 Coeff-En:   0.000D+00 0.000D+00 0.000D+00 0.104D+00 0.896D+00
 Coeff:      0.139D-02 0.293D-01 0.131D+00 0.360D+00 0.478D+00
 Gap=     0.174 Goal=   None    Shift=    0.000
 RMSDP=1.06D-04 MaxDP=6.36D-03 DE=-9.08D-03 OVMax= 1.28D-02

 Cycle   6  Pass 0  IDiag  1:
 RMSU=  3.83D-05    CP:  9.71D-01  8.03D-01  7.28D-01  7.25D-01  5.15D-01
 E= -1689.27442113081     Delta-E=       -0.001488217275 Rises=F Damp=F
 DIIS: error= 5.80D-04 at cycle   6 NSaved=   6.
 NSaved= 6 IEnMin= 6 EnMin= -1689.27442113081     IErMin= 6 ErrMin= 5.80D-04
 ErrMax= 5.80D-04 EMaxC= 1.00D-01 BMatC= 2.37D-04 BMatP= 1.63D-03
 IDIUse=3 WtCom= 9.94D-01 WtEn= 5.80D-03
 Coeff-Com: -0.544D-03-0.108D-03 0.439D-01 0.159D+00 0.316D+00 0.483D+00
 Coeff-En:   0.000D+00 0.000D+00 0.000D+00 0.000D+00 0.105D+00 0.895D+00
 Coeff:     -0.541D-03-0.108D-03 0.436D-01 0.158D+00 0.314D+00 0.485D+00
 Gap=     0.173 Goal=   None    Shift=    0.000
 RMSDP=3.32D-05 MaxDP=2.33D-03 DE=-1.49D-03 OVMax= 4.68D-03

 Cycle   7  Pass 0  IDiag  1:
 RMSU=  1.44D-05    CP:  9.71D-01  8.03D-01  7.28D-01  7.19D-01  5.90D-01
                    CP:  5.87D-01
 E= -1689.27462849643     Delta-E=       -0.000207365617 Rises=F Damp=F
 DIIS: error= 2.04D-04 at cycle   7 NSaved=   7.
 NSaved= 7 IEnMin= 7 EnMin= -1689.27462849643     IErMin= 7 ErrMin= 2.04D-04
 ErrMax= 2.04D-04 EMaxC= 1.00D-01 BMatC= 2.65D-05 BMatP= 2.37D-04
 IDIUse=3 WtCom= 9.98D-01 WtEn= 2.04D-03
 Coeff-Com: -0.284D-03-0.332D-02 0.118D-01 0.537D-01 0.136D+00 0.307D+00
 Coeff-Com:  0.495D+00
 Coeff-En:   0.000D+00 0.000D+00 0.000D+00 0.000D+00 0.000D+00 0.826D-01
 Coeff-En:   0.917D+00
 Coeff:     -0.283D-03-0.331D-02 0.117D-01 0.536D-01 0.136D+00 0.306D+00
 Coeff:      0.496D+00
 Gap=     0.174 Goal=   None    Shift=    0.000
 RMSDP=1.09D-05 MaxDP=5.95D-04 DE=-2.07D-04 OVMax= 1.14D-03

 Cycle   8  Pass 0  IDiag  1:
 RMSU=  4.04D-06    CP:  9.71D-01  8.03D-01  7.29D-01  7.24D-01  5.93D-01
                    CP:  6.46D-01  5.91D-01
 E= -1689.27465696502     Delta-E=       -0.000028468593 Rises=F Damp=F
 DIIS: error= 4.38D-05 at cycle   8 NSaved=   8.
 NSaved= 8 IEnMin= 8 EnMin= -1689.27465696502     IErMin= 8 ErrMin= 4.38D-05
 ErrMax= 4.38D-05 EMaxC= 1.00D-01 BMatC= 1.38D-06 BMatP= 2.65D-05
 IDIUse=1 WtCom= 1.00D+00 WtEn= 0.00D+00
 Coeff-Com: -0.235D-04-0.194D-02 0.389D-02 0.193D-01 0.536D-01 0.133D+00
 Coeff-Com:  0.266D+00 0.526D+00
 Coeff:     -0.235D-04-0.194D-02 0.389D-02 0.193D-01 0.536D-01 0.133D+00
 Coeff:      0.266D+00 0.526D+00
 Gap=     0.174 Goal=   None    Shift=    0.000
 RMSDP=3.20D-06 MaxDP=1.37D-04 DE=-2.85D-05 OVMax= 4.31D-04

 Initial convergence to 1.0D-05 achieved.  Increase integral accuracy.
 Cycle   9  Pass 1  IDiag  1:
 E= -1689.27469053807     Delta-E=       -0.000033573046 Rises=F Damp=F
 DIIS: error= 2.04D-04 at cycle   1 NSaved=   1.
 NSaved= 1 IEnMin= 1 EnMin= -1689.27469053807     IErMin= 1 ErrMin= 2.04D-04
 ErrMax= 2.04D-04 EMaxC= 1.00D-01 BMatC= 8.68D-06 BMatP= 8.68D-06
 IDIUse=3 WtCom= 9.98D-01 WtEn= 2.04D-03
 Coeff-Com:  0.100D+01
 Coeff-En:   0.100D+01
 Coeff:      0.100D+01
 Gap=     0.174 Goal=   None    Shift=    0.000
 RMSDP=3.20D-06 MaxDP=1.37D-04 DE=-3.36D-05 OVMax= 6.56D-04

 Cycle  10  Pass 1  IDiag  1:
 RMSU=  7.72D-05    CP:  1.00D+00
 E= -1689.27469741970     Delta-E=       -0.000006881636 Rises=F Damp=F
 DIIS: error= 4.61D-05 at cycle   2 NSaved=   2.
 NSaved= 2 IEnMin= 2 EnMin= -1689.27469741970     IErMin= 2 ErrMin= 4.61D-05
 ErrMax= 4.61D-05 EMaxC= 1.00D-01 BMatC= 1.28D-06 BMatP= 8.68D-06
 IDIUse=1 WtCom= 1.00D+00 WtEn= 0.00D+00
 Coeff-Com:  0.165D+00 0.835D+00
 Coeff:      0.165D+00 0.835D+00
 Gap=     0.174 Goal=   None    Shift=    0.000
 RMSDP=5.97D-06 MaxDP=3.11D-04 DE=-6.88D-06 OVMax= 8.49D-04

 Cycle  11  Pass 1  IDiag  1:
 RMSU=  4.17D-06    CP:  1.00D+00  1.01D+00
 E= -1689.27469503916     Delta-E=        0.000002380545 Rises=F Damp=F
 DIIS: error= 8.34D-05 at cycle   3 NSaved=   3.
 NSaved= 3 IEnMin= 2 EnMin= -1689.27469741970     IErMin= 2 ErrMin= 4.61D-05
 ErrMax= 8.34D-05 EMaxC= 1.00D-01 BMatC= 3.43D-06 BMatP= 1.28D-06
 IDIUse=1 WtCom= 1.00D+00 WtEn= 0.00D+00
 Coeff-Com: -0.355D-02 0.623D+00 0.381D+00
 Coeff:     -0.355D-02 0.623D+00 0.381D+00
 Gap=     0.174 Goal=   None    Shift=    0.000
 RMSDP=3.73D-06 MaxDP=1.85D-04 DE= 2.38D-06 OVMax= 5.42D-04

 Cycle  12  Pass 1  IDiag  1:
 RMSU=  3.94D-07    CP:  1.00D+00  1.01D+00  3.78D-01
 E= -1689.27469882101     Delta-E=       -0.000003781850 Rises=F Damp=F
 DIIS: error= 6.23D-06 at cycle   4 NSaved=   4.
 NSaved= 4 IEnMin= 4 EnMin= -1689.27469882101     IErMin= 4 ErrMin= 6.23D-06
 ErrMax= 6.23D-06 EMaxC= 1.00D-01 BMatC= 3.03D-08 BMatP= 1.28D-06
 IDIUse=1 WtCom= 1.00D+00 WtEn= 0.00D+00
 Coeff-Com: -0.400D-02 0.389D+00 0.243D+00 0.371D+00
 Coeff:     -0.400D-02 0.389D+00 0.243D+00 0.371D+00
 Gap=     0.174 Goal=   None    Shift=    0.000
 RMSDP=3.24D-07 MaxDP=1.90D-05 DE=-3.78D-06 OVMax= 3.63D-05

 Cycle  13  Pass 1  IDiag  1:
 RMSU=  1.45D-07    CP:  1.00D+00  1.01D+00  3.88D-01  5.63D-01
 E= -1689.27469885073     Delta-E=       -0.000000029720 Rises=F Damp=F
 DIIS: error= 1.04D-06 at cycle   5 NSaved=   5.
 NSaved= 5 IEnMin= 5 EnMin= -1689.27469885073     IErMin= 5 ErrMin= 1.04D-06
 ErrMax= 1.04D-06 EMaxC= 1.00D-01 BMatC= 8.69D-10 BMatP= 3.03D-08
 IDIUse=1 WtCom= 1.00D+00 WtEn= 0.00D+00
 Coeff-Com: -0.212D-02 0.194D+00 0.121D+00 0.215D+00 0.472D+00
 Coeff:     -0.212D-02 0.194D+00 0.121D+00 0.215D+00 0.472D+00
 Gap=     0.174 Goal=   None    Shift=    0.000
 RMSDP=7.70D-08 MaxDP=4.05D-06 DE=-2.97D-08 OVMax= 8.34D-06

 Cycle  14  Pass 1  IDiag  1:
 RMSU=  4.76D-08    CP:  1.00D+00  1.01D+00  3.87D-01  5.93D-01  8.39D-01
 E= -1689.27469885148     Delta-E=       -0.000000000758 Rises=F Damp=F
 DIIS: error= 3.39D-07 at cycle   6 NSaved=   6.
 NSaved= 6 IEnMin= 6 EnMin= -1689.27469885148     IErMin= 6 ErrMin= 3.39D-07
 ErrMax= 3.39D-07 EMaxC= 1.00D-01 BMatC= 1.32D-10 BMatP= 8.69D-10
 IDIUse=1 WtCom= 1.00D+00 WtEn= 0.00D+00
 Coeff-Com: -0.609D-03 0.509D-01 0.319D-01 0.674D-01 0.299D+00 0.552D+00
 Coeff:     -0.609D-03 0.509D-01 0.319D-01 0.674D-01 0.299D+00 0.552D+00
 Gap=     0.174 Goal=   None    Shift=    0.000
 RMSDP=2.83D-08 MaxDP=2.03D-06 DE=-7.58D-10 OVMax= 3.75D-06

 Cycle  15  Pass 1  IDiag  1:
 RMSU=  1.34D-08    CP:  1.00D+00  1.01D+00  3.88D-01  5.96D-01  8.82D-01
                    CP:  7.23D-01
 E= -1689.27469885161     Delta-E=       -0.000000000121 Rises=F Damp=F
 DIIS: error= 1.68D-07 at cycle   7 NSaved=   7.
 NSaved= 7 IEnMin= 7 EnMin= -1689.27469885161     IErMin= 7 ErrMin= 1.68D-07
 ErrMax= 1.68D-07 EMaxC= 1.00D-01 BMatC= 2.05D-11 BMatP= 1.32D-10
 IDIUse=1 WtCom= 1.00D+00 WtEn= 0.00D+00
 Coeff-Com: -0.535D-04 0.236D-02 0.148D-02 0.926D-02 0.114D+00 0.345D+00
 Coeff-Com:  0.528D+00
 Coeff:     -0.535D-04 0.236D-02 0.148D-02 0.926D-02 0.114D+00 0.345D+00
 Coeff:      0.528D+00
 Gap=     0.174 Goal=   None    Shift=    0.000
 RMSDP=1.10D-08 MaxDP=8.24D-07 DE=-1.21D-10 OVMax= 1.68D-06

 Cycle  16  Pass 1  IDiag  1:
 RMSU=  4.87D-09    CP:  1.00D+00  1.01D+00  3.87D-01  5.99D-01  8.92D-01
                    CP:  7.46D-01  5.86D-01
 E= -1689.27469885165     Delta-E=       -0.000000000044 Rises=F Damp=F
 DIIS: error= 5.90D-08 at cycle   8 NSaved=   8.
 NSaved= 8 IEnMin= 8 EnMin= -1689.27469885165     IErMin= 8 ErrMin= 5.90D-08
 ErrMax= 5.90D-08 EMaxC= 1.00D-01 BMatC= 2.96D-12 BMatP= 2.05D-11
 IDIUse=1 WtCom= 1.00D+00 WtEn= 0.00D+00
 Coeff-Com:  0.401D-04-0.487D-02-0.308D-02-0.239D-02 0.374D-01 0.157D+00
 Coeff-Com:  0.340D+00 0.476D+00
 Coeff:      0.401D-04-0.487D-02-0.308D-02-0.239D-02 0.374D-01 0.157D+00
 Coeff:      0.340D+00 0.476D+00
 Gap=     0.174 Goal=   None    Shift=    0.000
 RMSDP=3.64D-09 MaxDP=2.32D-07 DE=-4.37D-11 OVMax= 5.25D-07

 SCF Done:  E(RB3LYP) =  -1689.27469885     A.U. after   16 cycles
             Convg  =    0.3642D-08             -V/T =  2.0056
 KE= 1.679800954965D+03 PE=-9.734147513046D+03 EE= 3.471420545378D+03
 Leave Link  502 at Sat Sep 10 11:29:56 2022, MaxMem=  209715200 cpu:    5439.0
 (Enter /opt/gaussian/l601.exe)
 Copying SCF densities to generalized density rwf, IOpCl= 0 IROHF=0.

 **********************************************************************

            Population analysis using the SCF density.

 **********************************************************************

 Orbital symmetries:
       Occupied  (A) (A) (A) (A) (A) (A) (A) (A) (A) (A) (A) (A)
                 (A) (A) (A) (A) (A) (A) (A) (A) (A) (A) (A) (A)
                 (A) (A) (A) (A) (A) (A) (A) (A) (A) (A) (A) (A)
                 (A) (A) (A) (A) (A) (A) (A) (A) (A) (A) (A) (A)
                 (A) (A) (A) (A) (A) (A) (A) (A) (A) (A) (A) (A)
                 (A) (A) (A) (A) (A) (A) (A) (A) (A) (A) (A) (A)
                 (A) (A) (A) (A) (A) (A) (A) (A) (A) (A) (A) (A)
                 (A) (A) (A) (A) (A) (A) (A) (A) (A) (A) (A) (A)
                 (A) (A) (A) (A) (A) (A) (A) (A) (A) (A) (A) (A)
                 (A) (A) (A)
       Virtual   (A) (A) (A) (A) (A) (A) (A) (A) (A) (A) (A) (A)
                 (A) (A) (A) (A) (A) (A) (A) (A) (A) (A) (A) (A)
                 (A) (A) (A) (A) (A) (A) (A) (A) (A) (A) (A) (A)
                 (A) (A) (A) (A) (A) (A) (A) (A) (A) (A) (A) (A)
                 (A) (A) (A) (A) (A) (A) (A) (A) (A) (A) (A) (A)
                 (A) (A) (A) (A) (A) (A) (A) (A) (A) (A) (A) (A)
                 (A) (A) (A) (A) (A) (A) (A) (A) (A) (A) (A) (A)
                 (A) (A) (A) (A) (A) (A) (A) (A) (A) (A) (A) (A)
                 (A) (A) (A) (A) (A) (A) (A) (A) (A) (A) (A) (A)
                 (A) (A) (A) (A) (A) (A) (A) (A) (A) (A) (A) (A)
                 (A) (A) (A) (A) (A) (A) (A) (A) (A) (A) (A) (A)
                 (A) (A) (A) (A) (A) (A) (A) (A) (A) (A) (A) (A)
                 (A) (A) (A) (A) (A) (A) (A) (A) (A) (A) (A) (A)
                 (A) (A) (A) (A) (A) (A) (A) (A) (A) (A) (A) (A)
                 (A) (A) (A) (A) (A) (A) (A) (A) (A) (A) (A) (A)
                 (A) (A) (A) (A) (A) (A) (A) (A) (A) (A) (A) (A)
                 (A) (A) (A) (A) (A) (A) (A) (A) (A) (A) (A) (A)
                 (A) (A) (A) (A) (A) (A) (A) (A) (A) (A) (A) (A)
                 (A) (A) (A) (A) (A) (A) (A) (A) (A) (A) (A) (A)
                 (A) (A) (A) (A) (A) (A) (A) (A) (A) (A) (A) (A)
                 (A) (A) (A) (A) (A) (A) (A) (A) (A) (A) (A) (A)
                 (A) (A) (A) (A) (A) (A) (A) (A) (A) (A) (A) (A)
                 (A) (A) (A) (A) (A) (A) (A) (A) (A) (A) (A) (A)
                 (A) (A) (A) (A) (A) (A) (A) (A) (A) (A) (A) (A)
                 (A) (A) (A) (A) (A) (A) (A) (A) (A) (A) (A) (A)
                 (A) (A) (A) (A) (A) (A) (A) (A) (A) (A) (A) (A)
                 (A) (A) (A) (A) (A) (A) (A) (A) (A) (A) (A) (A)
                 (A) (A) (A) (A) (A) (A) (A) (A) (A) (A) (A) (A)
                 (A) (A) (A) (A) (A) (A) (A) (A) (A) (A) (A) (A)
                 (A) (A) (A) (A) (A) (A) (A) (A) (A) (A) (A) (A)
                 (A) (A) (A) (A) (A) (A) (A) (A) (A) (A) (A) (A)
                 (A) (A) (A) (A) (A) (A) (A) (A) (A) (A) (A) (A)
                 (A) (A) (A) (A) (A) (A) (A) (A) (A) (A) (A) (A)
                 (A) (A) (A) (A) (A) (A) (A) (A) (A) (A) (A) (A)
                 (A) (A) (A) (A) (A) (A) (A) (A) (A)
 The electronic state is 1-A.
 Alpha  occ. eigenvalues --  -88.94013 -19.11990 -14.40505 -14.38342 -14.38001
 Alpha  occ. eigenvalues --  -14.36143 -14.34134 -14.33129 -10.30173 -10.27577
 Alpha  occ. eigenvalues --  -10.26029 -10.24996 -10.24766 -10.24495 -10.24219
 Alpha  occ. eigenvalues --  -10.22775 -10.22759 -10.22542 -10.21527 -10.21518
 Alpha  occ. eigenvalues --  -10.21459 -10.20871 -10.20752 -10.20626 -10.20522
 Alpha  occ. eigenvalues --  -10.20515 -10.20452 -10.19885 -10.19576 -10.19383
 Alpha  occ. eigenvalues --  -10.18992  -8.00273  -5.96568  -5.96208  -5.95931
 Alpha  occ. eigenvalues --   -1.08798  -1.05287  -0.99344  -0.95876  -0.94707
 Alpha  occ. eigenvalues --   -0.91791  -0.87337  -0.85881  -0.82533  -0.82125
 Alpha  occ. eigenvalues --   -0.79830  -0.78515  -0.77205  -0.76447  -0.76348
 Alpha  occ. eigenvalues --   -0.74656  -0.73209  -0.71017  -0.65916  -0.64488
 Alpha  occ. eigenvalues --   -0.64349  -0.62653  -0.62035  -0.61775  -0.61553
 Alpha  occ. eigenvalues --   -0.58963  -0.58220  -0.56496  -0.53809  -0.53326
 Alpha  occ. eigenvalues --   -0.52664  -0.51938  -0.51595  -0.51219  -0.49740
 Alpha  occ. eigenvalues --   -0.49334  -0.47895  -0.46670  -0.46191  -0.45753
 Alpha  occ. eigenvalues --   -0.45308  -0.44794  -0.44591  -0.44052  -0.43773
 Alpha  occ. eigenvalues --   -0.43629  -0.43223  -0.43026  -0.42224  -0.41271
 Alpha  occ. eigenvalues --   -0.40871  -0.40521  -0.39477  -0.39242  -0.38427
 Alpha  occ. eigenvalues --   -0.37678  -0.37129  -0.36700  -0.36155  -0.35929
 Alpha  occ. eigenvalues --   -0.35052  -0.32446  -0.31049  -0.30955  -0.30738
 Alpha  occ. eigenvalues --   -0.30228  -0.28788  -0.27764  -0.27369  -0.26663
 Alpha  occ. eigenvalues --   -0.26246  -0.26003  -0.25959  -0.24399  -0.23584
 Alpha  occ. eigenvalues --   -0.22881
 Alpha virt. eigenvalues --   -0.05497  -0.04991  -0.03647  -0.03214  -0.02315
 Alpha virt. eigenvalues --   -0.00285   0.00119   0.00476   0.01332   0.02331
 Alpha virt. eigenvalues --    0.04005   0.04352   0.05680   0.05804   0.06568
 Alpha virt. eigenvalues --    0.07177   0.07554   0.08638   0.09118   0.09583
 Alpha virt. eigenvalues --    0.10426   0.10854   0.10976   0.11637   0.12572
 Alpha virt. eigenvalues --    0.12835   0.13534   0.13997   0.14407   0.14687
 Alpha virt. eigenvalues --    0.15407   0.15851   0.16647   0.17462   0.19179
 Alpha virt. eigenvalues --    0.19942   0.20528   0.21225   0.21979   0.22415
 Alpha virt. eigenvalues --    0.22704   0.24134   0.25057   0.25382   0.26963
 Alpha virt. eigenvalues --    0.27421   0.27741   0.28241   0.28932   0.29885
 Alpha virt. eigenvalues --    0.30620   0.31136   0.31850   0.32253   0.33551
 Alpha virt. eigenvalues --    0.33949   0.35604   0.35956   0.36640   0.37237
 Alpha virt. eigenvalues --    0.37445   0.38198   0.39491   0.40415   0.41308
 Alpha virt. eigenvalues --    0.41897   0.42624   0.43064   0.43656   0.43754
 Alpha virt. eigenvalues --    0.44498   0.44803   0.45117   0.45505   0.45849
 Alpha virt. eigenvalues --    0.45949   0.46311   0.46599   0.47152   0.47482
 Alpha virt. eigenvalues --    0.47796   0.47982   0.48698   0.48864   0.49073
 Alpha virt. eigenvalues --    0.49411   0.49870   0.50036   0.50287   0.50570
 Alpha virt. eigenvalues --    0.50954   0.51547   0.52099   0.52156   0.52407
 Alpha virt. eigenvalues --    0.53304   0.53495   0.53700   0.54059   0.54918
 Alpha virt. eigenvalues --    0.55418   0.55578   0.56151   0.56749   0.57193
 Alpha virt. eigenvalues --    0.57343   0.57884   0.58222   0.59347   0.59451
 Alpha virt. eigenvalues --    0.59539   0.60035   0.60474   0.60626   0.60903
 Alpha virt. eigenvalues --    0.61505   0.62094   0.62404   0.62791   0.64144
 Alpha virt. eigenvalues --    0.64213   0.64421   0.64920   0.65477   0.65789
 Alpha virt. eigenvalues --    0.66261   0.66449   0.66650   0.67494   0.68060
 Alpha virt. eigenvalues --    0.68252   0.69636   0.69958   0.70133   0.70700
 Alpha virt. eigenvalues --    0.71014   0.71451   0.72447   0.73058   0.73672
 Alpha virt. eigenvalues --    0.74049   0.74549   0.75443   0.76365   0.77185
 Alpha virt. eigenvalues --    0.77912   0.79348   0.81037   0.81967   0.82750
 Alpha virt. eigenvalues --    0.83127   0.84342   0.84443   0.85017   0.85694
 Alpha virt. eigenvalues --    0.85929   0.87083   0.87146   0.87760   0.88025
 Alpha virt. eigenvalues --    0.88569   0.89191   0.90151   0.90801   0.90953
 Alpha virt. eigenvalues --    0.91975   0.92149   0.92693   0.93126   0.93425
 Alpha virt. eigenvalues --    0.94506   0.94844   0.95512   0.96707   0.97388
 Alpha virt. eigenvalues --    0.98044   0.98929   0.99174   0.99650   0.99999
 Alpha virt. eigenvalues --    1.00227   1.00935   1.01298   1.02007   1.02070
 Alpha virt. eigenvalues --    1.02344   1.02949   1.03156   1.03649   1.04311
 Alpha virt. eigenvalues --    1.04938   1.05087   1.05898   1.06123   1.06711
 Alpha virt. eigenvalues --    1.07607   1.08304   1.08870   1.09125   1.09982
 Alpha virt. eigenvalues --    1.10959   1.11644   1.12136   1.12841   1.13758
 Alpha virt. eigenvalues --    1.14787   1.15238   1.16998   1.18742   1.19199
 Alpha virt. eigenvalues --    1.19655   1.20393   1.21077   1.21559   1.22966
 Alpha virt. eigenvalues --    1.23945   1.24837   1.25532   1.27416   1.28445
 Alpha virt. eigenvalues --    1.29080   1.29555   1.31431   1.32061   1.33279
 Alpha virt. eigenvalues --    1.33664   1.34286   1.34585   1.35767   1.37644
 Alpha virt. eigenvalues --    1.38751   1.39358   1.41023   1.43445   1.44026
 Alpha virt. eigenvalues --    1.45280   1.45851   1.46534   1.47193   1.47804
 Alpha virt. eigenvalues --    1.48525   1.49201   1.49562   1.50355   1.50578
 Alpha virt. eigenvalues --    1.51266   1.52306   1.52632   1.52901   1.54085
 Alpha virt. eigenvalues --    1.55479   1.56107   1.56166   1.57541   1.57849
 Alpha virt. eigenvalues --    1.58176   1.58448   1.58924   1.59492   1.60229
 Alpha virt. eigenvalues --    1.60883   1.61284   1.61616   1.62198   1.62468
 Alpha virt. eigenvalues --    1.62997   1.63358   1.63724   1.64163   1.64588
 Alpha virt. eigenvalues --    1.64921   1.65293   1.66024   1.66764   1.66953
 Alpha virt. eigenvalues --    1.67950   1.68572   1.68951   1.69126   1.69744
 Alpha virt. eigenvalues --    1.70087   1.71013   1.71289   1.72332   1.72939
 Alpha virt. eigenvalues --    1.73116   1.74028   1.74444   1.74931   1.75482
 Alpha virt. eigenvalues --    1.75897   1.76924   1.77636   1.78244   1.78599
 Alpha virt. eigenvalues --    1.79209   1.79496   1.80091   1.80747   1.81576
 Alpha virt. eigenvalues --    1.82298   1.82944   1.83485   1.83848   1.84387
 Alpha virt. eigenvalues --    1.85253   1.85276   1.85819   1.86642   1.86781
 Alpha virt. eigenvalues --    1.87160   1.88033   1.89211   1.89737   1.90539
 Alpha virt. eigenvalues --    1.91227   1.91799   1.92482   1.93314   1.94525
 Alpha virt. eigenvalues --    1.95342   1.96084   1.96578   1.97405   1.97924
 Alpha virt. eigenvalues --    1.98311   1.99783   1.99925   2.00623   2.01172
 Alpha virt. eigenvalues --    2.01778   2.03408   2.04019   2.04428   2.05613
 Alpha virt. eigenvalues --    2.06586   2.07460   2.08415   2.09906   2.10640
 Alpha virt. eigenvalues --    2.12650   2.13180   2.13413   2.16057   2.16367
 Alpha virt. eigenvalues --    2.16759   2.18552   2.19694   2.20594   2.21538
 Alpha virt. eigenvalues --    2.21836   2.22729   2.25732   2.26727   2.28505
 Alpha virt. eigenvalues --    2.29022   2.29967   2.32904   2.34168   2.36418
 Alpha virt. eigenvalues --    2.37708   2.37901   2.38759   2.38866   2.38961
 Alpha virt. eigenvalues --    2.39975   2.40373   2.42703   2.42784   2.44502
 Alpha virt. eigenvalues --    2.45390   2.45712   2.46897   2.47160   2.48636
 Alpha virt. eigenvalues --    2.50195   2.50932   2.52141   2.53822   2.55058
 Alpha virt. eigenvalues --    2.58597   2.59300   2.60161   2.62026   2.63309
 Alpha virt. eigenvalues --    2.64264   2.65412   2.67329   2.68752   2.69962
 Alpha virt. eigenvalues --    2.71052   2.71861   2.72242   2.74182   2.75598
 Alpha virt. eigenvalues --    2.77318   2.78348   2.79047   2.80830   2.81528
 Alpha virt. eigenvalues --    2.83310   2.86543   2.88762   2.90118   2.94185
 Alpha virt. eigenvalues --    2.95247   2.96817   2.98043   2.98909   3.07813
 Alpha virt. eigenvalues --    3.10606   3.16169   3.38753   3.41270   3.48957
 Alpha virt. eigenvalues --    3.53254   3.54144
          Condensed to atoms (all electrons):
              1          2          3          4          5          6
     1  O    7.603011   0.776309  -0.090789  -0.002978   0.000045   0.000007
     2  C    0.776309   4.607201   0.287101  -0.042751  -0.000669  -0.000345
     3  C   -0.090789   0.287101   4.842440   0.354889  -0.046231   0.006496
     4  N   -0.002978  -0.042751   0.354889   6.507889   0.292971  -0.114062
     5  N    0.000045  -0.000669  -0.046231   0.292971   6.549615   0.459411
     6  N    0.000007  -0.000345   0.006496  -0.114062   0.459411   6.432862
     7  C   -0.000938  -0.000959   0.011669  -0.003881  -0.125554   0.508519
     8  C   -0.000019   0.000025  -0.000431   0.007418   0.000563  -0.051328
     9  C    0.000013  -0.000002   0.000026   0.000483   0.000112   0.004355
    10  C   -0.000003   0.000079  -0.000260   0.002631  -0.000106  -0.000740
    11  C    0.003506   0.001933  -0.006339  -0.060315   0.003412   0.011954
    12  C    0.011458   0.002154  -0.078010   0.322883  -0.093109  -0.071133
    13  N   -0.072586   0.365086  -0.076039   0.001728  -0.000019   0.000000
    14  C    0.002616  -0.041799   0.010639  -0.000028   0.000020   0.000000
    15  C   -0.000155  -0.006800  -0.004312   0.000098  -0.000001   0.000000
    16  C   -0.000003  -0.000461  -0.000044   0.000001   0.000000   0.000000
    17  S    0.000000   0.000027  -0.000052   0.000000   0.000000   0.000000
    18  C    0.000001  -0.000024   0.000020  -0.000001   0.000000   0.000000
    19  N   -0.000015   0.003152  -0.012261   0.000105   0.000000   0.000000
    20  C   -0.002373  -0.054583   0.007615  -0.000052  -0.000001   0.000000
    21  C   -0.001530  -0.001141  -0.000707   0.000003   0.000000   0.000000
    22  C    0.000027   0.000188   0.000005   0.000000   0.000000   0.000000
    23  C   -0.000005   0.000006   0.000000   0.000000   0.000000   0.000000
    24  C   -0.000380   0.000061   0.000000   0.000000   0.000000   0.000000
    25  C    0.003828  -0.005524   0.000439  -0.000006   0.000000   0.000000
    26  C    0.000000   0.000000   0.000000   0.000000   0.000000   0.000000
    27  C    0.000000   0.000000   0.000000   0.000000   0.000000   0.000000
    28  C    0.000000   0.000000   0.000000   0.000000   0.000000   0.000000
    29  C    0.000000   0.000000   0.000000   0.000000   0.000000   0.000000
    30  N    0.000000   0.000000   0.000000   0.000000   0.000000   0.000000
    31  C    0.000000   0.000000   0.000000   0.000000   0.000000   0.000000
    32  H    0.001017  -0.003586   0.331378  -0.020327   0.020084   0.000223
    33  H    0.000810  -0.017271   0.337810  -0.015181   0.002052  -0.000315
    34  H    0.000000   0.000000   0.000003  -0.000009  -0.000553  -0.000937
    35  H    0.000000   0.000000  -0.000001   0.000002   0.000008  -0.000096
    36  H   -0.000002   0.000000  -0.000010  -0.000135   0.000005  -0.000008
    37  H    0.001816   0.000210   0.000682  -0.006249  -0.000284  -0.000225
    38  H    0.000337  -0.014973   0.014479   0.000541  -0.000137   0.000002
    39  H   -0.000166   0.005736  -0.001064  -0.000014   0.000001   0.000000
    40  H    0.000000  -0.000019   0.000002   0.000000   0.000000   0.000000
    41  H    0.000000   0.000000   0.000054  -0.000001   0.000000   0.000000
    42  H   -0.000073  -0.000493  -0.000079   0.000000   0.000000   0.000000
    43  H    0.000000  -0.000002   0.000000   0.000000   0.000000   0.000000
    44  H   -0.000009  -0.000019   0.000000   0.000000   0.000000   0.000000
    45  H    0.004216   0.002693  -0.000031  -0.000001   0.000000   0.000000
    46  H    0.000000   0.000000   0.000000   0.000000   0.000000   0.000000
    47  H    0.000000   0.000000   0.000000   0.000000   0.000000   0.000000
    48  H    0.000000   0.000000   0.000000   0.000000   0.000000   0.000000
    49  H    0.000000   0.000000   0.000000   0.000000   0.000000   0.000000
              7          8          9         10         11         12
     1  O   -0.000938  -0.000019   0.000013  -0.000003   0.003506   0.011458
     2  C   -0.000959   0.000025  -0.000002   0.000079   0.001933   0.002154
     3  C    0.011669  -0.000431   0.000026  -0.000260  -0.006339  -0.078010
     4  N   -0.003881   0.007418   0.000483   0.002631  -0.060315   0.322883
     5  N   -0.125554   0.000563   0.000112  -0.000106   0.003412  -0.093109
     6  N    0.508519  -0.051328   0.004355  -0.000740   0.011954  -0.071133
     7  C    4.987250   0.425812   0.029044  -0.078949  -0.018341   0.277708
     8  C    0.425812   4.781748   0.497066   0.014886  -0.073524   0.014660
     9  C    0.029044   0.497066   4.761492   0.462816   0.009057  -0.089996
    10  C   -0.078949   0.014886   0.462816   4.727341   0.506303   0.029496
    11  C   -0.018341  -0.073524   0.009057   0.506303   4.872582   0.390885
    12  C    0.277708   0.014660  -0.089996   0.029496   0.390885   5.065203
    13  N   -0.000010   0.000000   0.000000  -0.000001  -0.000041   0.000440
    14  C    0.000002   0.000000   0.000000   0.000000   0.000006  -0.000011
    15  C    0.000000   0.000000   0.000000   0.000000  -0.000011   0.000005
    16  C    0.000000   0.000000   0.000000   0.000000   0.000000   0.000000
    17  S    0.000000   0.000000   0.000000   0.000000  -0.000001   0.000000
    18  C    0.000000   0.000000   0.000000   0.000000  -0.000031  -0.000004
    19  N   -0.000001   0.000000   0.000000   0.000001  -0.000312  -0.000140
    20  C    0.000000   0.000000   0.000000   0.000000   0.000003   0.000005
    21  C    0.000000   0.000000   0.000000   0.000000   0.000000   0.000000
    22  C    0.000000   0.000000   0.000000   0.000000   0.000000   0.000000
    23  C    0.000000   0.000000   0.000000   0.000000   0.000000   0.000000
    24  C    0.000000   0.000000   0.000000   0.000000   0.000000   0.000000
    25  C    0.000000   0.000000   0.000000   0.000000  -0.000011  -0.000010
    26  C    0.000000   0.000000   0.000000   0.000000   0.000000   0.000000
    27  C    0.000000   0.000000   0.000000   0.000000   0.000000   0.000000
    28  C    0.000000   0.000000   0.000000   0.000000   0.000000   0.000000
    29  C    0.000000   0.000000   0.000000   0.000000   0.000000   0.000000
    30  N    0.000000   0.000000   0.000000   0.000000   0.000000   0.000000
    31  C    0.000000   0.000000   0.000000   0.000000   0.000000   0.000000
    32  H   -0.000775  -0.000020   0.000003   0.000015   0.000368   0.010722
    33  H    0.000652   0.000014  -0.000010  -0.000007   0.001883  -0.002502
    34  H   -0.041658   0.376872  -0.058916   0.010220  -0.001397   0.015986
    35  H    0.010829  -0.048373   0.389058  -0.051581   0.011453  -0.000961
    36  H   -0.000732   0.011052  -0.050258   0.385787  -0.048207   0.010811
    37  H    0.009491  -0.000083   0.008738  -0.047111   0.366285  -0.028455
    38  H   -0.000002   0.000000   0.000000   0.000000   0.000003  -0.000025
    39  H    0.000000   0.000000   0.000000   0.000000   0.000000   0.000001
    40  H    0.000000   0.000000   0.000000   0.000000   0.000000   0.000000
    41  H    0.000000   0.000000   0.000000   0.000000   0.000018   0.000002
    42  H    0.000000   0.000000   0.000000   0.000000   0.000000   0.000000
    43  H    0.000000   0.000000   0.000000   0.000000   0.000000   0.000000
    44  H    0.000000   0.000000   0.000000   0.000000   0.000000   0.000000
    45  H    0.000000   0.000000   0.000000   0.000004   0.000045  -0.000006
    46  H    0.000000   0.000000   0.000000   0.000000   0.000000   0.000000
    47  H    0.000000   0.000000   0.000000   0.000000   0.000000   0.000000
    48  H    0.000000   0.000000   0.000000   0.000000   0.000000   0.000000
    49  H    0.000000   0.000000   0.000000   0.000000   0.000000   0.000000
             13         14         15         16         17         18
     1  O   -0.072586   0.002616  -0.000155  -0.000003   0.000000   0.000001
     2  C    0.365086  -0.041799  -0.006800  -0.000461   0.000027  -0.000024
     3  C   -0.076039   0.010639  -0.004312  -0.000044  -0.000052   0.000020
     4  N    0.001728  -0.000028   0.000098   0.000001   0.000000  -0.000001
     5  N   -0.000019   0.000020  -0.000001   0.000000   0.000000   0.000000
     6  N    0.000000   0.000000   0.000000   0.000000   0.000000   0.000000
     7  C   -0.000010   0.000002   0.000000   0.000000   0.000000   0.000000
     8  C    0.000000   0.000000   0.000000   0.000000   0.000000   0.000000
     9  C    0.000000   0.000000   0.000000   0.000000   0.000000   0.000000
    10  C   -0.000001   0.000000   0.000000   0.000000   0.000000   0.000000
    11  C   -0.000041   0.000006  -0.000011   0.000000  -0.000001  -0.000031
    12  C    0.000440  -0.000011   0.000005   0.000000   0.000000  -0.000004
    13  N    6.605023   0.379778  -0.055178   0.001002  -0.000140  -0.000087
    14  C    0.379778   4.574528   0.407375  -0.074588   0.005539   0.005528
    15  C   -0.055178   0.407375   4.825832   0.516733  -0.093754  -0.117551
    16  C    0.001002  -0.074588   0.516733   5.100302   0.360338  -0.086588
    17  S   -0.000140   0.005539  -0.093754   0.360338  15.410881   0.338599
    18  C   -0.000087   0.005528  -0.117551  -0.086588   0.338599   4.842169
    19  N   -0.002269  -0.051359   0.502946  -0.071855  -0.088174   0.621322
    20  C    0.269583  -0.065779  -0.006055   0.001934   0.000013   0.000001
    21  C   -0.039375  -0.007371  -0.000251   0.000137   0.000006   0.000001
    22  C    0.005215   0.000307   0.000053  -0.000044   0.000000   0.000000
    23  C    0.000409   0.000001   0.000002  -0.000008   0.000000   0.000000
    24  C    0.005163  -0.000250  -0.000031  -0.000028  -0.000005   0.000002
    25  C   -0.048462   0.001472   0.001944   0.000112  -0.000022   0.000036
    26  C    0.000002   0.000000   0.000000   0.000000   0.000000   0.000000
    27  C    0.000000   0.000000   0.000000   0.000000   0.000000   0.000000
    28  C    0.000000   0.000000   0.000000   0.000000   0.000000   0.000000
    29  C    0.000000   0.000000   0.000000   0.000000   0.000000   0.000000
    30  N    0.000000   0.000000   0.000000   0.000000   0.000000   0.000000
    31  C    0.000000   0.000000   0.000000   0.000000   0.000000   0.000000
    32  H    0.000302  -0.000981  -0.000191  -0.000029   0.000001  -0.000007
    33  H   -0.000638   0.001018  -0.004511   0.000803   0.000424  -0.000243
    34  H    0.000000   0.000000   0.000000   0.000000   0.000000   0.000000
    35  H    0.000000   0.000000   0.000000   0.000000   0.000000   0.000000
    36  H    0.000000   0.000000   0.000000   0.000000   0.000000   0.000000
    37  H   -0.000008  -0.000063   0.000052   0.000004   0.000012   0.000232
    38  H   -0.013392   0.341983  -0.008242   0.005866  -0.000307   0.000348
    39  H   -0.020642   0.360536  -0.021396  -0.010534  -0.000016  -0.000110
    40  H    0.000066  -0.008883  -0.007314   0.381656  -0.038934   0.004185
    41  H    0.000016  -0.000518   0.003537   0.004104  -0.049698   0.394024
    42  H   -0.004809  -0.000884   0.000791  -0.000037   0.000000   0.000001
    43  H   -0.000186  -0.000004  -0.000005   0.000000   0.000000   0.000000
    44  H   -0.000152   0.000002   0.000000   0.000000   0.000000   0.000000
    45  H   -0.012099  -0.000483   0.000189  -0.000018   0.000003   0.000157
    46  H    0.000000   0.000000   0.000000   0.000000   0.000000   0.000000
    47  H    0.000000   0.000000   0.000000   0.000000   0.000000   0.000000
    48  H    0.000000   0.000000   0.000000   0.000000   0.000000   0.000000
    49  H    0.000000   0.000000   0.000000   0.000000   0.000000   0.000000
             19         20         21         22         23         24
     1  O   -0.000015  -0.002373  -0.001530   0.000027  -0.000005  -0.000380
     2  C    0.003152  -0.054583  -0.001141   0.000188   0.000006   0.000061
     3  C   -0.012261   0.007615  -0.000707   0.000005   0.000000   0.000000
     4  N    0.000105  -0.000052   0.000003   0.000000   0.000000   0.000000
     5  N    0.000000  -0.000001   0.000000   0.000000   0.000000   0.000000
     6  N    0.000000   0.000000   0.000000   0.000000   0.000000   0.000000
     7  C   -0.000001   0.000000   0.000000   0.000000   0.000000   0.000000
     8  C    0.000000   0.000000   0.000000   0.000000   0.000000   0.000000
     9  C    0.000000   0.000000   0.000000   0.000000   0.000000   0.000000
    10  C    0.000001   0.000000   0.000000   0.000000   0.000000   0.000000
    11  C   -0.000312   0.000003   0.000000   0.000000   0.000000   0.000000
    12  C   -0.000140   0.000005   0.000000   0.000000   0.000000   0.000000
    13  N   -0.002269   0.269583  -0.039375   0.005215   0.000409   0.005163
    14  C   -0.051359  -0.065779  -0.007371   0.000307   0.000001  -0.000250
    15  C    0.502946  -0.006055  -0.000251   0.000053   0.000002  -0.000031
    16  C   -0.071855   0.001934   0.000137  -0.000044  -0.000008  -0.000028
    17  S   -0.088174   0.000013   0.000006   0.000000   0.000000  -0.000005
    18  C    0.621322   0.000001   0.000001   0.000000   0.000000   0.000002
    19  N    6.253226  -0.000681  -0.000012   0.000000   0.000000   0.000004
    20  C   -0.000681   4.949583   0.468334   0.000521  -0.074030   0.012887
    21  C   -0.000012   0.468334   4.767852   0.485391   0.008423  -0.073314
    22  C    0.000000   0.000521   0.485391   4.826323   0.471182  -0.011007
    23  C    0.000000  -0.074030   0.008423   0.471182   5.048277   0.468205
    24  C    0.000004   0.012887  -0.073314  -0.011007   0.468205   4.835895
    25  C    0.000233   0.474037  -0.021755  -0.068542   0.011337   0.478545
    26  C    0.000000   0.000857   0.007847  -0.079042   0.277040  -0.082718
    27  C    0.000000  -0.000026   0.000263  -0.012654  -0.090978   0.006638
    28  C    0.000000   0.000001  -0.000015  -0.000050   0.011544  -0.000193
    29  C    0.000000   0.000000   0.000001  -0.000021   0.001060   0.000003
    30  N    0.000000   0.000000   0.000000  -0.000133   0.007884   0.000006
    31  C    0.000000   0.000000  -0.000140   0.004969  -0.062484  -0.011869
    32  H    0.000058  -0.000334   0.000059   0.000000   0.000000   0.000001
[...]
    46  H    0.000000   0.000000   0.000001   0.000000   0.000000   0.000028
    47  H    0.000000   0.000000   0.000000   0.000000   0.000000   0.000000
    48  H    0.000000   0.000000   0.000000   0.000000   0.000000   0.000000
    49  H    0.000000   0.000000   0.000000   0.000000   0.000000   0.000000
             43         44         45         46         47         48
     1  O    0.000000  -0.000009   0.004216   0.000000   0.000000   0.000000
     2  C   -0.000002  -0.000019   0.002693   0.000000   0.000000   0.000000
     3  C    0.000000   0.000000  -0.000031   0.000000   0.000000   0.000000
     4  N    0.000000   0.000000  -0.000001   0.000000   0.000000   0.000000
     5  N    0.000000   0.000000   0.000000   0.000000   0.000000   0.000000
     6  N    0.000000   0.000000   0.000000   0.000000   0.000000   0.000000
     7  C    0.000000   0.000000   0.000000   0.000000   0.000000   0.000000
     8  C    0.000000   0.000000   0.000000   0.000000   0.000000   0.000000
     9  C    0.000000   0.000000   0.000000   0.000000   0.000000   0.000000
    10  C    0.000000   0.000000   0.000004   0.000000   0.000000   0.000000
    11  C    0.000000   0.000000   0.000045   0.000000   0.000000   0.000000
    12  C    0.000000   0.000000  -0.000006   0.000000   0.000000   0.000000
    13  N   -0.000186  -0.000152  -0.012099   0.000000   0.000000   0.000000
    14  C   -0.000004   0.000002  -0.000483   0.000000   0.000000   0.000000
    15  C   -0.000005   0.000000   0.000189   0.000000   0.000000   0.000000
    16  C    0.000000   0.000000  -0.000018   0.000000   0.000000   0.000000
    17  S    0.000000   0.000000   0.000003   0.000000   0.000000   0.000000
    18  C    0.000000   0.000000   0.000157   0.000000   0.000000   0.000000
    19  N    0.000000   0.000000   0.000641   0.000000   0.000000   0.000000
    20  C    0.010764   0.010154  -0.035729  -0.000039   0.000000   0.000000
    21  C   -0.039836  -0.000319   0.011705   0.000399   0.000000   0.000000
    22  C    0.379777   0.012078  -0.000426   0.006815  -0.000011  -0.000001
    23  C   -0.045487  -0.046358   0.009593  -0.025607  -0.000220   0.000061
    24  C    0.012098   0.383181  -0.046629  -0.000028   0.000004  -0.000001
    25  C   -0.000476  -0.039393   0.380537  -0.000026   0.000000   0.000000
    26  C   -0.021883  -0.021914  -0.000339  -0.046585   0.009923   0.002018
    27  C    0.005266   0.000172   0.000004   0.398959  -0.040818   0.005094
    28  C    0.000303  -0.000051   0.000000  -0.055825   0.374166  -0.052047
    29  C   -0.000036  -0.000011   0.000000   0.009123  -0.041046   0.387594
    30  N   -0.000013   0.000034   0.000000  -0.001256   0.006082  -0.029112
    31  C    0.000049   0.004857   0.000000   0.011481   0.000873   0.002702
    32  H    0.000000   0.000000   0.000013   0.000000   0.000000   0.000000
    33  H    0.000000   0.000000  -0.000049   0.000000   0.000000   0.000000
    34  H    0.000000   0.000000   0.000000   0.000000   0.000000   0.000000
    35  H    0.000000   0.000000   0.000000   0.000000   0.000000   0.000000
    36  H    0.000000   0.000000   0.000000   0.000000   0.000000   0.000000
    37  H    0.000000   0.000000   0.000225   0.000000   0.000000   0.000000
    38  H   -0.000001   0.000000  -0.000052   0.000000   0.000000   0.000000
    39  H    0.000051   0.000000  -0.000037   0.000001   0.000000   0.000000
    40  H    0.000001   0.000000  -0.000011   0.000000   0.000000   0.000000
    41  H    0.000000   0.000000  -0.000008   0.000000   0.000000   0.000000
    42  H   -0.016603   0.000070  -0.000246   0.000028   0.000000   0.000000
    43  H    0.750237  -0.000261   0.000057   0.000617   0.000029  -0.000001
    44  H   -0.000261   0.742427  -0.015720  -0.000023   0.000000   0.000000
    45  H    0.000057  -0.015720   0.728433   0.000000   0.000000   0.000000
    46  H    0.000617  -0.000023   0.000000   0.748499  -0.015515  -0.000337
    47  H    0.000029   0.000000   0.000000  -0.015515   0.738984  -0.009002
    48  H   -0.000001   0.000000   0.000000  -0.000337  -0.009002   0.696535
    49  H   -0.000018   0.001368   0.000021  -0.000273   0.000110  -0.000706
             49
     1  O    0.000000
     2  C    0.000000
     3  C    0.000000
     4  N    0.000000
     5  N    0.000000
     6  N    0.000000
     7  C    0.000000
     8  C    0.000000
     9  C    0.000000
    10  C    0.000000
    11  C    0.000000
    12  C    0.000000
    13  N    0.000000
    14  C    0.000000
    15  C    0.000000
    16  C    0.000000
    17  S    0.000000
    18  C    0.000000
    19  N    0.000000
    20  C   -0.000023
    21  C   -0.000033
    22  C   -0.000234
    23  C   -0.015976
    24  C    0.005975
    25  C    0.000198
    26  C   -0.043915
    27  C    0.008029
    28  C    0.000910
    29  C    0.003712
    30  N   -0.027185
    31  C    0.382218
    32  H    0.000000
    33  H    0.000000
    34  H    0.000000
    35  H    0.000000
    36  H    0.000000
    37  H    0.000000
    38  H    0.000000
    39  H    0.000000
    40  H    0.000000
    41  H    0.000000
    42  H    0.000000
    43  H   -0.000018
    44  H    0.001368
    45  H    0.000021
    46  H   -0.000273
    47  H    0.000110
    48  H   -0.000706
    49  H    0.690460
 Mulliken atomic charges:
              1
     1  O   -0.236993
     2  C    0.139458
     3  C    0.110917
     4  N   -0.225654
     5  N   -0.061636
     6  N   -0.184642
     7  C    0.010826
     8  C    0.043664
     9  C    0.036920
    10  C    0.039181
    11  C    0.028835
    12  C    0.211941
    13  N   -0.287681
    14  C    0.161651
    15  C    0.066201
    16  C   -0.128754
    17  S    0.155259
    18  C   -0.001979
    19  N   -0.183682
    20  C    0.078334
    21  C    0.057435
    22  C    0.021206
    23  C    0.036374
    24  C    0.018222
    25  C    0.097891
    26  C   -0.045216
    27  C    0.074365
    28  C   -0.008209
    29  C    0.105924
    30  N   -0.172509
    31  C    0.099898
    32  H    0.056379
    33  H    0.058731
    34  H   -0.023778
    35  H   -0.029105
    36  H   -0.028437
    37  H   -0.029278
    38  H    0.047671
    39  H    0.013981
    40  H    0.019683
    41  H    0.039122
    42  H   -0.029910
    43  H   -0.034440
    44  H   -0.030111
    45  H   -0.026650
    46  H   -0.030406
    47  H   -0.023556
    48  H   -0.002799
    49  H   -0.004640
 Sum of Mulliken atomic charges =   0.00000
 Mulliken charges with hydrogens summed into heavy atoms:
              1
     1  O   -0.236993
     2  C    0.139458
     3  C    0.226026
     4  N   -0.225654
     5  N   -0.061636
     6  N   -0.184642
     7  C    0.010826
     8  C    0.019885
     9  C    0.007815
    10  C    0.010744
    11  C   -0.000443
    12  C    0.211941
    13  N   -0.287681
    14  C    0.223303
    15  C    0.066201
    16  C   -0.109071
    17  S    0.155259
    18  C    0.037143
    19  N   -0.183682
    20  C    0.078334
    21  C    0.027525
    22  C   -0.013234
    23  C    0.036374
    24  C   -0.011889
    25  C    0.071241
    26  C   -0.045216
    27  C    0.043959
    28  C   -0.031765
    29  C    0.103125
    30  N   -0.172509
    31  C    0.095258
 Sum of Mulliken charges with hydrogens summed into heavy atoms =   0.00000
 Electronic spatial extent (au):  <R**2>=          18428.9496
 Charge=              0.0000 electrons
 Dipole moment (field-independent basis, Debye):
    X=             -3.8155    Y=              7.7830    Z=              0.8661  Tot=              8.7111
 Quadrupole moment (field-independent basis, Debye-Ang):
   XX=           -191.1623   YY=           -184.8572   ZZ=           -178.0876
   XY=             -1.3260   XZ=             27.2598   YZ=             -5.3014
 Traceless Quadrupole moment (field-independent basis, Debye-Ang):
   XX=             -6.4599   YY=             -0.1549   ZZ=              6.6148
   XY=             -1.3260   XZ=             27.2598   YZ=             -5.3014
 Octapole moment (field-independent basis, Debye-Ang**2):
  XXX=           -169.9033  YYY=             84.4603  ZZZ=             13.0067  XYY=             38.1627
  XXY=             75.0870  XXZ=             24.3137  XZZ=              3.3303  YZZ=             39.4680
  YYZ=             16.7653  XYZ=            -41.7862
 Hexadecapole moment (field-independent basis, Debye-Ang**3):
 XXXX=         -17443.8304 YYYY=          -5390.7219 ZZZZ=          -1834.6358 XXXY=           -266.7366
 XXXZ=            804.8862 YYYX=           -178.7302 YYYZ=            107.5294 ZZZX=            179.3571
 ZZZY=             -7.5668 XXYY=          -4125.1111 XXZZ=          -3529.1360 YYZZ=          -1199.6867
 XXYZ=           -114.4940 YYXZ=            189.2035 ZZXY=             17.3566
 N-N= 2.893651313851D+03 E-N=-9.734147510786D+03  KE= 1.679800954965D+03
 No NMR shielding tensors so no spin-rotation constants.
 Leave Link  601 at Sat Sep 10 11:29:56 2022, MaxMem=  209715200 cpu:       3.8
 (Enter /opt/gaussian/l602.exe)
 Breneman (CHELPG) radii used.
 Read replacement radii for each type of atom:
 Rad(35) =   1.900000000000D+00
 Atom Element Radius
    1     8    1.70
    2     6    1.50
    3     6    1.50
    4     7    1.70
    5     7    1.70
    6     7    1.70
    7     6    1.50
    8     6    1.50
    9     6    1.50
   10     6    1.50
   11     6    1.50
   12     6    1.50
   13     7    1.70
   14     6    1.50
   15     6    1.50
   16     6    1.50
   17    16    2.00
   18     6    1.50
   19     7    1.70
   20     6    1.50
   21     6    1.50
   22     6    1.50
   23     6    1.50
   24     6    1.50
   25     6    1.50
   26     6    1.50
   27     6    1.50
   28     6    1.50
   29     6    1.50
   30     7    1.70
   31     6    1.50
   32     1    1.45
   33     1    1.45
   34     1    1.45
   35     1    1.45
   36     1    1.45
   37     1    1.45
   38     1    1.45
   39     1    1.45
   40     1    1.45
   41     1    1.45
   42     1    1.45
   43     1    1.45
   44     1    1.45
   45     1    1.45
   46     1    1.45
   47     1    1.45
   48     1    1.45
   49     1    1.45
 Generate Potential Derived Charges using the Breneman model, NDens= 1.
 Grid spacing= 0.300 Box extension= 2.800
 NStep X,Y,Z=   72     47     41   Total possible points=      138744
 Number of Points to Fit=   27941

 **********************************************************************

            Electrostatic Properties Using The SCF Density

 **********************************************************************

       Atomic Center    1 is at   1.217350 -1.372400 -0.424810
       Atomic Center    2 is at   1.336950 -0.262200 -0.906800
       Atomic Center    3 is at   2.725240  0.315530 -1.246210
       Atomic Center    4 is at   3.776010 -0.640230 -1.004560
       Atomic Center    5 is at   4.393300 -1.247910 -2.062220
       Atomic Center    6 is at   5.294480 -2.060350 -1.626410
       Atomic Center    7 is at   5.292070 -2.013190 -0.245510
       Atomic Center    8 is at   6.082610 -2.692020  0.698760
       Atomic Center    9 is at   5.850970 -2.420840  2.040070
       Atomic Center   10 is at   4.853820 -1.496520  2.444960
       Atomic Center   11 is at   4.061370 -0.819340  1.526720
       Atomic Center   12 is at   4.302850 -1.096960  0.171140
       Atomic Center   13 is at   0.248440  0.553060 -1.186940
       Atomic Center   14 is at   0.372580  1.956060 -1.612110
       Atomic Center   15 is at   0.389630  2.931830 -0.458990
       Atomic Center   16 is at  -0.561860  3.882710 -0.198390
       Atomic Center   17 is at  -0.139360  4.782420  1.224760
       Atomic Center   18 is at   1.297040  3.796820  1.364850
       Atomic Center   19 is at   1.440400  2.892770  0.438890
       Atomic Center   20 is at  -1.070800  0.093070 -0.846710
       Atomic Center   21 is at  -2.056850  0.032310 -1.839040
       Atomic Center   22 is at  -3.352570 -0.376400 -1.524280
       Atomic Center   23 is at  -3.695910 -0.751170 -0.212970
       Atomic Center   24 is at  -2.690120 -0.698410  0.770360
       Atomic Center   25 is at  -1.396640 -0.280850  0.462480
       Atomic Center   26 is at  -5.072280 -1.193480  0.120960
       Atomic Center   27 is at  -6.207560 -0.599780 -0.454920
       Atomic Center   28 is at  -7.475100 -1.058830 -0.100960
       Atomic Center   29 is at  -7.575560 -2.099390  0.826290
       Atomic Center   30 is at  -6.512060 -2.690090  1.388070
       Atomic Center   31 is at  -5.303260 -2.242300  1.033120
       Atomic Center   32 is at   2.792210  0.574950 -2.312180
       Atomic Center   33 is at   2.893720  1.225890 -0.650350
       Atomic Center   34 is at   6.845310 -3.401310  0.373810
       Atomic Center   35 is at   6.442720 -2.927930  2.804980
       Atomic Center   36 is at   4.702500 -1.317780  3.511980
       Atomic Center   37 is at   3.286510 -0.120120  1.843020
       Atomic Center   38 is at   1.285060  2.076070 -2.210260
       Atomic Center   39 is at  -0.469710  2.193220 -2.275240
       Atomic Center   40 is at  -1.473580  4.096180 -0.751820
       Atomic Center   41 is at   2.006000  3.956250  2.178550
       Atomic Center   42 is at  -1.802430  0.284720 -2.870930
       Atomic Center   43 is at  -4.097780 -0.442930 -2.319610
       Atomic Center   44 is at  -2.929790 -0.963010  1.802010
       Atomic Center   45 is at  -0.633310 -0.244660  1.239050
       Atomic Center   46 is at  -6.097180  0.230110 -1.156760
       Atomic Center   47 is at  -8.374490 -0.610350 -0.527970
       Atomic Center   48 is at  -8.556300 -2.477750  1.133350
       Atomic Center   49 is at  -4.452190 -2.761770  1.485850
   27941 points will be used for fitting atomic charges
 Fitting point charges to electrostatic potential
 Charges from ESP fit, RMS=   0.00429 RRMS=   0.22411:
 Charge=   0.00000 Dipole=    -3.6335     7.8244     0.8120 Tot=     8.6650
              1
     1  O   -0.496446
     2  C    0.503061
     3  C    0.106579
     4  N    0.257768
     5  N   -0.230849
     6  N   -0.339673
     7  C    0.411799
     8  C   -0.265586
     9  C   -0.054928
    10  C   -0.105949
    11  C   -0.137905
    12  C   -0.052430
    13  N   -0.277934
    14  C   -0.141088
    15  C    0.322062
    16  C   -0.321753
    17  S    0.045688
    18  C    0.061608
    19  N   -0.341713
    20  C    0.290309
    21  C   -0.212173
    22  C   -0.076974
    23  C    0.020941
    24  C   -0.076942
    25  C   -0.193012
    26  C   -0.112322
    27  C    0.067978
    28  C   -0.284542
    29  C    0.339114
    30  N   -0.537479
    31  C    0.304795
    32  H   -0.008660
    33  H   -0.055055
    34  H    0.128813
    35  H    0.086382
    36  H    0.091250
    37  H    0.103997
    38  H    0.127253
    39  H    0.065200
    40  H    0.199475
    41  H    0.131134
    42  H    0.127217
    43  H    0.087803
    44  H    0.079212
    45  H    0.145909
    46  H    0.061002
    47  H    0.113041
    48  H    0.013668
    49  H    0.030356
 Charges from ESP fit with hydrogens summed into heavy atoms:
              1
     1  O   -0.496446
     2  C    0.503061
     3  C    0.042863
     4  N    0.257768
     5  N   -0.230849
     6  N   -0.339673
     7  C    0.411799
     8  C   -0.136773
     9  C    0.031454
    10  C   -0.014699
    11  C   -0.033908
    12  C   -0.052430
    13  N   -0.277934
    14  C    0.051365
    15  C    0.322062
    16  C   -0.122278
    17  S    0.045688
    18  C    0.192742
    19  N   -0.341713
    20  C    0.290309
    21  C   -0.084955
    22  C    0.010829
    23  C    0.020941
    24  C    0.002270
    25  C   -0.047102
    26  C   -0.112322
    27  C    0.128981
    28  C   -0.171501
    29  C    0.352781
    30  N   -0.537479
    31  C    0.335151
    32  H    0.000000
    33  H    0.000000
    34  H    0.000000
    35  H    0.000000
    36  H    0.000000
    37  H    0.000000
    38  H    0.000000
    39  H    0.000000
    40  H    0.000000
    41  H    0.000000
    42  H    0.000000
    43  H    0.000000
    44  H    0.000000
    45  H    0.000000
    46  H    0.000000
    47  H    0.000000
    48  H    0.000000
    49  H    0.000000
 -----------------------------------------------------------------

              Electrostatic Properties (Atomic Units)

 -----------------------------------------------------------------
    Center     Electric         -------- Electric Field --------
               Potential          X             Y             Z
 -----------------------------------------------------------------
    1 Atom    -22.370138
    2 Atom    -14.641147
    3 Atom    -14.692312
    4 Atom    -18.299610
    5 Atom    -18.336986
    6 Atom    -18.375353
    7 Atom    -14.742827
    8 Atom    -14.752694
    9 Atom    -14.755881
   10 Atom    -14.750281
   11 Atom    -14.746585
   12 Atom    -14.720592
   13 Atom    -18.321926
   14 Atom    -14.678802
   15 Atom    -14.695896
   16 Atom    -14.703021
   17 Atom    -59.156749
   18 Atom    -14.671435
   19 Atom    -18.352765
   20 Atom    -14.701948
   21 Atom    -14.738542
   22 Atom    -14.739417
   23 Atom    -14.730969
   24 Atom    -14.742001
   25 Atom    -14.742810
   26 Atom    -14.732191
   27 Atom    -14.732329
   28 Atom    -14.741182
   29 Atom    -14.717547
   30 Atom    -18.382589
   31 Atom    -14.717734
   32 Atom     -1.061948
   33 Atom     -1.067678
   34 Atom     -1.093919
   35 Atom     -1.099428
   36 Atom     -1.095734
   37 Atom     -1.085868
   38 Atom     -1.062070
   39 Atom     -1.064522
   40 Atom     -1.034033
   41 Atom     -1.034942
   42 Atom     -1.074827
   43 Atom     -1.080399
   44 Atom     -1.084323
   45 Atom     -1.085025
   46 Atom     -1.074909
   47 Atom     -1.077850
   48 Atom     -1.091731
   49 Atom     -1.092777
 -----------------------------------------------------------------
 Leave Link  602 at Sat Sep 10 11:30:11 2022, MaxMem=  209715200 cpu:     103.5
 (Enter /opt/gaussian/l9999.exe)
 1\1\GINC-LQCAPF-6\SP\RB3LYP\CC-pVDZ\C23H18N6O1S1\LQCAPF-6\10-Sep-2022\
 0\\#p b3lyp/cc-pvdz pop=(chelpg,readradii)\\Mol27.log\\0,1\O,0,1.21735
 ,-1.3724,-0.42481\C,0,1.33695,-0.2622,-0.9068\C,0,2.72524,0.31553,-1.2
 4621\N,0,3.77601,-0.64023,-1.00456\N,0,4.3933,-1.24791,-2.06222\N,0,5.
 29448,-2.06035,-1.62641\C,0,5.29207,-2.01319,-0.24551\C,0,6.08261,-2.6
 9202,0.69876\C,0,5.85097,-2.42084,2.04007\C,0,4.85382,-1.49652,2.44496
 \C,0,4.06137,-0.81934,1.52672\C,0,4.30285,-1.09696,0.17114\N,0,0.24844
 ,0.55306,-1.18694\C,0,0.37258,1.95606,-1.61211\C,0,0.38963,2.93183,-0.
 45899\C,0,-0.56186,3.88271,-0.19839\S,0,-0.13936,4.78242,1.22476\C,0,1
 .29704,3.79682,1.36485\N,0,1.4404,2.89277,0.43889\C,0,-1.0708,0.09307,
 -0.84671\C,0,-2.05685,0.03231,-1.83904\C,0,-3.35257,-0.3764,-1.52428\C
 ,0,-3.69591,-0.75117,-0.21297\C,0,-2.69012,-0.69841,0.77036\C,0,-1.396
 64,-0.28085,0.46248\C,0,-5.07228,-1.19348,0.12096\C,0,-6.20756,-0.5997
 8,-0.45492\C,0,-7.4751,-1.05883,-0.10096\C,0,-7.57556,-2.09939,0.82629
 \N,0,-6.51206,-2.69009,1.38807\C,0,-5.30326,-2.2423,1.03312\H,0,2.7922
 1,0.57495,-2.31218\H,0,2.89372,1.22589,-0.65035\H,0,6.84531,-3.40131,0
 .37381\H,0,6.44272,-2.92793,2.80498\H,0,4.7025,-1.31778,3.51198\H,0,3.
 28651,-0.12012,1.84302\H,0,1.28506,2.07607,-2.21026\H,0,-0.46971,2.193
 22,-2.27524\H,0,-1.47358,4.09618,-0.75182\H,0,2.006,3.95625,2.17855\H,
 0,-1.80243,0.28472,-2.87093\H,0,-4.09778,-0.44293,-2.31961\H,0,-2.9297
 9,-0.96301,1.80201\H,0,-0.63331,-0.24466,1.23905\H,0,-6.09718,0.23011,
 -1.15676\H,0,-8.37449,-0.61035,-0.52797\H,0,-8.5563,-2.47775,1.13335\H
 ,0,-4.45219,-2.76177,1.48585\\Version=EM64L-G09RevC.01\State=1-A\HF=-1
 689.2746989\RMSD=3.642e-09\Dipole=-1.5011298,3.0620553,0.3407521\Quadr
 upole=-4.8027889,-0.1151569,4.9179458,-0.9858727,20.2670198,-3.941469\
 PG=C01 [X(C23H18N6O1S1)]\\@


 PERICLES, SOPHOCLES,
 PELOPONESIAN WAR,
 FRENCH VERBS, LATIN VERBS
 H2SO4.
 Job cpu time:  0 days  1 hours 33 minutes  0.5 seconds.
 File lengths (MBytes):  RWF=    155 Int=      0 D2E=      0 Chk=     11 Scr=      1
 Normal termination of Gaussian 09 at Sat Sep 10 11:30:11 2022.
