 Entering Gaussian System, Link 0=g09
 Input=Mol20.gjf
 Output=Mol20.log
 Initial command:
 /opt/gaussian/l1.exe /home/scr/lqcapf-6/Gau-556977.inp -scrdir=/home/scr/lqcapf-6/
 Entering Link 1 = /opt/gaussian/l1.exe PID=    556979.
  
 Copyright (c) 1988,1990,1992,1993,1995,1998,2003,2009,2011,
            Gaussian, Inc.  All Rights Reserved.
  
 This is part of the Gaussian(R) 09 program.  It is based on
 the Gaussian(R) 03 system (copyright 2003, Gaussian, Inc.),
 the Gaussian(R) 98 system (copyright 1998, Gaussian, Inc.),
 the Gaussian(R) 94 system (copyright 1995, Gaussian, Inc.),
 the Gaussian 92(TM) system (copyright 1992, Gaussian, Inc.),
 the Gaussian 90(TM) system (copyright 1990, Gaussian, Inc.),
 the Gaussian 88(TM) system (copyright 1988, Gaussian, Inc.),
 the Gaussian 86(TM) system (copyright 1986, Carnegie Mellon
 University), and the Gaussian 82(TM) system (copyright 1983,
 Carnegie Mellon University). Gaussian is a federally registered
 trademark of Gaussian, Inc.
  
 This software contains proprietary and confidential information,
 including trade secrets, belonging to Gaussian, Inc.
  
 This software is provided under written license and may be
 used, copied, transmitted, or stored only in accord with that
 written license.
  
 The following legend is applicable only to US Government
 contracts under FAR:
  
                    RESTRICTED RIGHTS LEGEND
  
 Use, reproduction and disclosure by the US Government is
 subject to restrictions as set forth in subparagraphs (a)
 and (c) of the Commercial Computer Software - Restricted
 Rights clause in FAR 52.227-19.
  
 Gaussian, Inc.
 340 Quinnipiac St., Bldg. 40, Wallingford CT 06492
  
  
 ---------------------------------------------------------------
 Warning -- This program may not be used in any manner that
 competes with the business of Gaussian, Inc. or will provide
 assistance to any competitor of Gaussian, Inc.  The licensee
 of this program is prohibited from giving any competitor of
 Gaussian, Inc. access to this program.  By using this program,
 the user acknowledges that Gaussian, Inc. is engaged in the
 business of creating and licensing software in the field of
 computational chemistry and represents and warrants to the
 licensee that it is not a competitor of Gaussian, Inc. and that
 it will not use this program in any manner prohibited above.
 ---------------------------------------------------------------
  

 Cite this work as:
 Gaussian 09, Revision C.01,
 M. J. Frisch, G. W. Trucks, H. B. Schlegel, G. E. Scuseria, 
 M. A. Robb, J. R. Cheeseman, G. Scalmani, V. Barone, B. Mennucci, 
 G. A. Petersson, H. Nakatsuji, M. Caricato, X. Li, H. P. Hratchian, 
 A. F. Izmaylov, J. Bloino, G. Zheng, J. L. Sonnenberg, M. Hada, 
 M. Ehara, K. Toyota, R. Fukuda, J. Hasegawa, M. Ishida, T. Nakajima, 
 Y. Honda, O. Kitao, H. Nakai, T. Vreven, J. A. Montgomery, Jr., 
 J. E. Peralta, F. Ogliaro, M. Bearpark, J. J. Heyd, E. Brothers, 
 K. N. Kudin, V. N. Staroverov, T. Keith, R. Kobayashi, J. Normand, 
 K. Raghavachari, A. Rendell, J. C. Burant, S. S. Iyengar, J. Tomasi, 
 M. Cossi, N. Rega, J. M. Millam, M. Klene, J. E. Knox, J. B. Cross, 
 V. Bakken, C. Adamo, J. Jaramillo, R. Gomperts, R. E. Stratmann, 
 O. Yazyev, A. J. Austin, R. Cammi, C. Pomelli, J. W. Ochterski, 
 R. L. Martin, K. Morokuma, V. G. Zakrzewski, G. A. Voth, 
 P. Salvador, J. J. Dannenberg, S. Dapprich, A. D. Daniels, 
 O. Farkas, J. B. Foresman, J. V. Ortiz, J. Cioslowski, 
 and D. J. Fox, Gaussian, Inc., Wallingford CT, 2010.
 
 ******************************************
 Gaussian 09:  EM64L-G09RevC.01 23-Sep-2011
                10-Sep-2022 
 ******************************************
 %nprocshared=8
 Will use up to    8 processors via shared memory.
 %mem=1600MB
 ---------------------------------------
 #p b3lyp/cc-pvdz pop=(chelpg,readradii)
 ---------------------------------------
 1/38=1/1;
 2/12=2,17=6,18=5,40=1/2;
 3/5=16,11=2,16=1,25=1,30=1,74=-5/1,2,3;
 4//1;
 5/5=2,38=5/2;
 6/7=2,8=2,9=2,10=2,15=8,20=103,28=1/1,2;
 99/5=1,9=1/99;
 Leave Link    1 at Sat Sep 10 09:49:05 2022, MaxMem=  209715200 cpu:       0.2
 (Enter /opt/gaussian/l101.exe)
 ---------
 Mol20.log
 ---------
 Charge =  0 Multiplicity = 1
 Symbolic Z-Matrix:
 C                    -8.83064  -0.60265   0.80012 
 N                    -7.47449  -0.94365   0.41219 
 C                    -7.03038  -2.15459  -0.04676 
 N                    -5.74338  -2.14644  -0.31468 
 C                    -5.30914  -0.86644  -0.01948 
 C                    -6.37762  -0.10866   0.43365 
 C                    -3.90384  -0.47754  -0.19869 
 C                    -2.96919  -1.413    -0.67809 
 C                    -1.63111  -1.07674  -0.86457 
 C                    -1.17741   0.21933  -0.5697 
 C                    -2.10137   1.15994  -0.08621 
 C                    -3.44109   0.81646   0.09087 
 N                     0.19155   0.6034   -0.79143 
 C                     0.45093   1.93725  -1.35891 
 C                     1.06146   2.94168  -0.40165 
 C                     0.8284    2.97371   1.0152 
 C                     1.4688    4.01151   1.63998 
 S                     2.37295   4.97756   0.51615 
 C                     1.88673   3.96385  -0.80681 
 C                     1.22441  -0.26877  -0.47857 
 O                     1.05208  -1.35948   0.03732 
 C                     2.65052   0.22265  -0.79174 
 N                     3.61445  -0.85185  -0.77941 
 N                     4.23928  -1.18231  -1.95204 
 N                     5.10675  -2.10938  -1.73255 
 C                     5.0829   -2.4179   -0.38637 
 C                     5.84221  -3.34187   0.35402 
 C                     5.60213  -3.41849   1.71818 
 C                     4.62222  -2.6029    2.34093 
 C                     3.8577   -1.69135   1.62477 
 C                     4.1124   -1.61025   0.24528 
 H                    -8.87286  -0.30052   1.85846 
 H                    -9.22136   0.21942   0.17993 
 H                    -9.47369  -1.48208   0.66099 
 H                    -7.70103  -3.0046   -0.16231 
 H                    -6.45976   0.92301   0.76196 
 H                    -3.31735  -2.41962  -0.9112 
 H                    -0.9335   -1.82576  -1.23213 
 H                    -1.78099   2.17252   0.16376 
 H                    -4.12917   1.57586   0.46877 
 H                     1.08811   1.84592  -2.25274 
 H                    -0.51667   2.30752  -1.72339 
 H                     0.21939   2.24167   1.54545 
 H                     1.46635   4.26334   2.69853 
 H                     2.23923   4.17996  -1.81401 
 H                     2.72394   0.66775  -1.792 
 H                     2.93545   0.9982   -0.06219 
 H                     6.58805  -3.96597  -0.14053 
 H                     6.16985  -4.12286   2.32972 
 H                     4.45705  -2.70461   3.41595 
 H                     3.08186  -1.09404   2.10264 
 
 NAtoms=     51 NQM=        0 NQMF=       0 NMMI=     51 NMMIF=      0
                NMic=       0 NMicF=      0.
                    Isotopes and Nuclear Properties:
 (Nuclear quadrupole moments (NQMom) in fm**2, nuclear magnetic moments (NMagM)
  in nuclear magnetons)

  Atom         1           2           3           4           5           6           7           8           9          10
 IAtWgt=          12          14          12          14          12          12          12          12          12          12
 AtmWgt=  12.0000000  14.0030740  12.0000000  14.0030740  12.0000000  12.0000000  12.0000000  12.0000000  12.0000000  12.0000000
 NucSpn=           0           2           0           2           0           0           0           0           0           0
 AtZEff=   0.0000000   0.0000000   0.0000000   0.0000000   0.0000000   0.0000000   0.0000000   0.0000000   0.0000000   0.0000000
 NQMom=    0.0000000   2.0440000   0.0000000   2.0440000   0.0000000   0.0000000   0.0000000   0.0000000   0.0000000   0.0000000
 NMagM=    0.0000000   0.4037610   0.0000000   0.4037610   0.0000000   0.0000000   0.0000000   0.0000000   0.0000000   0.0000000

  Atom        11          12          13          14          15          16          17          18          19          20
 IAtWgt=          12          12          14          12          12          12          12          32          12          12
 AtmWgt=  12.0000000  12.0000000  14.0030740  12.0000000  12.0000000  12.0000000  12.0000000  31.9720718  12.0000000  12.0000000
 NucSpn=           0           0           2           0           0           0           0           0           0           0
 AtZEff=   0.0000000   0.0000000   0.0000000   0.0000000   0.0000000   0.0000000   0.0000000   0.0000000   0.0000000   0.0000000
 NQMom=    0.0000000   0.0000000   2.0440000   0.0000000   0.0000000   0.0000000   0.0000000   0.0000000   0.0000000   0.0000000
 NMagM=    0.0000000   0.0000000   0.4037610   0.0000000   0.0000000   0.0000000   0.0000000   0.0000000   0.0000000   0.0000000

  Atom        21          22          23          24          25          26          27          28          29          30
 IAtWgt=          16          12          14          14          14          12          12          12          12          12
 AtmWgt=  15.9949146  12.0000000  14.0030740  14.0030740  14.0030740  12.0000000  12.0000000  12.0000000  12.0000000  12.0000000
 NucSpn=           0           0           2           2           2           0           0           0           0           0
 AtZEff=   0.0000000   0.0000000   0.0000000   0.0000000   0.0000000   0.0000000   0.0000000   0.0000000   0.0000000   0.0000000
 NQMom=    0.0000000   0.0000000   2.0440000   2.0440000   2.0440000   0.0000000   0.0000000   0.0000000   0.0000000   0.0000000
 NMagM=    0.0000000   0.0000000   0.4037610   0.4037610   0.4037610   0.0000000   0.0000000   0.0000000   0.0000000   0.0000000

  Atom        31          32          33          34          35          36          37          38          39          40
 IAtWgt=          12           1           1           1           1           1           1           1           1           1
 AtmWgt=  12.0000000   1.0078250   1.0078250   1.0078250   1.0078250   1.0078250   1.0078250   1.0078250   1.0078250   1.0078250
 NucSpn=           0           1           1           1           1           1           1           1           1           1
 AtZEff=   0.0000000   0.0000000   0.0000000   0.0000000   0.0000000   0.0000000   0.0000000   0.0000000   0.0000000   0.0000000
 NQMom=    0.0000000   0.0000000   0.0000000   0.0000000   0.0000000   0.0000000   0.0000000   0.0000000   0.0000000   0.0000000
 NMagM=    0.0000000   2.7928460   2.7928460   2.7928460   2.7928460   2.7928460   2.7928460   2.7928460   2.7928460   2.7928460

  Atom        41          42          43          44          45          46          47          48          49          50
 IAtWgt=           1           1           1           1           1           1           1           1           1           1
 AtmWgt=   1.0078250   1.0078250   1.0078250   1.0078250   1.0078250   1.0078250   1.0078250   1.0078250   1.0078250   1.0078250
 NucSpn=           1           1           1           1           1           1           1           1           1           1
 AtZEff=   0.0000000   0.0000000   0.0000000   0.0000000   0.0000000   0.0000000   0.0000000   0.0000000   0.0000000   0.0000000
 NQMom=    0.0000000   0.0000000   0.0000000   0.0000000   0.0000000   0.0000000   0.0000000   0.0000000   0.0000000   0.0000000
 NMagM=    2.7928460   2.7928460   2.7928460   2.7928460   2.7928460   2.7928460   2.7928460   2.7928460   2.7928460   2.7928460

  Atom        51
 IAtWgt=           1
 AtmWgt=   1.0078250
 NucSpn=           1
 AtZEff=   0.0000000
 NQMom=    0.0000000
 NMagM=    2.7928460
 Leave Link  101 at Sat Sep 10 09:49:05 2022, MaxMem=  209715200 cpu:       0.7
 (Enter /opt/gaussian/l202.exe)
 Stoichiometry    C23H20N6OS
 Framework group  C1[X(C23H20N6OS)]
 Deg. of freedom   147
 Full point group                 C1      NOp   1
 Largest Abelian subgroup         C1      NOp   1
 Largest concise Abelian subgroup C1      NOp   1
                         Standard orientation:                         
 ---------------------------------------------------------------------
 Center     Atomic      Atomic             Coordinates (Angstroms)
 Number     Number       Type             X           Y           Z
 ---------------------------------------------------------------------
      1          6           0       -8.830640   -0.602650    0.800121
      2          7           0       -7.474490   -0.943650    0.412191
      3          6           0       -7.030380   -2.154590   -0.046759
      4          7           0       -5.743380   -2.146440   -0.314679
      5          6           0       -5.309140   -0.866440   -0.019479
      6          6           0       -6.377620   -0.108660    0.433651
      7          6           0       -3.903840   -0.477540   -0.198689
      8          6           0       -2.969190   -1.413000   -0.678089
      9          6           0       -1.631110   -1.076740   -0.864569
     10          6           0       -1.177410    0.219330   -0.569699
     11          6           0       -2.101370    1.159940   -0.086209
     12          6           0       -3.441090    0.816460    0.090871
     13          7           0        0.191550    0.603400   -0.791429
     14          6           0        0.450930    1.937250   -1.358909
     15          6           0        1.061460    2.941680   -0.401649
     16          6           0        0.828400    2.973710    1.015201
     17          6           0        1.468800    4.011510    1.639981
     18         16           0        2.372950    4.977560    0.516151
     19          6           0        1.886730    3.963850   -0.806809
     20          6           0        1.224410   -0.268770   -0.478569
     21          8           0        1.052080   -1.359480    0.037321
     22          6           0        2.650520    0.222650   -0.791739
     23          7           0        3.614450   -0.851850   -0.779409
     24          7           0        4.239280   -1.182310   -1.952039
     25          7           0        5.106750   -2.109380   -1.732549
     26          6           0        5.082900   -2.417900   -0.386369
     27          6           0        5.842210   -3.341870    0.354021
     28          6           0        5.602130   -3.418490    1.718181
     29          6           0        4.622220   -2.602900    2.340931
     30          6           0        3.857700   -1.691350    1.624771
     31          6           0        4.112400   -1.610250    0.245281
     32          1           0       -8.872860   -0.300520    1.858461
     33          1           0       -9.221360    0.219420    0.179931
     34          1           0       -9.473690   -1.482080    0.660991
     35          1           0       -7.701030   -3.004600   -0.162309
     36          1           0       -6.459760    0.923010    0.761961
     37          1           0       -3.317350   -2.419620   -0.911199
     38          1           0       -0.933500   -1.825760   -1.232129
     39          1           0       -1.780990    2.172520    0.163761
     40          1           0       -4.129170    1.575860    0.468771
     41          1           0        1.088110    1.845920   -2.252739
     42          1           0       -0.516670    2.307520   -1.723389
     43          1           0        0.219390    2.241670    1.545451
     44          1           0        1.466350    4.263340    2.698531
     45          1           0        2.239230    4.179960   -1.814009
     46          1           0        2.723940    0.667750   -1.791999
     47          1           0        2.935450    0.998200   -0.062189
     48          1           0        6.588050   -3.965970   -0.140529
     49          1           0        6.169850   -4.122860    2.329721
     50          1           0        4.457050   -2.704610    3.415951
     51          1           0        3.081860   -1.094040    2.102641
 ---------------------------------------------------------------------
 Rotational constants (GHZ):      0.1797140      0.0630541      0.0507122
 Leave Link  202 at Sat Sep 10 09:49:05 2022, MaxMem=  209715200 cpu:       0.0
 (Enter /opt/gaussian/l301.exe)
 Standard basis: CC-pVDZ (5D, 7F)
 Ernie: Thresh=  0.10000D-02 Tol=  0.10000D-05 Strict=F.
 Ernie:  70 primitive shells out of 810 were deleted.
 There are   538 symmetry adapted basis functions of A   symmetry.
 Integral buffers will be    131072 words long.
 Raffenetti 2 integral format.
 Two-electron integral symmetry is turned on.
   538 basis functions,  1201 primitive gaussians,   569 cartesian basis functions
   112 alpha electrons      112 beta electrons
       nuclear repulsion energy      2901.2839081544 Hartrees.
 IExCor=  402 DFT=T Ex+Corr=B3LYP ExCW=0 ScaHFX=  0.200000
 ScaDFX=  0.800000  0.720000  1.000000  0.810000 ScalE2=  1.000000  1.000000
 IRadAn=      0 IRanWt=     -1 IRanGd=            0 ICorTp=0
 NAtoms=   51 NActive=   51 NUniq=   51 SFac= 1.00D+00 NAtFMM=   60 NAOKFM=F Big=F
 Leave Link  301 at Sat Sep 10 09:49:05 2022, MaxMem=  209715200 cpu:       0.3
 (Enter /opt/gaussian/l302.exe)
 NPDir=0 NMtPBC=     1 NCelOv=     1 NCel=       1 NClECP=     1 NCelD=      1
         NCelK=      1 NCelE2=     1 NClLst=     1 CellRange=     0.0.
 One-electron integrals computed using PRISM.
 NBasis=   538 RedAO= T  NBF=   538
 NBsUse=   538 1.00D-06 NBFU=   538
 Precomputing XC quadrature grid using
 IXCGrd= 2 IRadAn=           0 IRanWt=          -1 IRanGd=           0 AccXCQ= 0.00D+00.
 NRdTot=    3296 NPtTot=      421886 NUsed=      445634 NTot=      445666
 NSgBfM=   546   546   546   546   546 NAtAll=    51    51.
 Leave Link  302 at Sat Sep 10 09:49:06 2022, MaxMem=  209715200 cpu:       7.9
 (Enter /opt/gaussian/l303.exe)
 DipDrv:  MaxL=1.
 Leave Link  303 at Sat Sep 10 09:49:06 2022, MaxMem=  209715200 cpu:       1.2
 (Enter /opt/gaussian/l401.exe)
 Harris functional with IExCor=  402 diagonalized for initial guess.
 ExpMin= 1.22D-01 ExpMax= 1.11D+05 ExpMxC= 1.07D+03 IAcc=2 IRadAn=         4 AccDes= 0.00D+00
 HarFok:  IExCor=  402 AccDes= 0.00D+00 IRadAn=         4 IDoV= 1
 ScaDFX=  1.000000  1.000000  1.000000  1.000000
 FoFCou: FMM=F IPFlag=           0 FMFlag=      100000 FMFlg1=           0
         NFxFlg=           0 DoJE=T BraDBF=F KetDBF=T FulRan=T
         Omega=  0.000000  0.000000  1.000000  0.000000  0.000000 ICntrl=     500 IOpCl=  0
         NMat0=    1 NMatS0=    1 NMatT0=    0 NMatD0=    1 NMtDS0=    0 NMtDT0=    0
         I1Cent=           4 NGrid=           0.
 Petite list used in FoFCou.
 Harris En= -1690.23677610693    
 Initial guess orbital symmetries:
       Occupied  (A) (A) (A) (A) (A) (A) (A) (A) (A) (A) (A) (A)
                 (A) (A) (A) (A) (A) (A) (A) (A) (A) (A) (A) (A)
                 (A) (A) (A) (A) (A) (A) (A) (A) (A) (A) (A) (A)
                 (A) (A) (A) (A) (A) (A) (A) (A) (A) (A) (A) (A)
                 (A) (A) (A) (A) (A) (A) (A) (A) (A) (A) (A) (A)
                 (A) (A) (A) (A) (A) (A) (A) (A) (A) (A) (A) (A)
                 (A) (A) (A) (A) (A) (A) (A) (A) (A) (A) (A) (A)
                 (A) (A) (A) (A) (A) (A) (A) (A) (A) (A) (A) (A)
                 (A) (A) (A) (A) (A) (A) (A) (A) (A) (A) (A) (A)
                 (A) (A) (A) (A)
       Virtual   (A) (A) (A) (A) (A) (A) (A) (A) (A) (A) (A) (A)
                 (A) (A) (A) (A) (A) (A) (A) (A) (A) (A) (A) (A)
                 (A) (A) (A) (A) (A) (A) (A) (A) (A) (A) (A) (A)
                 (A) (A) (A) (A) (A) (A) (A) (A) (A) (A) (A) (A)
                 (A) (A) (A) (A) (A) (A) (A) (A) (A) (A) (A) (A)
                 (A) (A) (A) (A) (A) (A) (A) (A) (A) (A) (A) (A)
                 (A) (A) (A) (A) (A) (A) (A) (A) (A) (A) (A) (A)
                 (A) (A) (A) (A) (A) (A) (A) (A) (A) (A) (A) (A)
                 (A) (A) (A) (A) (A) (A) (A) (A) (A) (A) (A) (A)
                 (A) (A) (A) (A) (A) (A) (A) (A) (A) (A) (A) (A)
                 (A) (A) (A) (A) (A) (A) (A) (A) (A) (A) (A) (A)
                 (A) (A) (A) (A) (A) (A) (A) (A) (A) (A) (A) (A)
                 (A) (A) (A) (A) (A) (A) (A) (A) (A) (A) (A) (A)
                 (A) (A) (A) (A) (A) (A) (A) (A) (A) (A) (A) (A)
                 (A) (A) (A) (A) (A) (A) (A) (A) (A) (A) (A) (A)
                 (A) (A) (A) (A) (A) (A) (A) (A) (A) (A) (A) (A)
                 (A) (A) (A) (A) (A) (A) (A) (A) (A) (A) (A) (A)
                 (A) (A) (A) (A) (A) (A) (A) (A) (A) (A) (A) (A)
                 (A) (A) (A) (A) (A) (A) (A) (A) (A) (A) (A) (A)
                 (A) (A) (A) (A) (A) (A) (A) (A) (A) (A) (A) (A)
                 (A) (A) (A) (A) (A) (A) (A) (A) (A) (A) (A) (A)
                 (A) (A) (A) (A) (A) (A) (A) (A) (A) (A) (A) (A)
                 (A) (A) (A) (A) (A) (A) (A) (A) (A) (A) (A) (A)
                 (A) (A) (A) (A) (A) (A) (A) (A) (A) (A) (A) (A)
                 (A) (A) (A) (A) (A) (A) (A) (A) (A) (A) (A) (A)
                 (A) (A) (A) (A) (A) (A) (A) (A) (A) (A) (A) (A)
                 (A) (A) (A) (A) (A) (A) (A) (A) (A) (A) (A) (A)
                 (A) (A) (A) (A) (A) (A) (A) (A) (A) (A) (A) (A)
                 (A) (A) (A) (A) (A) (A) (A) (A) (A) (A) (A) (A)
                 (A) (A) (A) (A) (A) (A) (A) (A) (A) (A) (A) (A)
                 (A) (A) (A) (A) (A) (A) (A) (A) (A) (A) (A) (A)
                 (A) (A) (A) (A) (A) (A) (A) (A) (A) (A) (A) (A)
                 (A) (A) (A) (A) (A) (A) (A) (A) (A) (A) (A) (A)
                 (A) (A) (A) (A) (A) (A) (A) (A) (A) (A) (A) (A)
                 (A) (A) (A) (A) (A) (A) (A) (A) (A) (A) (A) (A)
                 (A) (A) (A) (A) (A) (A)
 The electronic state of the initial guess is 1-A.
 Leave Link  401 at Sat Sep 10 09:49:10 2022, MaxMem=  209715200 cpu:      24.3
 (Enter /opt/gaussian/l502.exe)
 Closed shell SCF:
 Requested convergence on RMS density matrix=1.00D-08 within 128 cycles.
 Requested convergence on MAX density matrix=1.00D-06.
 Requested convergence on             energy=1.00D-06.
 No special actions if energy rises.
 Using DIIS extrapolation, IDIIS=  1040.
 Integral symmetry usage will be decided dynamically.
       445162 words used for storage of precomputed grid.
 IEnd=     1443445 IEndB=     1443445 NGot=   209715200 MDV=   208612726
 LenX=   208612726 LenY=   208288396
 Fock matrices will be formed incrementally for  20 cycles.
 Integral accuracy reduced to 1.0D-05 until final iterations.

 Cycle   1  Pass 0  IDiag  1:
 FoFCou: FMM=F IPFlag=           0 FMFlag=      100000 FMFlg1=           0
         NFxFlg=           0 DoJE=F BraDBF=F KetDBF=F FulRan=T
         Omega=  0.000000  0.000000  1.000000  0.000000  0.000000 ICntrl=       0 IOpCl=  0
         NMat0=    1 NMatS0=    1 NMatT0=    0 NMatD0=    1 NMtDS0=    0 NMtDT0=    0
         I1Cent=           0 NGrid=           0.
 Symmetry not used in FoFCou.
 E= -1689.80226661927    
 DIIS: error= 2.81D-02 at cycle   1 NSaved=   1.
 NSaved= 1 IEnMin= 1 EnMin= -1689.80226661927     IErMin= 1 ErrMin= 2.81D-02
 ErrMax= 2.81D-02 EMaxC= 1.00D-01 BMatC= 6.09D-01 BMatP= 6.09D-01
 IDIUse=3 WtCom= 7.19D-01 WtEn= 2.81D-01
 Coeff-Com:  0.100D+01
 Coeff-En:   0.100D+01
 Coeff:      0.100D+01
 Gap=     0.236 Goal=   None    Shift=    0.000
 GapD=    0.236 DampG=1.000 DampE=0.500 DampFc=0.5000 IDamp=-1.
 Damping current iteration by 5.00D-01
 RMSDP=4.24D-03 MaxDP=2.09D-01              OVMax= 3.14D-01

 Cycle   2  Pass 0  IDiag  1:
 RMSU=  1.48D-03    CP:  9.81D-01
 E= -1689.95231372681     Delta-E=       -0.150047107540 Rises=F Damp=T
 DIIS: error= 9.59D-03 at cycle   2 NSaved=   2.
 NSaved= 2 IEnMin= 2 EnMin= -1689.95231372681     IErMin= 2 ErrMin= 9.59D-03
 ErrMax= 9.59D-03 EMaxC= 1.00D-01 BMatC= 1.26D-01 BMatP= 6.09D-01
 IDIUse=3 WtCom= 9.04D-01 WtEn= 9.59D-02
 Coeff-Com:  0.255D+00 0.745D+00
 Coeff-En:   0.384D+00 0.616D+00
 Coeff:      0.268D+00 0.732D+00
 Gap=     0.249 Goal=   None    Shift=    0.000
 RMSDP=1.45D-03 MaxDP=7.14D-02 DE=-1.50D-01 OVMax= 3.31D-01

 Cycle   3  Pass 0  IDiag  1:
 RMSU=  9.31D-04    CP:  9.67D-01  7.32D-01
 E= -1690.38957076338     Delta-E=       -0.437257036576 Rises=F Damp=F
 DIIS: error= 7.68D-03 at cycle   3 NSaved=   3.
 NSaved= 3 IEnMin= 3 EnMin= -1690.38957076338     IErMin= 3 ErrMin= 7.68D-03
 ErrMax= 7.68D-03 EMaxC= 1.00D-01 BMatC= 8.85D-02 BMatP= 1.26D-01
 IDIUse=3 WtCom= 9.23D-01 WtEn= 7.68D-02
 Coeff-Com:  0.840D-01 0.447D+00 0.469D+00
 Coeff-En:   0.000D+00 0.000D+00 0.100D+01
 Coeff:      0.775D-01 0.412D+00 0.510D+00
 Gap=     0.169 Goal=   None    Shift=    0.000
 RMSDP=7.08D-04 MaxDP=5.30D-02 DE=-4.37D-01 OVMax= 8.02D-02

 Cycle   4  Pass 0  IDiag  1:
 RMSU=  3.85D-04    CP:  9.71D-01  7.98D-01  6.75D-01
 E= -1690.45703396456     Delta-E=       -0.067463201181 Rises=F Damp=F
 DIIS: error= 3.11D-03 at cycle   4 NSaved=   4.
 NSaved= 4 IEnMin= 4 EnMin= -1690.45703396456     IErMin= 4 ErrMin= 3.11D-03
 ErrMax= 3.11D-03 EMaxC= 1.00D-01 BMatC= 1.71D-02 BMatP= 8.85D-02
 IDIUse=3 WtCom= 9.69D-01 WtEn= 3.11D-02
 Coeff-Com:  0.199D-01 0.137D+00 0.320D+00 0.523D+00
 Coeff-En:   0.000D+00 0.000D+00 0.181D+00 0.819D+00
 Coeff:      0.193D-01 0.133D+00 0.316D+00 0.532D+00
 Gap=     0.172 Goal=   None    Shift=    0.000
 RMSDP=3.17D-04 MaxDP=1.96D-02 DE=-6.75D-02 OVMax= 4.05D-02

 Cycle   5  Pass 0  IDiag  1:
 RMSU=  1.47D-04    CP:  9.70D-01  7.84D-01  7.28D-01  5.83D-01
 E= -1690.47055046654     Delta-E=       -0.013516501973 Rises=F Damp=F
 DIIS: error= 1.59D-03 at cycle   5 NSaved=   5.
 NSaved= 5 IEnMin= 5 EnMin= -1690.47055046654     IErMin= 5 ErrMin= 1.59D-03
 ErrMax= 1.59D-03 EMaxC= 1.00D-01 BMatC= 2.43D-03 BMatP= 1.71D-02
 IDIUse=3 WtCom= 9.84D-01 WtEn= 1.59D-02
 Coeff-Com:  0.322D-02 0.269D-01 0.141D+00 0.352D+00 0.477D+00
 Coeff-En:   0.000D+00 0.000D+00 0.000D+00 0.136D+00 0.864D+00
 Coeff:      0.317D-02 0.264D-01 0.138D+00 0.349D+00 0.483D+00
 Gap=     0.170 Goal=   None    Shift=    0.000
 RMSDP=1.24D-04 MaxDP=7.02D-03 DE=-1.35D-02 OVMax= 1.69D-02

 Cycle   6  Pass 0  IDiag  1:
 RMSU=  3.84D-05    CP:  9.70D-01  7.81D-01  7.45D-01  6.72D-01  5.29D-01
 E= -1690.47304174766     Delta-E=       -0.002491281124 Rises=F Damp=F
 DIIS: error= 5.18D-04 at cycle   6 NSaved=   6.
 NSaved= 6 IEnMin= 6 EnMin= -1690.47304174766     IErMin= 6 ErrMin= 5.18D-04
 ErrMax= 5.18D-04 EMaxC= 1.00D-01 BMatC= 2.06D-04 BMatP= 2.43D-03
 IDIUse=3 WtCom= 9.95D-01 WtEn= 5.18D-03
 Coeff-Com:  0.300D-04-0.222D-02 0.436D-01 0.144D+00 0.287D+00 0.527D+00
 Coeff-En:   0.000D+00 0.000D+00 0.000D+00 0.000D+00 0.237D-01 0.976D+00
 Coeff:      0.299D-04-0.221D-02 0.434D-01 0.144D+00 0.285D+00 0.530D+00
 Gap=     0.169 Goal=   None    Shift=    0.000
 RMSDP=3.17D-05 MaxDP=1.95D-03 DE=-2.49D-03 OVMax= 3.94D-03

 Cycle   7  Pass 0  IDiag  1:
 RMSU=  1.45D-05    CP:  9.70D-01  7.82D-01  7.46D-01  6.66D-01  5.80D-01
                    CP:  6.05D-01
 E= -1690.47323953230     Delta-E=       -0.000197784636 Rises=F Damp=F
 DIIS: error= 1.27D-04 at cycle   7 NSaved=   7.
 NSaved= 7 IEnMin= 7 EnMin= -1690.47323953230     IErMin= 7 ErrMin= 1.27D-04
 ErrMax= 1.27D-04 EMaxC= 1.00D-01 BMatC= 1.95D-05 BMatP= 2.06D-04
 IDIUse=3 WtCom= 9.99D-01 WtEn= 1.27D-03
 Coeff-Com: -0.685D-04-0.395D-02 0.106D-01 0.448D-01 0.110D+00 0.300D+00
 Coeff-Com:  0.538D+00
 Coeff-En:   0.000D+00 0.000D+00 0.000D+00 0.000D+00 0.000D+00 0.287D-01
 Coeff-En:   0.971D+00
 Coeff:     -0.684D-04-0.394D-02 0.106D-01 0.447D-01 0.110D+00 0.300D+00
 Coeff:      0.539D+00
 Gap=     0.169 Goal=   None    Shift=    0.000
 RMSDP=9.55D-06 MaxDP=5.08D-04 DE=-1.98D-04 OVMax= 1.08D-03

 Initial convergence to 1.0D-05 achieved.  Increase integral accuracy.
 Cycle   8  Pass 1  IDiag  1:
 E= -1690.47331198673     Delta-E=       -0.000072454436 Rises=F Damp=F
 DIIS: error= 1.67D-04 at cycle   1 NSaved=   1.
 NSaved= 1 IEnMin= 1 EnMin= -1690.47331198673     IErMin= 1 ErrMin= 1.67D-04
 ErrMax= 1.67D-04 EMaxC= 1.00D-01 BMatC= 1.15D-05 BMatP= 1.15D-05
 IDIUse=3 WtCom= 9.98D-01 WtEn= 1.67D-03
 Coeff-Com:  0.100D+01
 Coeff-En:   0.100D+01
 Coeff:      0.100D+01
 Gap=     0.169 Goal=   None    Shift=    0.000
 RMSDP=9.55D-06 MaxDP=5.08D-04 DE=-7.25D-05 OVMax= 9.13D-04

 Cycle   9  Pass 1  IDiag  1:
 RMSU=  8.44D-05    CP:  1.00D+00
 E= -1690.47331728221     Delta-E=       -0.000005295473 Rises=F Damp=F
 DIIS: error= 7.32D-05 at cycle   2 NSaved=   2.
 NSaved= 2 IEnMin= 2 EnMin= -1690.47331728221     IErMin= 2 ErrMin= 7.32D-05
 ErrMax= 7.32D-05 EMaxC= 1.00D-01 BMatC= 6.43D-06 BMatP= 1.15D-05
 IDIUse=1 WtCom= 1.00D+00 WtEn= 0.00D+00
 Coeff-Com:  0.394D+00 0.606D+00
 Coeff:      0.394D+00 0.606D+00
 Gap=     0.169 Goal=   None    Shift=    0.000
 RMSDP=8.19D-06 MaxDP=5.01D-04 DE=-5.30D-06 OVMax= 1.21D-03

 Cycle  10  Pass 1  IDiag  1:
 RMSU=  5.79D-06    CP:  1.00D+00  1.00D+00
 E= -1690.47331833805     Delta-E=       -0.000001055842 Rises=F Damp=F
 DIIS: error= 5.95D-05 at cycle   3 NSaved=   3.
 NSaved= 3 IEnMin= 3 EnMin= -1690.47331833805     IErMin= 3 ErrMin= 5.95D-05
 ErrMax= 5.95D-05 EMaxC= 1.00D-01 BMatC= 5.35D-06 BMatP= 6.43D-06
 IDIUse=1 WtCom= 1.00D+00 WtEn= 0.00D+00
 Coeff-Com:  0.321D-02 0.476D+00 0.521D+00
 Coeff:      0.321D-02 0.476D+00 0.521D+00
 Gap=     0.169 Goal=   None    Shift=    0.000
 RMSDP=4.19D-06 MaxDP=2.91D-04 DE=-1.06D-06 OVMax= 6.21D-04

 Cycle  11  Pass 1  IDiag  1:
 RMSU=  7.92D-07    CP:  1.00D+00  1.01D+00  5.17D-01
 E= -1690.47332320102     Delta-E=       -0.000004862969 Rises=F Damp=F
 DIIS: error= 1.05D-05 at cycle   4 NSaved=   4.
 NSaved= 4 IEnMin= 4 EnMin= -1690.47332320102     IErMin= 4 ErrMin= 1.05D-05
 ErrMax= 1.05D-05 EMaxC= 1.00D-01 BMatC= 1.45D-07 BMatP= 5.35D-06
 IDIUse=1 WtCom= 1.00D+00 WtEn= 0.00D+00
 Coeff-Com: -0.374D-02 0.307D+00 0.346D+00 0.350D+00
 Coeff:     -0.374D-02 0.307D+00 0.346D+00 0.350D+00
 Gap=     0.169 Goal=   None    Shift=    0.000
 RMSDP=7.19D-07 MaxDP=4.64D-05 DE=-4.86D-06 OVMax= 7.57D-05

 Cycle  12  Pass 1  IDiag  1:
 RMSU=  2.13D-07    CP:  1.00D+00  1.01D+00  5.28D-01  4.23D-01
 E= -1690.47332333486     Delta-E=       -0.000000133839 Rises=F Damp=F
 DIIS: error= 1.45D-06 at cycle   5 NSaved=   5.
 NSaved= 5 IEnMin= 5 EnMin= -1690.47332333486     IErMin= 5 ErrMin= 1.45D-06
 ErrMax= 1.45D-06 EMaxC= 1.00D-01 BMatC= 3.49D-09 BMatP= 1.45D-07
 IDIUse=1 WtCom= 1.00D+00 WtEn= 0.00D+00
 Coeff-Com: -0.237D-02 0.162D+00 0.183D+00 0.210D+00 0.448D+00
 Coeff:     -0.237D-02 0.162D+00 0.183D+00 0.210D+00 0.448D+00
 Gap=     0.169 Goal=   None    Shift=    0.000
 RMSDP=1.37D-07 MaxDP=7.71D-06 DE=-1.34D-07 OVMax= 1.55D-05

 Cycle  13  Pass 1  IDiag  1:
 RMSU=  7.29D-08    CP:  1.00D+00  1.01D+00  5.28D-01  4.45D-01  7.10D-01
 E= -1690.47332333815     Delta-E=       -0.000000003291 Rises=F Damp=F
 DIIS: error= 5.84D-07 at cycle   6 NSaved=   6.
 NSaved= 6 IEnMin= 6 EnMin= -1690.47332333815     IErMin= 6 ErrMin= 5.84D-07
 ErrMax= 5.84D-07 EMaxC= 1.00D-01 BMatC= 2.61D-10 BMatP= 3.49D-09
 IDIUse=1 WtCom= 1.00D+00 WtEn= 0.00D+00
 Coeff-Com: -0.891D-03 0.552D-01 0.624D-01 0.765D-01 0.253D+00 0.554D+00
 Coeff:     -0.891D-03 0.552D-01 0.624D-01 0.765D-01 0.253D+00 0.554D+00
 Gap=     0.169 Goal=   None    Shift=    0.000
 RMSDP=3.90D-08 MaxDP=2.07D-06 DE=-3.29D-09 OVMax= 5.08D-06

 Cycle  14  Pass 1  IDiag  1:
 RMSU=  2.12D-08    CP:  1.00D+00  1.01D+00  5.28D-01  4.49D-01  7.48D-01
                    CP:  7.92D-01
 E= -1690.47332333837     Delta-E=       -0.000000000227 Rises=F Damp=F
 DIIS: error= 2.42D-07 at cycle   7 NSaved=   7.
 NSaved= 7 IEnMin= 7 EnMin= -1690.47332333837     IErMin= 7 ErrMin= 2.42D-07
 ErrMax= 2.42D-07 EMaxC= 1.00D-01 BMatC= 3.76D-11 BMatP= 2.61D-10
 IDIUse=1 WtCom= 1.00D+00 WtEn= 0.00D+00
 Coeff-Com: -0.210D-03 0.108D-01 0.122D-01 0.169D-01 0.896D-01 0.326D+00
 Coeff-Com:  0.545D+00
 Coeff:     -0.210D-03 0.108D-01 0.122D-01 0.169D-01 0.896D-01 0.326D+00
 Coeff:      0.545D+00
 Gap=     0.169 Goal=   None    Shift=    0.000
 RMSDP=1.60D-08 MaxDP=8.08D-07 DE=-2.27D-10 OVMax= 1.73D-06

 Cycle  15  Pass 1  IDiag  1:
 RMSU=  7.73D-09    CP:  1.00D+00  1.01D+00  5.28D-01  4.49D-01  7.59D-01
                    CP:  8.36D-01  6.64D-01
 E= -1690.47332333839     Delta-E=       -0.000000000015 Rises=F Damp=F
 DIIS: error= 8.61D-08 at cycle   8 NSaved=   8.
 NSaved= 8 IEnMin= 8 EnMin= -1690.47332333839     IErMin= 8 ErrMin= 8.61D-08
 ErrMax= 8.61D-08 EMaxC= 1.00D-01 BMatC= 5.86D-12 BMatP= 3.76D-11
 IDIUse=1 WtCom= 1.00D+00 WtEn= 0.00D+00
 Coeff-Com:  0.340D-04-0.333D-02-0.386D-02-0.349D-02 0.912D-02 0.996D-01
 Coeff-Com:  0.327D+00 0.575D+00
 Coeff:      0.340D-04-0.333D-02-0.386D-02-0.349D-02 0.912D-02 0.996D-01
 Coeff:      0.327D+00 0.575D+00
 Gap=     0.169 Goal=   None    Shift=    0.000
 RMSDP=6.01D-09 MaxDP=2.67D-07 DE=-1.55D-11 OVMax= 6.91D-07

 SCF Done:  E(RB3LYP) =  -1690.47332334     A.U. after   15 cycles
             Convg  =    0.6008D-08             -V/T =  2.0057
 KE= 1.680905368867D+03 PE=-9.752641138906D+03 EE= 3.479978538546D+03
 Leave Link  502 at Sat Sep 10 10:01:27 2022, MaxMem=  209715200 cpu:    5455.9
 (Enter /opt/gaussian/l601.exe)
 Copying SCF densities to generalized density rwf, IOpCl= 0 IROHF=0.

 **********************************************************************

            Population analysis using the SCF density.

 **********************************************************************

 Orbital symmetries:
       Occupied  (A) (A) (A) (A) (A) (A) (A) (A) (A) (A) (A) (A)
                 (A) (A) (A) (A) (A) (A) (A) (A) (A) (A) (A) (A)
                 (A) (A) (A) (A) (A) (A) (A) (A) (A) (A) (A) (A)
                 (A) (A) (A) (A) (A) (A) (A) (A) (A) (A) (A) (A)
                 (A) (A) (A) (A) (A) (A) (A) (A) (A) (A) (A) (A)
                 (A) (A) (A) (A) (A) (A) (A) (A) (A) (A) (A) (A)
                 (A) (A) (A) (A) (A) (A) (A) (A) (A) (A) (A) (A)
                 (A) (A) (A) (A) (A) (A) (A) (A) (A) (A) (A) (A)
                 (A) (A) (A) (A) (A) (A) (A) (A) (A) (A) (A) (A)
                 (A) (A) (A) (A)
       Virtual   (A) (A) (A) (A) (A) (A) (A) (A) (A) (A) (A) (A)
                 (A) (A) (A) (A) (A) (A) (A) (A) (A) (A) (A) (A)
                 (A) (A) (A) (A) (A) (A) (A) (A) (A) (A) (A) (A)
                 (A) (A) (A) (A) (A) (A) (A) (A) (A) (A) (A) (A)
                 (A) (A) (A) (A) (A) (A) (A) (A) (A) (A) (A) (A)
                 (A) (A) (A) (A) (A) (A) (A) (A) (A) (A) (A) (A)
                 (A) (A) (A) (A) (A) (A) (A) (A) (A) (A) (A) (A)
                 (A) (A) (A) (A) (A) (A) (A) (A) (A) (A) (A) (A)
                 (A) (A) (A) (A) (A) (A) (A) (A) (A) (A) (A) (A)
                 (A) (A) (A) (A) (A) (A) (A) (A) (A) (A) (A) (A)
                 (A) (A) (A) (A) (A) (A) (A) (A) (A) (A) (A) (A)
                 (A) (A) (A) (A) (A) (A) (A) (A) (A) (A) (A) (A)
                 (A) (A) (A) (A) (A) (A) (A) (A) (A) (A) (A) (A)
                 (A) (A) (A) (A) (A) (A) (A) (A) (A) (A) (A) (A)
                 (A) (A) (A) (A) (A) (A) (A) (A) (A) (A) (A) (A)
                 (A) (A) (A) (A) (A) (A) (A) (A) (A) (A) (A) (A)
                 (A) (A) (A) (A) (A) (A) (A) (A) (A) (A) (A) (A)
                 (A) (A) (A) (A) (A) (A) (A) (A) (A) (A) (A) (A)
                 (A) (A) (A) (A) (A) (A) (A) (A) (A) (A) (A) (A)
                 (A) (A) (A) (A) (A) (A) (A) (A) (A) (A) (A) (A)
                 (A) (A) (A) (A) (A) (A) (A) (A) (A) (A) (A) (A)
                 (A) (A) (A) (A) (A) (A) (A) (A) (A) (A) (A) (A)
                 (A) (A) (A) (A) (A) (A) (A) (A) (A) (A) (A) (A)
                 (A) (A) (A) (A) (A) (A) (A) (A) (A) (A) (A) (A)
                 (A) (A) (A) (A) (A) (A) (A) (A) (A) (A) (A) (A)
                 (A) (A) (A) (A) (A) (A) (A) (A) (A) (A) (A) (A)
                 (A) (A) (A) (A) (A) (A) (A) (A) (A) (A) (A) (A)
                 (A) (A) (A) (A) (A) (A) (A) (A) (A) (A) (A) (A)
                 (A) (A) (A) (A) (A) (A) (A) (A) (A) (A) (A) (A)
                 (A) (A) (A) (A) (A) (A) (A) (A) (A) (A) (A) (A)
                 (A) (A) (A) (A) (A) (A) (A) (A) (A) (A) (A) (A)
                 (A) (A) (A) (A) (A) (A) (A) (A) (A) (A) (A) (A)
                 (A) (A) (A) (A) (A) (A) (A) (A) (A) (A) (A) (A)
                 (A) (A) (A) (A) (A) (A) (A) (A) (A) (A) (A) (A)
                 (A) (A) (A) (A) (A) (A) (A) (A) (A) (A) (A) (A)
                 (A) (A) (A) (A) (A) (A)
 The electronic state is 1-A.
 Alpha  occ. eigenvalues --  -88.92148 -19.11930 -14.40497 -14.39833 -14.38321
 Alpha  occ. eigenvalues --  -14.38057 -14.34122 -14.31110 -10.30092 -10.25313
 Alpha  occ. eigenvalues --  -10.25229 -10.24978 -10.24279 -10.23282 -10.22878
 Alpha  occ. eigenvalues --  -10.22679 -10.22453 -10.21743 -10.21649 -10.20916
 Alpha  occ. eigenvalues --  -10.20742 -10.20417 -10.19646 -10.19578 -10.19524
 Alpha  occ. eigenvalues --  -10.19306 -10.19295 -10.19204 -10.18816 -10.18658
 Alpha  occ. eigenvalues --  -10.18268  -7.98352  -5.94672  -5.94293  -5.93994
 Alpha  occ. eigenvalues --   -1.08730  -1.05137  -1.02500  -0.95813  -0.91730
 Alpha  occ. eigenvalues --   -0.89669  -0.89460  -0.85726  -0.85350  -0.78816
 Alpha  occ. eigenvalues --   -0.77613  -0.76810  -0.76104  -0.75188  -0.74540
 Alpha  occ. eigenvalues --   -0.74304  -0.73630  -0.71317  -0.69617  -0.64816
 Alpha  occ. eigenvalues --   -0.64167  -0.61778  -0.61500  -0.59983  -0.58587
 Alpha  occ. eigenvalues --   -0.57900  -0.57590  -0.56507  -0.55194  -0.54194
 Alpha  occ. eigenvalues --   -0.52808  -0.52153  -0.51865  -0.51005  -0.50554
 Alpha  occ. eigenvalues --   -0.48408  -0.47664  -0.47192  -0.46060  -0.45882
 Alpha  occ. eigenvalues --   -0.45165  -0.44571  -0.44455  -0.43907  -0.43546
 Alpha  occ. eigenvalues --   -0.42810  -0.42471  -0.42289  -0.41878  -0.41481
 Alpha  occ. eigenvalues --   -0.41313  -0.41028  -0.40690  -0.39319  -0.38634
 Alpha  occ. eigenvalues --   -0.38331  -0.37108  -0.36867  -0.36567  -0.35989
 Alpha  occ. eigenvalues --   -0.35616  -0.34916  -0.34518  -0.32388  -0.30642
 Alpha  occ. eigenvalues --   -0.30317  -0.27602  -0.27321  -0.27013  -0.26487
 Alpha  occ. eigenvalues --   -0.25982  -0.25405  -0.25110  -0.24844  -0.24251
 Alpha  occ. eigenvalues --   -0.22697  -0.20480
 Alpha virt. eigenvalues --   -0.03541  -0.03449  -0.03007  -0.00922   0.00921
 Alpha virt. eigenvalues --    0.01610   0.02341   0.02424   0.03005   0.04218
 Alpha virt. eigenvalues --    0.04399   0.04997   0.06555   0.07103   0.07172
 Alpha virt. eigenvalues --    0.07920   0.08215   0.08409   0.09613   0.09833
 Alpha virt. eigenvalues --    0.10045   0.10775   0.11322   0.11704   0.12064
 Alpha virt. eigenvalues --    0.12417   0.12883   0.13437   0.13763   0.14633
 Alpha virt. eigenvalues --    0.15409   0.15864   0.16466   0.16733   0.17594
 Alpha virt. eigenvalues --    0.18020   0.18880   0.19970   0.20901   0.21627
 Alpha virt. eigenvalues --    0.22497   0.23437   0.24825   0.24955   0.25507
 Alpha virt. eigenvalues --    0.26499   0.26956   0.27490   0.27880   0.28291
 Alpha virt. eigenvalues --    0.29336   0.30420   0.30879   0.31421   0.32081
 Alpha virt. eigenvalues --    0.33880   0.34646   0.35171   0.36277   0.36664
 Alpha virt. eigenvalues --    0.37575   0.38177   0.38458   0.39374   0.40370
 Alpha virt. eigenvalues --    0.40687   0.41198   0.42555   0.43011   0.43286
 Alpha virt. eigenvalues --    0.44348   0.44854   0.45479   0.45906   0.46156
 Alpha virt. eigenvalues --    0.46212   0.46500   0.46638   0.47165   0.47229
 Alpha virt. eigenvalues --    0.47594   0.48136   0.48268   0.48750   0.49412
 Alpha virt. eigenvalues --    0.49697   0.49925   0.50224   0.50676   0.51060
 Alpha virt. eigenvalues --    0.51122   0.51660   0.51836   0.52332   0.52820
 Alpha virt. eigenvalues --    0.53204   0.53490   0.53767   0.54652   0.54772
 Alpha virt. eigenvalues --    0.55380   0.55629   0.56262   0.56419   0.56716
 Alpha virt. eigenvalues --    0.57112   0.58227   0.58792   0.58960   0.59363
 Alpha virt. eigenvalues --    0.59906   0.60139   0.60511   0.60912   0.60962
 Alpha virt. eigenvalues --    0.61534   0.61636   0.62118   0.62411   0.62730
 Alpha virt. eigenvalues --    0.63834   0.64028   0.64439   0.64728   0.65154
 Alpha virt. eigenvalues --    0.65969   0.65997   0.66372   0.67161   0.67455
 Alpha virt. eigenvalues --    0.67819   0.68462   0.68889   0.69458   0.70263
 Alpha virt. eigenvalues --    0.70459   0.70953   0.71465   0.71960   0.72488
 Alpha virt. eigenvalues --    0.73154   0.73535   0.74043   0.74626   0.75894
 Alpha virt. eigenvalues --    0.76315   0.77138   0.77860   0.78683   0.79802
 Alpha virt. eigenvalues --    0.80633   0.81576   0.83017   0.83667   0.84300
 Alpha virt. eigenvalues --    0.84431   0.84933   0.86183   0.86416   0.87139
 Alpha virt. eigenvalues --    0.87549   0.87918   0.88370   0.89356   0.89921
 Alpha virt. eigenvalues --    0.90282   0.90402   0.90797   0.91247   0.92325
 Alpha virt. eigenvalues --    0.93465   0.94004   0.95043   0.95401   0.95899
 Alpha virt. eigenvalues --    0.96526   0.97492   0.98325   0.99075   0.99260
 Alpha virt. eigenvalues --    0.99707   1.00447   1.00779   1.01009   1.01268
 Alpha virt. eigenvalues --    1.01607   1.02042   1.02669   1.03432   1.03680
 Alpha virt. eigenvalues --    1.04509   1.05214   1.05816   1.06867   1.07068
 Alpha virt. eigenvalues --    1.07235   1.07360   1.07881   1.09292   1.09588
 Alpha virt. eigenvalues --    1.09812   1.10137   1.10915   1.11592   1.12178
 Alpha virt. eigenvalues --    1.13449   1.14984   1.16750   1.16814   1.17661
 Alpha virt. eigenvalues --    1.17938   1.18527   1.20257   1.20772   1.21832
 Alpha virt. eigenvalues --    1.23421   1.23815   1.24658   1.25628   1.26352
 Alpha virt. eigenvalues --    1.27194   1.29670   1.30168   1.31215   1.31879
 Alpha virt. eigenvalues --    1.33179   1.33416   1.33836   1.34283   1.34767
 Alpha virt. eigenvalues --    1.35602   1.36903   1.37475   1.39394   1.39767
 Alpha virt. eigenvalues --    1.41020   1.43142   1.43280   1.43505   1.43946
 Alpha virt. eigenvalues --    1.45526   1.46213   1.46780   1.47766   1.49427
 Alpha virt. eigenvalues --    1.49821   1.50909   1.51260   1.51774   1.52856
 Alpha virt. eigenvalues --    1.53399   1.54165   1.54288   1.55297   1.55939
 Alpha virt. eigenvalues --    1.56342   1.56690   1.57172   1.57606   1.57679
 Alpha virt. eigenvalues --    1.58247   1.58758   1.59249   1.59700   1.60073
 Alpha virt. eigenvalues --    1.60439   1.60661   1.61471   1.62231   1.62778
 Alpha virt. eigenvalues --    1.63746   1.63833   1.64770   1.65251   1.65528
 Alpha virt. eigenvalues --    1.65828   1.66282   1.67016   1.67404   1.68028
 Alpha virt. eigenvalues --    1.68693   1.68848   1.69230   1.69520   1.70350
 Alpha virt. eigenvalues --    1.70963   1.71115   1.71548   1.72463   1.73593
 Alpha virt. eigenvalues --    1.74279   1.75204   1.75371   1.75605   1.76391
 Alpha virt. eigenvalues --    1.76798   1.77436   1.77983   1.78370   1.78986
 Alpha virt. eigenvalues --    1.79334   1.79914   1.80383   1.80775   1.81476
 Alpha virt. eigenvalues --    1.82831   1.83157   1.83389   1.84424   1.84866
 Alpha virt. eigenvalues --    1.85110   1.85220   1.85802   1.87335   1.87688
 Alpha virt. eigenvalues --    1.89295   1.89443   1.89616   1.90963   1.91554
 Alpha virt. eigenvalues --    1.92170   1.92732   1.93035   1.94714   1.95043
 Alpha virt. eigenvalues --    1.96335   1.96864   1.97972   1.98372   1.99013
 Alpha virt. eigenvalues --    1.99248   1.99577   1.99793   2.00225   2.00927
 Alpha virt. eigenvalues --    2.01670   2.02962   2.03934   2.04421   2.05047
 Alpha virt. eigenvalues --    2.06340   2.06604   2.09317   2.10528   2.10681
 Alpha virt. eigenvalues --    2.12102   2.12671   2.13034   2.13742   2.15041
 Alpha virt. eigenvalues --    2.16363   2.16520   2.17823   2.19323   2.20678
 Alpha virt. eigenvalues --    2.21511   2.23113   2.24279   2.25392   2.26836
 Alpha virt. eigenvalues --    2.28030   2.29632   2.30105   2.31593   2.32895
 Alpha virt. eigenvalues --    2.34249   2.34962   2.36233   2.36721   2.37539
 Alpha virt. eigenvalues --    2.37628   2.38840   2.39148   2.40437   2.41198
 Alpha virt. eigenvalues --    2.43158   2.44128   2.44299   2.44726   2.45489
 Alpha virt. eigenvalues --    2.46133   2.46991   2.48047   2.48582   2.49508
 Alpha virt. eigenvalues --    2.50692   2.52709   2.53744   2.54911   2.57053
 Alpha virt. eigenvalues --    2.58650   2.59279   2.59566   2.60888   2.63344
 Alpha virt. eigenvalues --    2.63511   2.64016   2.67893   2.69404   2.70104
 Alpha virt. eigenvalues --    2.70768   2.71288   2.72237   2.74384   2.75292
 Alpha virt. eigenvalues --    2.77965   2.79462   2.80246   2.82115   2.87342
 Alpha virt. eigenvalues --    2.88057   2.92667   2.94660   2.96766   2.98520
 Alpha virt. eigenvalues --    3.01497   3.04933   3.07592   3.08248   3.10141
 Alpha virt. eigenvalues --    3.15233   3.17581   3.41647   3.49446   3.53591
 Alpha virt. eigenvalues --    3.54378
          Condensed to atoms (all electrons):
 Mulliken atomic charges:
              1
     1  C    0.080060
     2  N   -0.161408
     3  C    0.137361
     4  N   -0.222674
     5  C    0.089366
     6  C    0.017265
     7  C    0.017448
     8  C    0.042677
     9  C    0.088002
    10  C    0.096107
    11  C    0.023618
    12  C   -0.018611
    13  N   -0.284293
    14  C    0.156071
    15  C   -0.040413
    16  C    0.046791
    17  C   -0.098399
    18  S    0.159473
    19  C   -0.145480
    20  C    0.137181
    21  O   -0.246255
    22  C    0.129928
    23  N   -0.227785
    24  N   -0.063948
    25  N   -0.183751
    26  C    0.010371
    27  C    0.042962
    28  C    0.037333
    29  C    0.037994
    30  C    0.038807
    31  C    0.209132
    32  H    0.048125
    33  H    0.047746
    34  H    0.040481
    35  H    0.002003
    36  H   -0.011501
    37  H   -0.031253
    38  H   -0.017379
    39  H   -0.032271
    40  H   -0.055469
    41  H    0.026676
    42  H    0.052331
    43  H   -0.006872
    44  H    0.017826
    45  H    0.006057
    46  H    0.049861
    47  H    0.068662
    48  H   -0.024729
    49  H   -0.029301
    50  H   -0.026888
    51  H   -0.029035
 Sum of Mulliken atomic charges =   0.00000
 Mulliken charges with hydrogens summed into heavy atoms:
              1
     1  C    0.216412
     2  N   -0.161408
     3  C    0.139364
     4  N   -0.222674
     5  C    0.089366
     6  C    0.005764
     7  C    0.017448
     8  C    0.011424
     9  C    0.070623
    10  C    0.096107
    11  C   -0.008653
    12  C   -0.074080
    13  N   -0.284293
    14  C    0.235078
    15  C   -0.040413
    16  C    0.039919
    17  C   -0.080573
    18  S    0.159473
    19  C   -0.139423
    20  C    0.137181
    21  O   -0.246255
    22  C    0.248451
    23  N   -0.227785
    24  N   -0.063948
    25  N   -0.183751
    26  C    0.010371
    27  C    0.018233
    28  C    0.008031
    29  C    0.011107
    30  C    0.009773
    31  C    0.209132
 Sum of Mulliken charges with hydrogens summed into heavy atoms =   0.00000
 Electronic spatial extent (au):  <R**2>=          20175.3217
 Charge=              0.0000 electrons
 Dipole moment (field-independent basis, Debye):
    X=             -7.0750    Y=              5.4398    Z=              3.0615  Tot=              9.4351
 Quadrupole moment (field-independent basis, Debye-Ang):
   XX=           -140.0603   YY=           -183.6777   ZZ=           -183.3487
   XY=              4.6932   XZ=              3.5815   YZ=             -6.6867
 Traceless Quadrupole moment (field-independent basis, Debye-Ang):
   XX=             28.9686   YY=            -14.6488   ZZ=            -14.3198
   XY=              4.6932   XZ=              3.5815   YZ=             -6.6867
 Octapole moment (field-independent basis, Debye-Ang**2):
  XXX=           -706.9352  YYY=              3.4212  ZZZ=             31.8991  XYY=             12.0512
  XXY=            -17.6959  XXZ=            146.3990  XZZ=             -9.8453  YZZ=             30.2190
  YYZ=             14.3419  XYZ=            -39.5903
 Hexadecapole moment (field-independent basis, Debye-Ang**3):
 XXXX=         -14599.0577 YYYY=          -6355.7916 ZZZZ=          -1333.3932 XXXY=            400.1855
 XXXZ=           -291.3941 YYYX=             32.2036 YYYZ=             -7.0169 ZZZX=             89.2431
 ZZZY=            -34.0790 XXYY=          -4099.5161 XXZZ=          -3702.0005 YYZZ=          -1178.9650
 XXYZ=           -232.3118 YYXZ=             60.4251 ZZXY=             66.9670
 N-N= 2.901283908154D+03 E-N=-9.752641127842D+03  KE= 1.680905368867D+03
 No NMR shielding tensors so no spin-rotation constants.
 Leave Link  601 at Sat Sep 10 10:01:28 2022, MaxMem=  209715200 cpu:       3.8
 (Enter /opt/gaussian/l602.exe)
 Breneman (CHELPG) radii used.
 Read replacement radii for each type of atom:
 Rad(35) =   1.900000000000D+00
 Atom Element Radius
    1     6    1.50
    2     7    1.70
    3     6    1.50
    4     7    1.70
    5     6    1.50
    6     6    1.50
    7     6    1.50
    8     6    1.50
    9     6    1.50
   10     6    1.50
   11     6    1.50
   12     6    1.50
   13     7    1.70
   14     6    1.50
   15     6    1.50
   16     6    1.50
   17     6    1.50
   18    16    2.00
   19     6    1.50
   20     6    1.50
   21     8    1.70
   22     6    1.50
   23     7    1.70
   24     7    1.70
   25     7    1.70
   26     6    1.50
   27     6    1.50
   28     6    1.50
   29     6    1.50
   30     6    1.50
   31     6    1.50
   32     1    1.45
   33     1    1.45
   34     1    1.45
   35     1    1.45
   36     1    1.45
   37     1    1.45
   38     1    1.45
   39     1    1.45
   40     1    1.45
   41     1    1.45
   42     1    1.45
   43     1    1.45
   44     1    1.45
   45     1    1.45
   46     1    1.45
   47     1    1.45
   48     1    1.45
   49     1    1.45
   50     1    1.45
   51     1    1.45
 Generate Potential Derived Charges using the Breneman model, NDens= 1.
 Grid spacing= 0.300 Box extension= 2.800
 NStep X,Y,Z=   74     51     39   Total possible points=      147186
 Number of Points to Fit=   28611

 **********************************************************************

            Electrostatic Properties Using The SCF Density

 **********************************************************************

       Atomic Center    1 is at  -8.830640 -0.602650  0.800121
       Atomic Center    2 is at  -7.474490 -0.943650  0.412191
       Atomic Center    3 is at  -7.030380 -2.154590 -0.046759
       Atomic Center    4 is at  -5.743380 -2.146440 -0.314679
       Atomic Center    5 is at  -5.309140 -0.866440 -0.019479
       Atomic Center    6 is at  -6.377620 -0.108660  0.433651
       Atomic Center    7 is at  -3.903840 -0.477540 -0.198689
       Atomic Center    8 is at  -2.969190 -1.413000 -0.678089
       Atomic Center    9 is at  -1.631110 -1.076740 -0.864569
       Atomic Center   10 is at  -1.177410  0.219330 -0.569699
       Atomic Center   11 is at  -2.101370  1.159940 -0.086209
       Atomic Center   12 is at  -3.441090  0.816460  0.090871
       Atomic Center   13 is at   0.191550  0.603400 -0.791429
       Atomic Center   14 is at   0.450930  1.937250 -1.358909
       Atomic Center   15 is at   1.061460  2.941680 -0.401649
       Atomic Center   16 is at   0.828400  2.973710  1.015201
       Atomic Center   17 is at   1.468800  4.011510  1.639981
       Atomic Center   18 is at   2.372950  4.977560  0.516151
       Atomic Center   19 is at   1.886730  3.963850 -0.806809
       Atomic Center   20 is at   1.224410 -0.268770 -0.478569
       Atomic Center   21 is at   1.052080 -1.359480  0.037321
       Atomic Center   22 is at   2.650520  0.222650 -0.791739
       Atomic Center   23 is at   3.614450 -0.851850 -0.779409
       Atomic Center   24 is at   4.239280 -1.182310 -1.952039
       Atomic Center   25 is at   5.106750 -2.109380 -1.732549
       Atomic Center   26 is at   5.082900 -2.417900 -0.386369
       Atomic Center   27 is at   5.842210 -3.341870  0.354021
       Atomic Center   28 is at   5.602130 -3.418490  1.718181
       Atomic Center   29 is at   4.622220 -2.602900  2.340931
       Atomic Center   30 is at   3.857700 -1.691350  1.624771
       Atomic Center   31 is at   4.112400 -1.610250  0.245281
       Atomic Center   32 is at  -8.872860 -0.300520  1.858461
       Atomic Center   33 is at  -9.221360  0.219420  0.179931
       Atomic Center   34 is at  -9.473690 -1.482080  0.660991
       Atomic Center   35 is at  -7.701030 -3.004600 -0.162309
       Atomic Center   36 is at  -6.459760  0.923010  0.761961
       Atomic Center   37 is at  -3.317350 -2.419620 -0.911199
       Atomic Center   38 is at  -0.933500 -1.825760 -1.232129
       Atomic Center   39 is at  -1.780990  2.172520  0.163761
       Atomic Center   40 is at  -4.129170  1.575860  0.468771
       Atomic Center   41 is at   1.088110  1.845920 -2.252739
       Atomic Center   42 is at  -0.516670  2.307520 -1.723389
       Atomic Center   43 is at   0.219390  2.241670  1.545451
       Atomic Center   44 is at   1.466350  4.263340  2.698531
       Atomic Center   45 is at   2.239230  4.179960 -1.814009
       Atomic Center   46 is at   2.723940  0.667750 -1.791999
       Atomic Center   47 is at   2.935450  0.998200 -0.062189
       Atomic Center   48 is at   6.588050 -3.965970 -0.140529
       Atomic Center   49 is at   6.169850 -4.122860  2.329721
       Atomic Center   50 is at   4.457050 -2.704610  3.415951
       Atomic Center   51 is at   3.081860 -1.094040  2.102641
   28611 points will be used for fitting atomic charges
 Fitting point charges to electrostatic potential
 Charges from ESP fit, RMS=   0.00407 RRMS=   0.21177:
 Charge=   0.00000 Dipole=    -6.9151     5.5822     2.9791 Tot=     9.3731
              1
     1  C   -0.064736
     2  N    0.105677
     3  C    0.094384
     4  N   -0.474280
     5  C    0.324571
     6  C   -0.360209
     7  C   -0.066416
     8  C    0.052099
     9  C   -0.239087
    10  C    0.219921
    11  C   -0.086145
    12  C   -0.146711
    13  N   -0.316119
    14  C    0.039589
    15  C    0.127377
    16  C   -0.093153
    17  C   -0.198571
    18  S    0.037332
    19  C   -0.259325
    20  C    0.572066
    21  O   -0.501670
    22  C   -0.055851
    23  N    0.310580
    24  N   -0.221567
    25  N   -0.354576
    26  C    0.431459
    27  C   -0.278163
    28  C   -0.036322
    29  C   -0.118679
    30  C   -0.124093
    31  C   -0.091829
    32  H    0.064530
    33  H    0.061932
    34  H    0.051405
    35  H    0.102504
    36  H    0.182491
    37  H    0.046238
    38  H    0.145889
    39  H    0.075070
    40  H    0.086839
    41  H    0.073570
    42  H    0.014600
    43  H    0.077202
    44  H    0.174109
    45  H    0.176877
    46  H    0.004339
    47  H    0.019242
    48  H    0.129284
    49  H    0.081448
    50  H    0.093641
    51  H    0.111238
 Charges from ESP fit with hydrogens summed into heavy atoms:
              1
     1  C    0.113132
     2  N    0.105677
     3  C    0.196888
     4  N   -0.474280
     5  C    0.324571
     6  C   -0.177719
     7  C   -0.066416
     8  C    0.098338
     9  C   -0.093198
    10  C    0.219921
    11  C   -0.011074
    12  C   -0.059873
    13  N   -0.316119
    14  C    0.127758
    15  C    0.127377
    16  C   -0.015951
    17  C   -0.024463
    18  S    0.037332
    19  C   -0.082448
    20  C    0.572066
    21  O   -0.501670
    22  C   -0.032271
    23  N    0.310580
    24  N   -0.221567
    25  N   -0.354576
    26  C    0.431459
    27  C   -0.148879
    28  C    0.045126
    29  C   -0.025037
    30  C   -0.012855
    31  C   -0.091829
    32  H    0.000000
    33  H    0.000000
    34  H    0.000000
    35  H    0.000000
    36  H    0.000000
    37  H    0.000000
    38  H    0.000000
    39  H    0.000000
    40  H    0.000000
    41  H    0.000000
    42  H    0.000000
    43  H    0.000000
    44  H    0.000000
    45  H    0.000000
    46  H    0.000000
    47  H    0.000000
    48  H    0.000000
    49  H    0.000000
    50  H    0.000000
    51  H    0.000000
 -----------------------------------------------------------------

              Electrostatic Properties (Atomic Units)

 -----------------------------------------------------------------
    Center     Electric         -------- Electric Field --------
               Potential          X             Y             Z
 -----------------------------------------------------------------
    1 Atom    -14.684885
    2 Atom    -18.304799
    3 Atom    -14.700907
    4 Atom    -18.402558
    5 Atom    -14.735541
    6 Atom    -14.726750
    7 Atom    -14.750035
    8 Atom    -14.764600
    9 Atom    -14.760576
   10 Atom    -14.710818
   11 Atom    -14.751548
   12 Atom    -14.753756
   13 Atom    -18.321265
   14 Atom    -14.686549
   15 Atom    -14.730129
   16 Atom    -14.739057
   17 Atom    -14.718171
   18 Atom    -59.174978
   19 Atom    -14.720156
   20 Atom    -14.641782
   21 Atom    -22.370747
   22 Atom    -14.690091
   23 Atom    -18.299676
   24 Atom    -18.337222
   25 Atom    -18.375464
   26 Atom    -14.743809
   27 Atom    -14.754475
   28 Atom    -14.757677
   29 Atom    -14.753025
   30 Atom    -14.749792
   31 Atom    -14.721358
   32 Atom     -1.066339
   33 Atom     -1.066193
   34 Atom     -1.059029
   35 Atom     -1.063362
   36 Atom     -1.060943
   37 Atom     -1.110561
   38 Atom     -1.104583
   39 Atom     -1.085953
   40 Atom     -1.092646
   41 Atom     -1.073268
   42 Atom     -1.072104
   43 Atom     -1.070875
   44 Atom     -1.054604
   45 Atom     -1.052769
   46 Atom     -1.063274
   47 Atom     -1.065362
   48 Atom     -1.095285
   49 Atom     -1.101153
   50 Atom     -1.098671
   51 Atom     -1.090778
 -----------------------------------------------------------------
 Leave Link  602 at Sat Sep 10 10:01:43 2022, MaxMem=  209715200 cpu:     109.0
 (Enter /opt/gaussian/l9999.exe)
 1\1\GINC-LQCAPF-6\SP\RB3LYP\CC-pVDZ\C23H20N6O1S1\LQCAPF-6\10-Sep-2022\
 0\\#p b3lyp/cc-pvdz pop=(chelpg,readradii)\\Mol20.log\\0,1\C,0,-8.8306
 4,-0.60265,0.80012\N,0,-7.47449,-0.94365,0.41219\C,0,-7.03038,-2.15459
 ,-0.04676\N,0,-5.74338,-2.14644,-0.31468\C,0,-5.30914,-0.86644,-0.0194
 8\C,0,-6.37762,-0.10866,0.43365\C,0,-3.90384,-0.47754,-0.19869\C,0,-2.
 96919,-1.413,-0.67809\C,0,-1.63111,-1.07674,-0.86457\C,0,-1.17741,0.21
 933,-0.5697\C,0,-2.10137,1.15994,-0.08621\C,0,-3.44109,0.81646,0.09087
 \N,0,0.19155,0.6034,-0.79143\C,0,0.45093,1.93725,-1.35891\C,0,1.06146,
 2.94168,-0.40165\C,0,0.8284,2.97371,1.0152\C,0,1.4688,4.01151,1.63998\
 S,0,2.37295,4.97756,0.51615\C,0,1.88673,3.96385,-0.80681\C,0,1.22441,-
 0.26877,-0.47857\O,0,1.05208,-1.35948,0.03732\C,0,2.65052,0.22265,-0.7
 9174\N,0,3.61445,-0.85185,-0.77941\N,0,4.23928,-1.18231,-1.95204\N,0,5
 .10675,-2.10938,-1.73255\C,0,5.0829,-2.4179,-0.38637\C,0,5.84221,-3.34
 187,0.35402\C,0,5.60213,-3.41849,1.71818\C,0,4.62222,-2.6029,2.34093\C
 ,0,3.8577,-1.69135,1.62477\C,0,4.1124,-1.61025,0.24528\H,0,-8.87286,-0
 .30052,1.85846\H,0,-9.22136,0.21942,0.17993\H,0,-9.47369,-1.48208,0.66
 099\H,0,-7.70103,-3.0046,-0.16231\H,0,-6.45976,0.92301,0.76196\H,0,-3.
 31735,-2.41962,-0.9112\H,0,-0.9335,-1.82576,-1.23213\H,0,-1.78099,2.17
 252,0.16376\H,0,-4.12917,1.57586,0.46877\H,0,1.08811,1.84592,-2.25274\
 H,0,-0.51667,2.30752,-1.72339\H,0,0.21939,2.24167,1.54545\H,0,1.46635,
 4.26334,2.69853\H,0,2.23923,4.17996,-1.81401\H,0,2.72394,0.66775,-1.79
 2\H,0,2.93545,0.9982,-0.06219\H,0,6.58805,-3.96597,-0.14053\H,0,6.1698
 5,-4.12286,2.32972\H,0,4.45705,-2.70461,3.41595\H,0,3.08186,-1.09404,2
 .10264\\Version=EM64L-G09RevC.01\State=1-A\HF=-1690.4733233\RMSD=6.008
 e-09\Dipole=-2.7835227,2.1401963,1.2044842\Quadrupole=21.537438,-10.89
 09986,-10.6464394,3.4892831,2.6627396,-4.9713803\PG=C01 [X(C23H20N6O1S
 1)]\\@


 A MAN IS EXACTLY AS GREAT AS THE TIDE SURGING
 BENEATH HIM.      - BISMARCK
 Job cpu time:  0 days  1 hours 33 minutes 23.7 seconds.
 File lengths (MBytes):  RWF=    160 Int=      0 D2E=      0 Chk=     11 Scr=      1
 Normal termination of Gaussian 09 at Sat Sep 10 10:01:43 2022.
