 Entering Gaussian System, Link 0=g09
 Input=Mol28.gjf
 Output=Mol28.log
 Initial command:
 /opt/gaussian/l1.exe /home/scr/lqcapf-6/Gau-566372.inp -scrdir=/home/scr/lqcapf-6/
 Entering Link 1 = /opt/gaussian/l1.exe PID=    566374.
  
 Copyright (c) 1988,1990,1992,1993,1995,1998,2003,2009,2011,
            Gaussian, Inc.  All Rights Reserved.
  
 This is part of the Gaussian(R) 09 program.  It is based on
 the Gaussian(R) 03 system (copyright 2003, Gaussian, Inc.),
 the Gaussian(R) 98 system (copyright 1998, Gaussian, Inc.),
 the Gaussian(R) 94 system (copyright 1995, Gaussian, Inc.),
 the Gaussian 92(TM) system (copyright 1992, Gaussian, Inc.),
 the Gaussian 90(TM) system (copyright 1990, Gaussian, Inc.),
 the Gaussian 88(TM) system (copyright 1988, Gaussian, Inc.),
 the Gaussian 86(TM) system (copyright 1986, Carnegie Mellon
 University), and the Gaussian 82(TM) system (copyright 1983,
 Carnegie Mellon University). Gaussian is a federally registered
 trademark of Gaussian, Inc.
  
 This software contains proprietary and confidential information,
 including trade secrets, belonging to Gaussian, Inc.
  
 This software is provided under written license and may be
 used, copied, transmitted, or stored only in accord with that
 written license.
  
 The following legend is applicable only to US Government
 contracts under FAR:
  
                    RESTRICTED RIGHTS LEGEND
  
 Use, reproduction and disclosure by the US Government is
 subject to restrictions as set forth in subparagraphs (a)
 and (c) of the Commercial Computer Software - Restricted
 Rights clause in FAR 52.227-19.
  
 Gaussian, Inc.
 340 Quinnipiac St., Bldg. 40, Wallingford CT 06492
  
  
 ---------------------------------------------------------------
 Warning -- This program may not be used in any manner that
 competes with the business of Gaussian, Inc. or will provide
 assistance to any competitor of Gaussian, Inc.  The licensee
 of this program is prohibited from giving any competitor of
 Gaussian, Inc. access to this program.  By using this program,
 the user acknowledges that Gaussian, Inc. is engaged in the
 business of creating and licensing software in the field of
 computational chemistry and represents and warrants to the
 licensee that it is not a competitor of Gaussian, Inc. and that
 it will not use this program in any manner prohibited above.
 ---------------------------------------------------------------
  

 Cite this work as:
 Gaussian 09, Revision C.01,
 M. J. Frisch, G. W. Trucks, H. B. Schlegel, G. E. Scuseria, 
 M. A. Robb, J. R. Cheeseman, G. Scalmani, V. Barone, B. Mennucci, 
 G. A. Petersson, H. Nakatsuji, M. Caricato, X. Li, H. P. Hratchian, 
 A. F. Izmaylov, J. Bloino, G. Zheng, J. L. Sonnenberg, M. Hada, 
 M. Ehara, K. Toyota, R. Fukuda, J. Hasegawa, M. Ishida, T. Nakajima, 
 Y. Honda, O. Kitao, H. Nakai, T. Vreven, J. A. Montgomery, Jr., 
 J. E. Peralta, F. Ogliaro, M. Bearpark, J. J. Heyd, E. Brothers, 
 K. N. Kudin, V. N. Staroverov, T. Keith, R. Kobayashi, J. Normand, 
 K. Raghavachari, A. Rendell, J. C. Burant, S. S. Iyengar, J. Tomasi, 
 M. Cossi, N. Rega, J. M. Millam, M. Klene, J. E. Knox, J. B. Cross, 
 V. Bakken, C. Adamo, J. Jaramillo, R. Gomperts, R. E. Stratmann, 
 O. Yazyev, A. J. Austin, R. Cammi, C. Pomelli, J. W. Ochterski, 
 R. L. Martin, K. Morokuma, V. G. Zakrzewski, G. A. Voth, 
 P. Salvador, J. J. Dannenberg, S. Dapprich, A. D. Daniels, 
 O. Farkas, J. B. Foresman, J. V. Ortiz, J. Cioslowski, 
 and D. J. Fox, Gaussian, Inc., Wallingford CT, 2010.
 
 ******************************************
 Gaussian 09:  EM64L-G09RevC.01 23-Sep-2011
                10-Sep-2022 
 ******************************************
 %nprocshared=8
 Will use up to    8 processors via shared memory.
 %mem=1600MB
 ---------------------------------------
 #p b3lyp/cc-pvdz pop=(chelpg,readradii)
 ---------------------------------------
 1/38=1/1;
 2/12=2,17=6,18=5,40=1/2;
 3/5=16,11=2,16=1,25=1,30=1,74=-5/1,2,3;
 4//1;
 5/5=2,38=5/2;
 6/7=2,8=2,9=2,10=2,15=8,20=103,28=1/1,2;
 99/5=1,9=1/99;
 Leave Link    1 at Sat Sep 10 11:30:11 2022, MaxMem=  209715200 cpu:       0.2
 (Enter /opt/gaussian/l101.exe)
 ---------
 Mol28.log
 ---------
 Charge =  0 Multiplicity = 1
 Symbolic Z-Matrix:
 Cl                   -2.97234   5.91695  -0.45614 
 C                    -2.19939   4.45342   0.13585 
 C                    -2.169     4.20031   1.51009 
 C                    -1.5542    3.03107   1.95908 
 C                    -0.97838   2.13088   1.05551 
 C                    -1.01252   2.39261  -0.31988 
 C                    -1.63323   3.56504  -0.77753 
 C                    -0.38246   1.46162  -1.35084 
 N                     0.02898   0.13949  -0.86718 
 C                    -0.90042  -0.87634  -0.66613 
 O                    -0.62077  -1.95771  -0.18462 
 C                    -2.34865  -0.56008  -1.09538 
 N                    -3.21741  -1.69568  -0.92798 
 N                    -3.65964  -2.36549  -2.03753 
 N                    -4.41883  -3.34085  -1.67645 
 C                    -4.49768  -3.34565  -0.2967 
 C                    -5.20023  -4.19244   0.57863 
 C                    -5.09207  -3.93797   1.93861 
 C                    -4.30063  -2.86766   2.42809 
 C                    -3.59679  -2.02372   1.57821 
 C                    -3.71371  -2.28371   0.20297 
 C                     1.42122  -0.07548  -0.58764 
 C                     2.19766   0.96338  -0.0504 
 C                     3.56282   0.78719   0.17707 
 C                     4.20033  -0.43006  -0.11249 
 C                     3.40894  -1.46443  -0.64549 
 C                     2.04684  -1.29794  -0.8837 
 C                     5.65168  -0.61626   0.13149 
 C                     6.29597  -0.07298   1.25534 
 C                     7.66343  -0.2804    1.42785 
 C                     8.35299  -1.0313    0.47207 
 N                     7.76805  -1.55795  -0.61249 
 C                     6.4569   -1.34583  -0.76534 
 H                    -2.6212    4.90611   2.20698 
 H                    -1.5229    2.81846   3.02982 
 H                    -0.5003    1.2223    1.42505 
 H                    -1.67925   3.79001  -1.84507 
 H                    -1.07418   1.34398  -2.19903 
 H                     0.51312   1.9401   -1.77232 
 H                    -2.73934   0.30198  -0.532 
 H                    -2.38759  -0.3102   -2.16514 
 H                    -5.80337  -5.01339   0.18815 
 H                    -5.62134  -4.5727    2.65215 
 H                    -4.2385   -2.70762   3.50682 
 H                    -2.97584  -1.21466   1.96404 
 H                     1.74273   1.92294   0.1987 
 H                     4.14259   1.6239    0.57204 
 H                     3.86248  -2.43304  -0.86424 
 H                     1.46562  -2.12491  -1.2837 
 H                     5.72442   0.4871    1.99903 
 H                     8.18757   0.12361   2.29642 
 H                     9.42614  -1.21999   0.5815 
 H                     6.01056  -1.7667   -1.67258 
 
 NAtoms=     53 NQM=        0 NQMF=       0 NMMI=     53 NMMIF=      0
                NMic=       0 NMicF=      0.
                    Isotopes and Nuclear Properties:
 (Nuclear quadrupole moments (NQMom) in fm**2, nuclear magnetic moments (NMagM)
  in nuclear magnetons)

  Atom         1           2           3           4           5           6           7           8           9          10
 IAtWgt=          35          12          12          12          12          12          12          12          14          12
 AtmWgt=  34.9688527  12.0000000  12.0000000  12.0000000  12.0000000  12.0000000  12.0000000  12.0000000  14.0030740  12.0000000
 NucSpn=           3           0           0           0           0           0           0           0           2           0
 AtZEff=   0.0000000   0.0000000   0.0000000   0.0000000   0.0000000   0.0000000   0.0000000   0.0000000   0.0000000   0.0000000
 NQMom=   -8.1650000   0.0000000   0.0000000   0.0000000   0.0000000   0.0000000   0.0000000   0.0000000   2.0440000   0.0000000
 NMagM=    0.8218740   0.0000000   0.0000000   0.0000000   0.0000000   0.0000000   0.0000000   0.0000000   0.4037610   0.0000000

  Atom        11          12          13          14          15          16          17          18          19          20
 IAtWgt=          16          12          14          14          14          12          12          12          12          12
 AtmWgt=  15.9949146  12.0000000  14.0030740  14.0030740  14.0030740  12.0000000  12.0000000  12.0000000  12.0000000  12.0000000
 NucSpn=           0           0           2           2           2           0           0           0           0           0
 AtZEff=   0.0000000   0.0000000   0.0000000   0.0000000   0.0000000   0.0000000   0.0000000   0.0000000   0.0000000   0.0000000
 NQMom=    0.0000000   0.0000000   2.0440000   2.0440000   2.0440000   0.0000000   0.0000000   0.0000000   0.0000000   0.0000000
 NMagM=    0.0000000   0.0000000   0.4037610   0.4037610   0.4037610   0.0000000   0.0000000   0.0000000   0.0000000   0.0000000

  Atom        21          22          23          24          25          26          27          28          29          30
 IAtWgt=          12          12          12          12          12          12          12          12          12          12
 AtmWgt=  12.0000000  12.0000000  12.0000000  12.0000000  12.0000000  12.0000000  12.0000000  12.0000000  12.0000000  12.0000000
 NucSpn=           0           0           0           0           0           0           0           0           0           0
 AtZEff=   0.0000000   0.0000000   0.0000000   0.0000000   0.0000000   0.0000000   0.0000000   0.0000000   0.0000000   0.0000000
 NQMom=    0.0000000   0.0000000   0.0000000   0.0000000   0.0000000   0.0000000   0.0000000   0.0000000   0.0000000   0.0000000
 NMagM=    0.0000000   0.0000000   0.0000000   0.0000000   0.0000000   0.0000000   0.0000000   0.0000000   0.0000000   0.0000000

  Atom        31          32          33          34          35          36          37          38          39          40
 IAtWgt=          12          14          12           1           1           1           1           1           1           1
 AtmWgt=  12.0000000  14.0030740  12.0000000   1.0078250   1.0078250   1.0078250   1.0078250   1.0078250   1.0078250   1.0078250
 NucSpn=           0           2           0           1           1           1           1           1           1           1
 AtZEff=   0.0000000   0.0000000   0.0000000   0.0000000   0.0000000   0.0000000   0.0000000   0.0000000   0.0000000   0.0000000
 NQMom=    0.0000000   2.0440000   0.0000000   0.0000000   0.0000000   0.0000000   0.0000000   0.0000000   0.0000000   0.0000000
 NMagM=    0.0000000   0.4037610   0.0000000   2.7928460   2.7928460   2.7928460   2.7928460   2.7928460   2.7928460   2.7928460

  Atom        41          42          43          44          45          46          47          48          49          50
 IAtWgt=           1           1           1           1           1           1           1           1           1           1
 AtmWgt=   1.0078250   1.0078250   1.0078250   1.0078250   1.0078250   1.0078250   1.0078250   1.0078250   1.0078250   1.0078250
 NucSpn=           1           1           1           1           1           1           1           1           1           1
 AtZEff=   0.0000000   0.0000000   0.0000000   0.0000000   0.0000000   0.0000000   0.0000000   0.0000000   0.0000000   0.0000000
 NQMom=    0.0000000   0.0000000   0.0000000   0.0000000   0.0000000   0.0000000   0.0000000   0.0000000   0.0000000   0.0000000
 NMagM=    2.7928460   2.7928460   2.7928460   2.7928460   2.7928460   2.7928460   2.7928460   2.7928460   2.7928460   2.7928460

  Atom        51          52          53
 IAtWgt=           1           1           1
 AtmWgt=   1.0078250   1.0078250   1.0078250
 NucSpn=           1           1           1
 AtZEff=   0.0000000   0.0000000   0.0000000
 NQMom=    0.0000000   0.0000000   0.0000000
 NMagM=    2.7928460   2.7928460   2.7928460
 Leave Link  101 at Sat Sep 10 11:30:11 2022, MaxMem=  209715200 cpu:       0.7
 (Enter /opt/gaussian/l202.exe)
 Stoichiometry    C26H20ClN5O
 Framework group  C1[X(C26H20ClN5O)]
 Deg. of freedom   153
 Full point group                 C1      NOp   1
 Largest Abelian subgroup         C1      NOp   1
 Largest concise Abelian subgroup C1      NOp   1
                         Standard orientation:                         
 ---------------------------------------------------------------------
 Center     Atomic      Atomic             Coordinates (Angstroms)
 Number     Number       Type             X           Y           Z
 ---------------------------------------------------------------------
      1         17           0       -2.972340    5.916950   -0.456140
      2          6           0       -2.199390    4.453420    0.135850
      3          6           0       -2.169000    4.200310    1.510090
      4          6           0       -1.554200    3.031070    1.959080
      5          6           0       -0.978380    2.130880    1.055510
      6          6           0       -1.012520    2.392610   -0.319880
      7          6           0       -1.633230    3.565040   -0.777530
      8          6           0       -0.382460    1.461620   -1.350840
      9          7           0        0.028980    0.139490   -0.867180
     10          6           0       -0.900420   -0.876340   -0.666130
     11          8           0       -0.620770   -1.957710   -0.184620
     12          6           0       -2.348650   -0.560080   -1.095380
     13          7           0       -3.217410   -1.695680   -0.927980
     14          7           0       -3.659640   -2.365490   -2.037530
     15          7           0       -4.418831   -3.340850   -1.676450
     16          6           0       -4.497681   -3.345650   -0.296700
     17          6           0       -5.200231   -4.192439    0.578630
     18          6           0       -5.092071   -3.937969    1.938610
     19          6           0       -4.300631   -2.867660    2.428090
     20          6           0       -3.596790   -2.023720    1.578210
     21          6           0       -3.713710   -2.283710    0.202970
     22          6           0        1.421220   -0.075480   -0.587640
     23          6           0        2.197660    0.963380   -0.050400
     24          6           0        3.562820    0.787190    0.177070
     25          6           0        4.200330   -0.430060   -0.112490
     26          6           0        3.408940   -1.464430   -0.645490
     27          6           0        2.046840   -1.297940   -0.883700
     28          6           0        5.651680   -0.616261    0.131490
     29          6           0        6.295970   -0.072981    1.255340
     30          6           0        7.663430   -0.280401    1.427850
     31          6           0        8.352990   -1.031301    0.472070
     32          7           0        7.768050   -1.557951   -0.612490
     33          6           0        6.456900   -1.345831   -0.765340
     34          1           0       -2.621200    4.906110    2.206980
     35          1           0       -1.522900    2.818460    3.029820
     36          1           0       -0.500300    1.222300    1.425050
     37          1           0       -1.679250    3.790010   -1.845070
     38          1           0       -1.074180    1.343980   -2.199030
     39          1           0        0.513120    1.940100   -1.772320
     40          1           0       -2.739340    0.301980   -0.532000
     41          1           0       -2.387590   -0.310200   -2.165140
     42          1           0       -5.803371   -5.013389    0.188150
     43          1           0       -5.621341   -4.572699    2.652150
     44          1           0       -4.238501   -2.707620    3.506820
     45          1           0       -2.975840   -1.214660    1.964040
     46          1           0        1.742730    1.922940    0.198700
     47          1           0        4.142590    1.623900    0.572040
     48          1           0        3.862480   -2.433040   -0.864240
     49          1           0        1.465620   -2.124910   -1.283700
     50          1           0        5.724420    0.487099    1.999030
     51          1           0        8.187570    0.123609    2.296420
     52          1           0        9.426140   -1.219991    0.581500
     53          1           0        6.010560   -1.766701   -1.672580
 ---------------------------------------------------------------------
 Rotational constants (GHZ):      0.1259247      0.0635654      0.0466489
 Leave Link  202 at Sat Sep 10 11:30:11 2022, MaxMem=  209715200 cpu:       0.0
 (Enter /opt/gaussian/l301.exe)
 Standard basis: CC-pVDZ (5D, 7F)
 Ernie: Thresh=  0.10000D-02 Tol=  0.10000D-05 Strict=F.
 Ernie:  74 primitive shells out of 854 were deleted.
 There are   566 symmetry adapted basis functions of A   symmetry.
 Integral buffers will be    131072 words long.
 Raffenetti 2 integral format.
 Two-electron integral symmetry is turned on.
   566 basis functions,  1267 primitive gaussians,   599 cartesian basis functions
   118 alpha electrons      118 beta electrons
       nuclear repulsion energy      3130.5957139197 Hartrees.
 IExCor=  402 DFT=T Ex+Corr=B3LYP ExCW=0 ScaHFX=  0.200000
 ScaDFX=  0.800000  0.720000  1.000000  0.810000 ScalE2=  1.000000  1.000000
 IRadAn=      0 IRanWt=     -1 IRanGd=            0 ICorTp=0
 NAtoms=   53 NActive=   53 NUniq=   53 SFac= 1.00D+00 NAtFMM=   60 NAOKFM=F Big=F
 Leave Link  301 at Sat Sep 10 11:30:11 2022, MaxMem=  209715200 cpu:       0.3
 (Enter /opt/gaussian/l302.exe)
 NPDir=0 NMtPBC=     1 NCelOv=     1 NCel=       1 NClECP=     1 NCelD=      1
         NCelK=      1 NCelE2=     1 NClLst=     1 CellRange=     0.0.
 One-electron integrals computed using PRISM.
 NBasis=   566 RedAO= T  NBF=   566
 NBsUse=   566 1.00D-06 NBFU=   566
 Precomputing XC quadrature grid using
 IXCGrd= 2 IRadAn=           0 IRanWt=          -1 IRanGd=           0 AccXCQ= 0.00D+00.
 NRdTot=    3423 NPtTot=      437832 NUsed=      462495 NTot=      462527
 NSgBfM=   570   570   574   574   574 NAtAll=    53    53.
 Leave Link  302 at Sat Sep 10 11:30:12 2022, MaxMem=  209715200 cpu:       8.6
 (Enter /opt/gaussian/l303.exe)
 DipDrv:  MaxL=1.
 Leave Link  303 at Sat Sep 10 11:30:12 2022, MaxMem=  209715200 cpu:       1.3
 (Enter /opt/gaussian/l401.exe)
 Harris functional with IExCor=  402 diagonalized for initial guess.
 ExpMin= 1.22D-01 ExpMax= 1.28D+05 ExpMxC= 1.24D+03 IAcc=2 IRadAn=         4 AccDes= 0.00D+00
 HarFok:  IExCor=  402 AccDes= 0.00D+00 IRadAn=         4 IDoV= 1
 ScaDFX=  1.000000  1.000000  1.000000  1.000000
 FoFCou: FMM=F IPFlag=           0 FMFlag=      100000 FMFlg1=           0
         NFxFlg=           0 DoJE=T BraDBF=F KetDBF=T FulRan=T
         Omega=  0.000000  0.000000  1.000000  0.000000  0.000000 ICntrl=     500 IOpCl=  0
         NMat0=    1 NMatS0=    1 NMatT0=    0 NMatD0=    1 NMtDS0=    0 NMtDT0=    0
         I1Cent=           4 NGrid=           0.
 Petite list used in FoFCou.
 Harris En= -1811.77914049634    
 Initial guess orbital symmetries:
       Occupied  (A) (A) (A) (A) (A) (A) (A) (A) (A) (A) (A) (A)
                 (A) (A) (A) (A) (A) (A) (A) (A) (A) (A) (A) (A)
                 (A) (A) (A) (A) (A) (A) (A) (A) (A) (A) (A) (A)
                 (A) (A) (A) (A) (A) (A) (A) (A) (A) (A) (A) (A)
                 (A) (A) (A) (A) (A) (A) (A) (A) (A) (A) (A) (A)
                 (A) (A) (A) (A) (A) (A) (A) (A) (A) (A) (A) (A)
                 (A) (A) (A) (A) (A) (A) (A) (A) (A) (A) (A) (A)
                 (A) (A) (A) (A) (A) (A) (A) (A) (A) (A) (A) (A)
                 (A) (A) (A) (A) (A) (A) (A) (A) (A) (A) (A) (A)
                 (A) (A) (A) (A) (A) (A) (A) (A) (A) (A)
       Virtual   (A) (A) (A) (A) (A) (A) (A) (A) (A) (A) (A) (A)
                 (A) (A) (A) (A) (A) (A) (A) (A) (A) (A) (A) (A)
                 (A) (A) (A) (A) (A) (A) (A) (A) (A) (A) (A) (A)
                 (A) (A) (A) (A) (A) (A) (A) (A) (A) (A) (A) (A)
                 (A) (A) (A) (A) (A) (A) (A) (A) (A) (A) (A) (A)
                 (A) (A) (A) (A) (A) (A) (A) (A) (A) (A) (A) (A)
                 (A) (A) (A) (A) (A) (A) (A) (A) (A) (A) (A) (A)
                 (A) (A) (A) (A) (A) (A) (A) (A) (A) (A) (A) (A)
                 (A) (A) (A) (A) (A) (A) (A) (A) (A) (A) (A) (A)
                 (A) (A) (A) (A) (A) (A) (A) (A) (A) (A) (A) (A)
                 (A) (A) (A) (A) (A) (A) (A) (A) (A) (A) (A) (A)
                 (A) (A) (A) (A) (A) (A) (A) (A) (A) (A) (A) (A)
                 (A) (A) (A) (A) (A) (A) (A) (A) (A) (A) (A) (A)
                 (A) (A) (A) (A) (A) (A) (A) (A) (A) (A) (A) (A)
                 (A) (A) (A) (A) (A) (A) (A) (A) (A) (A) (A) (A)
                 (A) (A) (A) (A) (A) (A) (A) (A) (A) (A) (A) (A)
                 (A) (A) (A) (A) (A) (A) (A) (A) (A) (A) (A) (A)
                 (A) (A) (A) (A) (A) (A) (A) (A) (A) (A) (A) (A)
                 (A) (A) (A) (A) (A) (A) (A) (A) (A) (A) (A) (A)
                 (A) (A) (A) (A) (A) (A) (A) (A) (A) (A) (A) (A)
                 (A) (A) (A) (A) (A) (A) (A) (A) (A) (A) (A) (A)
                 (A) (A) (A) (A) (A) (A) (A) (A) (A) (A) (A) (A)
                 (A) (A) (A) (A) (A) (A) (A) (A) (A) (A) (A) (A)
                 (A) (A) (A) (A) (A) (A) (A) (A) (A) (A) (A) (A)
                 (A) (A) (A) (A) (A) (A) (A) (A) (A) (A) (A) (A)
                 (A) (A) (A) (A) (A) (A) (A) (A) (A) (A) (A) (A)
                 (A) (A) (A) (A) (A) (A) (A) (A) (A) (A) (A) (A)
                 (A) (A) (A) (A) (A) (A) (A) (A) (A) (A) (A) (A)
                 (A) (A) (A) (A) (A) (A) (A) (A) (A) (A) (A) (A)
                 (A) (A) (A) (A) (A) (A) (A) (A) (A) (A) (A) (A)
                 (A) (A) (A) (A) (A) (A) (A) (A) (A) (A) (A) (A)
                 (A) (A) (A) (A) (A) (A) (A) (A) (A) (A) (A) (A)
                 (A) (A) (A) (A) (A) (A) (A) (A) (A) (A) (A) (A)
                 (A) (A) (A) (A) (A) (A) (A) (A) (A) (A) (A) (A)
                 (A) (A) (A) (A) (A) (A) (A) (A) (A) (A) (A) (A)
                 (A) (A) (A) (A) (A) (A) (A) (A) (A) (A) (A) (A)
                 (A) (A) (A) (A) (A) (A) (A) (A) (A) (A) (A) (A)
                 (A) (A) (A) (A)
 The electronic state of the initial guess is 1-A.
 Leave Link  401 at Sat Sep 10 11:30:16 2022, MaxMem=  209715200 cpu:      27.2
 (Enter /opt/gaussian/l502.exe)
 Closed shell SCF:
 Requested convergence on RMS density matrix=1.00D-08 within 128 cycles.
 Requested convergence on MAX density matrix=1.00D-06.
 Requested convergence on             energy=1.00D-06.
 No special actions if energy rises.
 Using DIIS extrapolation, IDIIS=  1040.
 Integral symmetry usage will be decided dynamically.
       462005 words used for storage of precomputed grid.
 IEnd=     1565872 IEndB=     1565872 NGot=   209715200 MDV=   208525369
 LenX=   208525369 LenY=   208165969
 Fock matrices will be formed incrementally for  20 cycles.
 Integral accuracy reduced to 1.0D-05 until final iterations.

 Cycle   1  Pass 0  IDiag  1:
 FoFCou: FMM=F IPFlag=           0 FMFlag=      100000 FMFlg1=           0
         NFxFlg=           0 DoJE=F BraDBF=F KetDBF=F FulRan=T
         Omega=  0.000000  0.000000  1.000000  0.000000  0.000000 ICntrl=       0 IOpCl=  0
         NMat0=    1 NMatS0=    1 NMatT0=    0 NMatD0=    1 NMtDS0=    0 NMtDT0=    0
         I1Cent=           0 NGrid=           0.
 Symmetry not used in FoFCou.
 E= -1811.47591573871    
 DIIS: error= 1.64D-02 at cycle   1 NSaved=   1.
 NSaved= 1 IEnMin= 1 EnMin= -1811.47591573871     IErMin= 1 ErrMin= 1.64D-02
 ErrMax= 1.64D-02 EMaxC= 1.00D-01 BMatC= 5.40D-01 BMatP= 5.40D-01
 IDIUse=3 WtCom= 8.36D-01 WtEn= 1.64D-01
 Coeff-Com:  0.100D+01
 Coeff-En:   0.100D+01
 Coeff:      0.100D+01
 Gap=     0.345 Goal=   None    Shift=    0.000
 GapD=    0.345 DampG=1.000 DampE=0.500 DampFc=0.5000 IDamp=-1.
 Damping current iteration by 5.00D-01
 RMSDP=3.81D-03 MaxDP=2.13D-01              OVMax= 2.95D-01

 Cycle   2  Pass 0  IDiag  1:
 RMSU=  1.32D-03    CP:  9.76D-01
 E= -1811.63155214327     Delta-E=       -0.155636404561 Rises=F Damp=T
 DIIS: error= 8.85D-03 at cycle   2 NSaved=   2.
 NSaved= 2 IEnMin= 2 EnMin= -1811.63155214327     IErMin= 2 ErrMin= 8.85D-03
 ErrMax= 8.85D-03 EMaxC= 1.00D-01 BMatC= 1.09D-01 BMatP= 5.40D-01
 IDIUse=3 WtCom= 9.11D-01 WtEn= 8.85D-02
 Coeff-Com:  0.236D+00 0.764D+00
 Coeff-En:   0.347D+00 0.653D+00
 Coeff:      0.246D+00 0.754D+00
 Gap=     0.224 Goal=   None    Shift=    0.000
 RMSDP=1.32D-03 MaxDP=7.67D-02 DE=-1.56D-01 OVMax= 3.41D-01

 Cycle   3  Pass 0  IDiag  1:
 RMSU=  8.99D-04    CP:  9.61D-01  8.53D-01
 E= -1811.96841312433     Delta-E=       -0.336860981066 Rises=F Damp=F
 DIIS: error= 9.65D-03 at cycle   3 NSaved=   3.
 NSaved= 3 IEnMin= 3 EnMin= -1811.96841312433     IErMin= 2 ErrMin= 8.85D-03
 ErrMax= 9.65D-03 EMaxC= 1.00D-01 BMatC= 1.09D-01 BMatP= 1.09D-01
 IDIUse=3 WtCom= 9.04D-01 WtEn= 9.65D-02
 Coeff-Com:  0.587D-01 0.490D+00 0.451D+00
 Coeff-En:   0.000D+00 0.000D+00 0.100D+01
 Coeff:      0.530D-01 0.443D+00 0.504D+00
 Gap=     0.185 Goal=   None    Shift=    0.000
 RMSDP=7.76D-04 MaxDP=6.47D-02 DE=-3.37D-01 OVMax= 8.68D-02

 Cycle   4  Pass 0  IDiag  1:
 RMSU=  3.73D-04    CP:  9.65D-01  9.40D-01  5.74D-01
 E= -1812.05429909544     Delta-E=       -0.085885971102 Rises=F Damp=F
 DIIS: error= 4.11D-03 at cycle   4 NSaved=   4.
 NSaved= 4 IEnMin= 4 EnMin= -1812.05429909544     IErMin= 4 ErrMin= 4.11D-03
 ErrMax= 4.11D-03 EMaxC= 1.00D-01 BMatC= 1.84D-02 BMatP= 1.09D-01
 IDIUse=3 WtCom= 9.59D-01 WtEn= 4.11D-02
 Coeff-Com:  0.111D-01 0.130D+00 0.310D+00 0.549D+00
 Coeff-En:   0.000D+00 0.000D+00 0.169D+00 0.831D+00
 Coeff:      0.106D-01 0.124D+00 0.304D+00 0.561D+00
 Gap=     0.184 Goal=   None    Shift=    0.000
 RMSDP=2.93D-04 MaxDP=1.86D-02 DE=-8.59D-02 OVMax= 2.91D-02

 Cycle   5  Pass 0  IDiag  1:
 RMSU=  1.22D-04    CP:  9.64D-01  9.09D-01  6.75D-01  6.40D-01
 E= -1812.06943879523     Delta-E=       -0.015139699793 Rises=F Damp=F
 DIIS: error= 1.23D-03 at cycle   5 NSaved=   5.
 NSaved= 5 IEnMin= 5 EnMin= -1812.06943879523     IErMin= 5 ErrMin= 1.23D-03
 ErrMax= 1.23D-03 EMaxC= 1.00D-01 BMatC= 1.60D-03 BMatP= 1.84D-02
 IDIUse=3 WtCom= 9.88D-01 WtEn= 1.23D-02
 Coeff-Com:  0.120D-02 0.276D-01 0.136D+00 0.341D+00 0.494D+00
 Coeff-En:   0.000D+00 0.000D+00 0.000D+00 0.464D-01 0.954D+00
 Coeff:      0.118D-02 0.272D-01 0.134D+00 0.338D+00 0.500D+00
 Gap=     0.179 Goal=   None    Shift=    0.000
 RMSDP=1.05D-04 MaxDP=5.61D-03 DE=-1.51D-02 OVMax= 1.48D-02

 Cycle   6  Pass 0  IDiag  1:
 RMSU=  3.88D-05    CP:  9.63D-01  9.15D-01  6.80D-01  6.91D-01  5.08D-01
 E= -1812.07097917221     Delta-E=       -0.001540376985 Rises=F Damp=F
 DIIS: error= 4.46D-04 at cycle   6 NSaved=   6.
 NSaved= 6 IEnMin= 6 EnMin= -1812.07097917221     IErMin= 6 ErrMin= 4.46D-04
 ErrMax= 4.46D-04 EMaxC= 1.00D-01 BMatC= 2.08D-04 BMatP= 1.60D-03
 IDIUse=3 WtCom= 9.96D-01 WtEn= 4.46D-03
 Coeff-Com: -0.447D-03-0.928D-03 0.409D-01 0.132D+00 0.312D+00 0.517D+00
 Coeff-En:   0.000D+00 0.000D+00 0.000D+00 0.000D+00 0.111D+00 0.889D+00
 Coeff:     -0.445D-03-0.924D-03 0.408D-01 0.131D+00 0.311D+00 0.518D+00
 Gap=     0.179 Goal=   None    Shift=    0.000
 RMSDP=3.38D-05 MaxDP=1.42D-03 DE=-1.54D-03 OVMax= 4.35D-03

 Cycle   7  Pass 0  IDiag  1:
 RMSU=  1.36D-05    CP:  9.63D-01  9.14D-01  6.81D-01  6.92D-01  5.86D-01
                    CP:  5.58D-01
 E= -1812.07119755321     Delta-E=       -0.000218380993 Rises=F Damp=F
 DIIS: error= 9.65D-05 at cycle   7 NSaved=   7.
 NSaved= 7 IEnMin= 7 EnMin= -1812.07119755321     IErMin= 7 ErrMin= 9.65D-05
 ErrMax= 9.65D-05 EMaxC= 1.00D-01 BMatC= 1.84D-05 BMatP= 2.08D-04
 IDIUse=1 WtCom= 1.00D+00 WtEn= 0.00D+00
 Coeff-Com: -0.202D-03-0.318D-02 0.109D-01 0.426D-01 0.133D+00 0.303D+00
 Coeff-Com:  0.514D+00
 Coeff:     -0.202D-03-0.318D-02 0.109D-01 0.426D-01 0.133D+00 0.303D+00
 Coeff:      0.514D+00
 Gap=     0.179 Goal=   None    Shift=    0.000
 RMSDP=9.33D-06 MaxDP=3.83D-04 DE=-2.18D-04 OVMax= 1.04D-03

 Initial convergence to 1.0D-05 achieved.  Increase integral accuracy.
 Cycle   8  Pass 1  IDiag  1:
 E= -1812.07125684710     Delta-E=       -0.000059293889 Rises=F Damp=F
 DIIS: error= 1.41D-04 at cycle   1 NSaved=   1.
 NSaved= 1 IEnMin= 1 EnMin= -1812.07125684710     IErMin= 1 ErrMin= 1.41D-04
 ErrMax= 1.41D-04 EMaxC= 1.00D-01 BMatC= 1.28D-05 BMatP= 1.28D-05
 IDIUse=3 WtCom= 9.99D-01 WtEn= 1.41D-03
 Coeff-Com:  0.100D+01
 Coeff-En:   0.100D+01
 Coeff:      0.100D+01
 Gap=     0.179 Goal=   None    Shift=    0.000
 RMSDP=9.33D-06 MaxDP=3.83D-04 DE=-5.93D-05 OVMax= 9.82D-04

 Cycle   9  Pass 1  IDiag  1:
 RMSU=  8.31D-05    CP:  1.00D+00
 E= -1812.07126392209     Delta-E=       -0.000007074990 Rises=F Damp=F
 DIIS: error= 6.76D-05 at cycle   2 NSaved=   2.
 NSaved= 2 IEnMin= 2 EnMin= -1812.07126392209     IErMin= 2 ErrMin= 6.76D-05
 ErrMax= 6.76D-05 EMaxC= 1.00D-01 BMatC= 5.06D-06 BMatP= 1.28D-05
 IDIUse=1 WtCom= 1.00D+00 WtEn= 0.00D+00
 Coeff-Com:  0.327D+00 0.673D+00
 Coeff:      0.327D+00 0.673D+00
 Gap=     0.179 Goal=   None    Shift=    0.000
 RMSDP=8.65D-06 MaxDP=4.97D-04 DE=-7.07D-06 OVMax= 1.32D-03

 Cycle  10  Pass 1  IDiag  1:
 RMSU=  6.11D-06    CP:  1.00D+00  1.00D+00
 E= -1812.07126225474     Delta-E=        0.000001667350 Rises=F Damp=F
 DIIS: error= 8.44D-05 at cycle   3 NSaved=   3.
 NSaved= 3 IEnMin= 2 EnMin= -1812.07126392209     IErMin= 2 ErrMin= 6.76D-05
 ErrMax= 8.44D-05 EMaxC= 1.00D-01 BMatC= 6.51D-06 BMatP= 5.06D-06
 IDIUse=1 WtCom= 1.00D+00 WtEn= 0.00D+00
 Coeff-Com:  0.452D-02 0.530D+00 0.465D+00
 Coeff:      0.452D-02 0.530D+00 0.465D+00
 Gap=     0.179 Goal=   None    Shift=    0.000
 RMSDP=4.93D-06 MaxDP=2.71D-04 DE= 1.67D-06 OVMax= 7.18D-04

 Cycle  11  Pass 1  IDiag  1:
 RMSU=  8.93D-07    CP:  1.00D+00  1.01D+00  4.54D-01
 E= -1812.07126925944     Delta-E=       -0.000007004704 Rises=F Damp=F
 DIIS: error= 1.77D-05 at cycle   4 NSaved=   4.
 NSaved= 4 IEnMin= 4 EnMin= -1812.07126925944     IErMin= 4 ErrMin= 1.77D-05
 ErrMax= 1.77D-05 EMaxC= 1.00D-01 BMatC= 1.87D-07 BMatP= 5.06D-06
 IDIUse=1 WtCom= 1.00D+00 WtEn= 0.00D+00
 Coeff-Com: -0.359D-02 0.341D+00 0.310D+00 0.352D+00
 Coeff:     -0.359D-02 0.341D+00 0.310D+00 0.352D+00
 Gap=     0.179 Goal=   None    Shift=    0.000
 RMSDP=8.17D-07 MaxDP=7.15D-05 DE=-7.00D-06 OVMax= 1.03D-04

 Cycle  12  Pass 1  IDiag  1:
 RMSU=  2.11D-07    CP:  1.00D+00  1.01D+00  4.73D-01  4.11D-01
 E= -1812.07126943404     Delta-E=       -0.000000174604 Rises=F Damp=F
 DIIS: error= 1.94D-06 at cycle   5 NSaved=   5.
 NSaved= 5 IEnMin= 5 EnMin= -1812.07126943404     IErMin= 5 ErrMin= 1.94D-06
 ErrMax= 1.94D-06 EMaxC= 1.00D-01 BMatC= 3.36D-09 BMatP= 1.87D-07
 IDIUse=1 WtCom= 1.00D+00 WtEn= 0.00D+00
 Coeff-Com: -0.225D-02 0.180D+00 0.164D+00 0.206D+00 0.451D+00
 Coeff:     -0.225D-02 0.180D+00 0.164D+00 0.206D+00 0.451D+00
 Gap=     0.179 Goal=   None    Shift=    0.000
 RMSDP=1.29D-07 MaxDP=7.59D-06 DE=-1.75D-07 OVMax= 1.43D-05

 Cycle  13  Pass 1  IDiag  1:
 RMSU=  7.13D-08    CP:  1.00D+00  1.01D+00  4.73D-01  4.23D-01  7.35D-01
 E= -1812.07126943701     Delta-E=       -0.000000002968 Rises=F Damp=F
 DIIS: error= 5.46D-07 at cycle   6 NSaved=   6.
 NSaved= 6 IEnMin= 6 EnMin= -1812.07126943701     IErMin= 6 ErrMin= 5.46D-07
 ErrMax= 5.46D-07 EMaxC= 1.00D-01 BMatC= 3.59D-10 BMatP= 3.36D-09
 IDIUse=1 WtCom= 1.00D+00 WtEn= 0.00D+00
 Coeff-Com: -0.982D-03 0.730D-01 0.664D-01 0.882D-01 0.280D+00 0.493D+00
 Coeff:     -0.982D-03 0.730D-01 0.664D-01 0.882D-01 0.280D+00 0.493D+00
 Gap=     0.179 Goal=   None    Shift=    0.000
 RMSDP=3.88D-08 MaxDP=2.94D-06 DE=-2.97D-09 OVMax= 4.11D-06

 Cycle  14  Pass 1  IDiag  1:
 RMSU=  2.07D-08    CP:  1.00D+00  1.01D+00  4.73D-01  4.27D-01  7.64D-01
                    CP:  7.73D-01
 E= -1812.07126943731     Delta-E=       -0.000000000299 Rises=F Damp=F
 DIIS: error= 1.49D-07 at cycle   7 NSaved=   7.
 NSaved= 7 IEnMin= 7 EnMin= -1812.07126943731     IErMin= 7 ErrMin= 1.49D-07
 ErrMax= 1.49D-07 EMaxC= 1.00D-01 BMatC= 3.03D-11 BMatP= 3.59D-10
 IDIUse=1 WtCom= 1.00D+00 WtEn= 0.00D+00
 Coeff-Com: -0.244D-03 0.163D-01 0.148D-01 0.214D-01 0.941D-01 0.271D+00
 Coeff-Com:  0.583D+00
 Coeff:     -0.244D-03 0.163D-01 0.148D-01 0.214D-01 0.941D-01 0.271D+00
 Coeff:      0.583D+00
 Gap=     0.179 Goal=   None    Shift=    0.000
 RMSDP=1.37D-08 MaxDP=8.18D-07 DE=-2.99D-10 OVMax= 1.85D-06

 Cycle  15  Pass 1  IDiag  1:
 RMSU=  7.00D-09    CP:  1.00D+00  1.01D+00  4.73D-01  4.27D-01  7.74D-01
                    CP:  8.05D-01  7.16D-01
 E= -1812.07126943731     Delta-E=        0.000000000005 Rises=F Damp=F
 DIIS: error= 8.14D-08 at cycle   8 NSaved=   8.
 NSaved= 8 IEnMin= 7 EnMin= -1812.07126943731     IErMin= 8 ErrMin= 8.14D-08
 ErrMax= 8.14D-08 EMaxC= 1.00D-01 BMatC= 6.74D-12 BMatP= 3.03D-11
 IDIUse=1 WtCom= 1.00D+00 WtEn= 0.00D+00
 Coeff-Com:  0.118D-04-0.200D-02-0.186D-02-0.125D-02 0.118D-01 0.877D-01
 Coeff-Com:  0.367D+00 0.539D+00
 Coeff:      0.118D-04-0.200D-02-0.186D-02-0.125D-02 0.118D-01 0.877D-01
 Coeff:      0.367D+00 0.539D+00
 Gap=     0.179 Goal=   None    Shift=    0.000
 RMSDP=5.80D-09 MaxDP=2.84D-07 DE= 5.46D-12 OVMax= 9.92D-07

 SCF Done:  E(RB3LYP) =  -1812.07126944     A.U. after   15 cycles
             Convg  =    0.5801D-08             -V/T =  2.0056
 KE= 1.802053275702D+03 PE=-1.049429292697D+04 EE= 3.749572667909D+03
 Leave Link  502 at Sat Sep 10 11:44:31 2022, MaxMem=  209715200 cpu:    6267.1
 (Enter /opt/gaussian/l601.exe)
 Copying SCF densities to generalized density rwf, IOpCl= 0 IROHF=0.

 **********************************************************************

            Population analysis using the SCF density.

 **********************************************************************

 Orbital symmetries:
       Occupied  (A) (A) (A) (A) (A) (A) (A) (A) (A) (A) (A) (A)
                 (A) (A) (A) (A) (A) (A) (A) (A) (A) (A) (A) (A)
                 (A) (A) (A) (A) (A) (A) (A) (A) (A) (A) (A) (A)
                 (A) (A) (A) (A) (A) (A) (A) (A) (A) (A) (A) (A)
                 (A) (A) (A) (A) (A) (A) (A) (A) (A) (A) (A) (A)
                 (A) (A) (A) (A) (A) (A) (A) (A) (A) (A) (A) (A)
                 (A) (A) (A) (A) (A) (A) (A) (A) (A) (A) (A) (A)
                 (A) (A) (A) (A) (A) (A) (A) (A) (A) (A) (A) (A)
                 (A) (A) (A) (A) (A) (A) (A) (A) (A) (A) (A) (A)
                 (A) (A) (A) (A) (A) (A) (A) (A) (A) (A)
       Virtual   (A) (A) (A) (A) (A) (A) (A) (A) (A) (A) (A) (A)
                 (A) (A) (A) (A) (A) (A) (A) (A) (A) (A) (A) (A)
                 (A) (A) (A) (A) (A) (A) (A) (A) (A) (A) (A) (A)
                 (A) (A) (A) (A) (A) (A) (A) (A) (A) (A) (A) (A)
                 (A) (A) (A) (A) (A) (A) (A) (A) (A) (A) (A) (A)
                 (A) (A) (A) (A) (A) (A) (A) (A) (A) (A) (A) (A)
                 (A) (A) (A) (A) (A) (A) (A) (A) (A) (A) (A) (A)
                 (A) (A) (A) (A) (A) (A) (A) (A) (A) (A) (A) (A)
                 (A) (A) (A) (A) (A) (A) (A) (A) (A) (A) (A) (A)
                 (A) (A) (A) (A) (A) (A) (A) (A) (A) (A) (A) (A)
                 (A) (A) (A) (A) (A) (A) (A) (A) (A) (A) (A) (A)
                 (A) (A) (A) (A) (A) (A) (A) (A) (A) (A) (A) (A)
                 (A) (A) (A) (A) (A) (A) (A) (A) (A) (A) (A) (A)
                 (A) (A) (A) (A) (A) (A) (A) (A) (A) (A) (A) (A)
                 (A) (A) (A) (A) (A) (A) (A) (A) (A) (A) (A) (A)
                 (A) (A) (A) (A) (A) (A) (A) (A) (A) (A) (A) (A)
                 (A) (A) (A) (A) (A) (A) (A) (A) (A) (A) (A) (A)
                 (A) (A) (A) (A) (A) (A) (A) (A) (A) (A) (A) (A)
                 (A) (A) (A) (A) (A) (A) (A) (A) (A) (A) (A) (A)
                 (A) (A) (A) (A) (A) (A) (A) (A) (A) (A) (A) (A)
                 (A) (A) (A) (A) (A) (A) (A) (A) (A) (A) (A) (A)
                 (A) (A) (A) (A) (A) (A) (A) (A) (A) (A) (A) (A)
                 (A) (A) (A) (A) (A) (A) (A) (A) (A) (A) (A) (A)
                 (A) (A) (A) (A) (A) (A) (A) (A) (A) (A) (A) (A)
                 (A) (A) (A) (A) (A) (A) (A) (A) (A) (A) (A) (A)
                 (A) (A) (A) (A) (A) (A) (A) (A) (A) (A) (A) (A)
                 (A) (A) (A) (A) (A) (A) (A) (A) (A) (A) (A) (A)
                 (A) (A) (A) (A) (A) (A) (A) (A) (A) (A) (A) (A)
                 (A) (A) (A) (A) (A) (A) (A) (A) (A) (A) (A) (A)
                 (A) (A) (A) (A) (A) (A) (A) (A) (A) (A) (A) (A)
                 (A) (A) (A) (A) (A) (A) (A) (A) (A) (A) (A) (A)
                 (A) (A) (A) (A) (A) (A) (A) (A) (A) (A) (A) (A)
                 (A) (A) (A) (A) (A) (A) (A) (A) (A) (A) (A) (A)
                 (A) (A) (A) (A) (A) (A) (A) (A) (A) (A) (A) (A)
                 (A) (A) (A) (A) (A) (A) (A) (A) (A) (A) (A) (A)
                 (A) (A) (A) (A) (A) (A) (A) (A) (A) (A) (A) (A)
                 (A) (A) (A) (A) (A) (A) (A) (A) (A) (A) (A) (A)
                 (A) (A) (A) (A)
 The electronic state is 1-A.
 Alpha  occ. eigenvalues -- -101.55901 -19.13372 -14.41362 -14.39508 -14.39172
 Alpha  occ. eigenvalues --  -14.34951 -14.33126 -10.31461 -10.27195 -10.26479
 Alpha  occ. eigenvalues --  -10.26228 -10.25059 -10.23524 -10.23364 -10.22783
 Alpha  occ. eigenvalues --  -10.22734 -10.22485 -10.22449 -10.22278 -10.21999
 Alpha  occ. eigenvalues --  -10.21488 -10.21445 -10.21405 -10.21261 -10.21009
 Alpha  occ. eigenvalues --  -10.20859 -10.20614 -10.20594 -10.20535 -10.20377
 Alpha  occ. eigenvalues --  -10.20238 -10.20035 -10.19622  -9.47718  -7.23979
 Alpha  occ. eigenvalues --   -7.23006  -7.22965  -1.09634  -1.06588  -0.97397
 Alpha  occ. eigenvalues --   -0.94699  -0.92745  -0.91150  -0.87562  -0.86609
 Alpha  occ. eigenvalues --   -0.85933  -0.82201  -0.80155  -0.78913  -0.77917
 Alpha  occ. eigenvalues --   -0.77123  -0.76603  -0.75847  -0.75211  -0.73870
 Alpha  occ. eigenvalues --   -0.72192  -0.66456  -0.65074  -0.64530  -0.63775
 Alpha  occ. eigenvalues --   -0.62954  -0.62544  -0.61874  -0.61024  -0.59402
 Alpha  occ. eigenvalues --   -0.57128  -0.54685  -0.53780  -0.53466  -0.52964
 Alpha  occ. eigenvalues --   -0.52663  -0.52075  -0.50160  -0.49551  -0.49398
 Alpha  occ. eigenvalues --   -0.48107  -0.47838  -0.46931  -0.46866  -0.46157
 Alpha  occ. eigenvalues --   -0.46052  -0.45064  -0.44997  -0.44921  -0.44678
 Alpha  occ. eigenvalues --   -0.43950  -0.43825  -0.43459  -0.42191  -0.41093
 Alpha  occ. eigenvalues --   -0.40913  -0.40741  -0.40126  -0.39682  -0.38551
 Alpha  occ. eigenvalues --   -0.38205  -0.38122  -0.37779  -0.36898  -0.36846
 Alpha  occ. eigenvalues --   -0.35926  -0.35757  -0.34878  -0.33243  -0.32853
 Alpha  occ. eigenvalues --   -0.31713  -0.31355  -0.29203  -0.28502  -0.28013
 Alpha  occ. eigenvalues --   -0.27430  -0.26862  -0.26764  -0.26652  -0.26016
 Alpha  occ. eigenvalues --   -0.25125  -0.23707  -0.23190
 Alpha virt. eigenvalues --   -0.05277  -0.04512  -0.04369  -0.03930  -0.03227
 Alpha virt. eigenvalues --   -0.02405  -0.01093   0.00544   0.01150   0.01860
 Alpha virt. eigenvalues --    0.03313   0.03859   0.05256   0.05752   0.06593
 Alpha virt. eigenvalues --    0.06919   0.07328   0.08173   0.08858   0.09242
 Alpha virt. eigenvalues --    0.10078   0.10672   0.10778   0.11120   0.11814
 Alpha virt. eigenvalues --    0.12036   0.12516   0.12996   0.13390   0.13782
 Alpha virt. eigenvalues --    0.14311   0.14644   0.15276   0.15828   0.16280
 Alpha virt. eigenvalues --    0.16888   0.17574   0.19378   0.19927   0.20610
 Alpha virt. eigenvalues --    0.21753   0.22607   0.23426   0.23798   0.24043
 Alpha virt. eigenvalues --    0.24392   0.25030   0.26027   0.26561   0.27570
 Alpha virt. eigenvalues --    0.28033   0.28551   0.29356   0.29950   0.30175
 Alpha virt. eigenvalues --    0.30682   0.31615   0.32852   0.33225   0.33793
 Alpha virt. eigenvalues --    0.35534   0.35998   0.36601   0.37508   0.37995
 Alpha virt. eigenvalues --    0.38276   0.39457   0.40167   0.41621   0.42314
 Alpha virt. eigenvalues --    0.43192   0.43853   0.44203   0.44594   0.45036
 Alpha virt. eigenvalues --    0.45265   0.45679   0.45924   0.46253   0.46539
 Alpha virt. eigenvalues --    0.46634   0.46891   0.47278   0.47622   0.47838
 Alpha virt. eigenvalues --    0.48077   0.48330   0.48512   0.48960   0.49073
 Alpha virt. eigenvalues --    0.49599   0.49726   0.49879   0.50113   0.50262
 Alpha virt. eigenvalues --    0.50777   0.50965   0.51015   0.51240   0.52293
 Alpha virt. eigenvalues --    0.52638   0.52919   0.53316   0.53656   0.54378
 Alpha virt. eigenvalues --    0.54739   0.54841   0.55044   0.55210   0.55707
 Alpha virt. eigenvalues --    0.55935   0.56181   0.57127   0.58239   0.58780
 Alpha virt. eigenvalues --    0.59059   0.59203   0.59503   0.59963   0.60125
 Alpha virt. eigenvalues --    0.60786   0.61305   0.61487   0.61870   0.62304
 Alpha virt. eigenvalues --    0.63212   0.64025   0.64198   0.64220   0.64473
 Alpha virt. eigenvalues --    0.64747   0.65009   0.65445   0.65771   0.65903
 Alpha virt. eigenvalues --    0.66573   0.66903   0.67281   0.67826   0.68347
 Alpha virt. eigenvalues --    0.69396   0.69735   0.70042   0.70223   0.70837
 Alpha virt. eigenvalues --    0.71038   0.71295   0.71985   0.72395   0.72968
 Alpha virt. eigenvalues --    0.73673   0.73884   0.75106   0.75425   0.76677
 Alpha virt. eigenvalues --    0.77628   0.78803   0.79285   0.80158   0.80884
 Alpha virt. eigenvalues --    0.82280   0.82963   0.83530   0.84228   0.84693
 Alpha virt. eigenvalues --    0.84757   0.86317   0.86422   0.87072   0.87422
 Alpha virt. eigenvalues --    0.88034   0.88369   0.88401   0.88851   0.89314
 Alpha virt. eigenvalues --    0.90167   0.90883   0.91320   0.91355   0.92176
 Alpha virt. eigenvalues --    0.92501   0.93034   0.93182   0.93599   0.94924
 Alpha virt. eigenvalues --    0.95092   0.95120   0.95674   0.96570   0.97538
 Alpha virt. eigenvalues --    0.98245   0.98863   0.99343   1.00004   1.00221
 Alpha virt. eigenvalues --    1.00482   1.00574   1.01435   1.01851   1.01924
 Alpha virt. eigenvalues --    1.02589   1.02818   1.03250   1.03645   1.03773
 Alpha virt. eigenvalues --    1.04033   1.04181   1.05564   1.05955   1.06478
 Alpha virt. eigenvalues --    1.06652   1.07840   1.08830   1.09344   1.10416
 Alpha virt. eigenvalues --    1.10583   1.10949   1.11566   1.12538   1.13615
 Alpha virt. eigenvalues --    1.14420   1.14847   1.16817   1.17180   1.18212
 Alpha virt. eigenvalues --    1.18520   1.19381   1.20124   1.21751   1.22019
 Alpha virt. eigenvalues --    1.23143   1.23758   1.23806   1.24789   1.26531
 Alpha virt. eigenvalues --    1.26899   1.29293   1.30387   1.31204   1.31309
 Alpha virt. eigenvalues --    1.33415   1.33985   1.34627   1.35487   1.35948
 Alpha virt. eigenvalues --    1.37938   1.38157   1.39991   1.40618   1.42061
 Alpha virt. eigenvalues --    1.43168   1.43910   1.44809   1.45750   1.46443
 Alpha virt. eigenvalues --    1.46522   1.47391   1.47758   1.48300   1.48837
 Alpha virt. eigenvalues --    1.49210   1.49602   1.50041   1.50746   1.51459
 Alpha virt. eigenvalues --    1.51595   1.52054   1.52343   1.54037   1.54842
 Alpha virt. eigenvalues --    1.55384   1.55894   1.56287   1.57349   1.57565
 Alpha virt. eigenvalues --    1.58300   1.58823   1.59152   1.59763   1.60104
 Alpha virt. eigenvalues --    1.60350   1.60831   1.61371   1.61655   1.61976
 Alpha virt. eigenvalues --    1.62616   1.62998   1.63194   1.63620   1.63831
 Alpha virt. eigenvalues --    1.64677   1.65031   1.65267   1.65299   1.66051
 Alpha virt. eigenvalues --    1.66607   1.67114   1.67647   1.68199   1.68922
 Alpha virt. eigenvalues --    1.69668   1.70047   1.70604   1.71322   1.71748
 Alpha virt. eigenvalues --    1.71853   1.72822   1.73782   1.74066   1.74158
 Alpha virt. eigenvalues --    1.74808   1.75347   1.76004   1.76511   1.77097
 Alpha virt. eigenvalues --    1.77499   1.78029   1.78702   1.78950   1.79353
 Alpha virt. eigenvalues --    1.79957   1.80487   1.80559   1.81869   1.82719
 Alpha virt. eigenvalues --    1.82991   1.83188   1.83585   1.84120   1.84465
 Alpha virt. eigenvalues --    1.84847   1.85293   1.85829   1.86092   1.86737
 Alpha virt. eigenvalues --    1.87033   1.88018   1.88436   1.89056   1.90230
 Alpha virt. eigenvalues --    1.90903   1.91280   1.91719   1.92496   1.93255
 Alpha virt. eigenvalues --    1.94884   1.96219   1.96480   1.96871   1.97451
 Alpha virt. eigenvalues --    1.97803   1.98387   1.99051   1.99332   1.99928
 Alpha virt. eigenvalues --    2.01578   2.01791   2.02945   2.03829   2.03986
 Alpha virt. eigenvalues --    2.05274   2.05736   2.06541   2.06773   2.08483
 Alpha virt. eigenvalues --    2.10308   2.11147   2.11999   2.12199   2.15035
 Alpha virt. eigenvalues --    2.15213   2.15658   2.16136   2.17652   2.18044
 Alpha virt. eigenvalues --    2.19465   2.20680   2.21743   2.22430   2.23780
 Alpha virt. eigenvalues --    2.25022   2.27686   2.28328   2.28982   2.29994
 Alpha virt. eigenvalues --    2.30969   2.32740   2.34374   2.37411   2.37695
 Alpha virt. eigenvalues --    2.38909   2.39022   2.39251   2.39879   2.40096
 Alpha virt. eigenvalues --    2.41160   2.42884   2.43986   2.44269   2.45442
 Alpha virt. eigenvalues --    2.45888   2.46599   2.47668   2.48147   2.49665
 Alpha virt. eigenvalues --    2.50917   2.51662   2.52794   2.55489   2.56916
 Alpha virt. eigenvalues --    2.58929   2.59944   2.61868   2.62919   2.65129
 Alpha virt. eigenvalues --    2.65412   2.67014   2.68170   2.69181   2.69910
 Alpha virt. eigenvalues --    2.70785   2.71954   2.72190   2.73467   2.73917
 Alpha virt. eigenvalues --    2.76897   2.77285   2.78719   2.80023   2.81213
 Alpha virt. eigenvalues --    2.82549   2.85127   2.86280   2.88473   2.90208
 Alpha virt. eigenvalues --    2.93208   2.96000   2.96539   2.98260   3.07187
 Alpha virt. eigenvalues --    3.09800   3.14371   3.38496   3.39408   3.40680
 Alpha virt. eigenvalues --    3.48606   3.52855   3.53513
          Condensed to atoms (all electrons):
 Mulliken atomic charges:
              1
     1  Cl  -0.076725
     2  C   -0.143337
     3  C    0.119112
     4  C    0.052341
     5  C    0.022139
     6  C   -0.088032
     7  C    0.119217
     8  C    0.151134
     9  N   -0.283663
    10  C    0.129086
    11  O   -0.234471
    12  C    0.122669
    13  N   -0.228292
    14  N   -0.060266
    15  N   -0.180968
    16  C    0.011524
    17  C    0.045291
    18  C    0.038105
    19  C    0.039909
    20  C    0.030199
    21  C    0.213635
    22  C    0.101171
    23  C    0.020952
    24  C    0.017384
    25  C    0.034288
    26  C    0.016812
    27  C    0.077348
    28  C   -0.042742
    29  C    0.074690
    30  C   -0.008173
    31  C    0.105545
    32  N   -0.172751
    33  C    0.099299
    34  H   -0.014781
    35  H   -0.012402
    36  H   -0.015106
    37  H   -0.031391
    38  H    0.043190
    39  H    0.054098
    40  H    0.058010
    41  H    0.063033
    42  H   -0.021235
    43  H   -0.026375
    44  H   -0.025521
    45  H   -0.032753
    46  H   -0.022866
    47  H   -0.036672
    48  H   -0.028118
    49  H   -0.010452
    50  H   -0.027956
    51  H   -0.023110
    52  H   -0.002921
    53  H   -0.009100
 Sum of Mulliken atomic charges =   0.00000
 Mulliken charges with hydrogens summed into heavy atoms:
              1
     1  Cl  -0.076725
     2  C   -0.143337
     3  C    0.104331
     4  C    0.039939
     5  C    0.007033
     6  C   -0.088032
     7  C    0.087827
     8  C    0.248422
     9  N   -0.283663
    10  C    0.129086
    11  O   -0.234471
    12  C    0.243711
    13  N   -0.228292
    14  N   -0.060266
    15  N   -0.180968
    16  C    0.011524
    17  C    0.024056
    18  C    0.011730
    19  C    0.014388
    20  C   -0.002554
    21  C    0.213635
    22  C    0.101171
    23  C   -0.001915
    24  C   -0.019288
    25  C    0.034288
    26  C   -0.011306
    27  C    0.066896
    28  C   -0.042742
    29  C    0.046735
    30  C   -0.031283
    31  C    0.102623
    32  N   -0.172751
    33  C    0.090199
 Sum of Mulliken charges with hydrogens summed into heavy atoms =   0.00000
 Electronic spatial extent (au):  <R**2>=          21762.3995
 Charge=              0.0000 electrons
 Dipole moment (field-independent basis, Debye):
    X=              0.9866    Y=              4.8532    Z=              3.5781  Tot=              6.1098
 Quadrupole moment (field-independent basis, Debye-Ang):
   XX=           -212.0972   YY=           -209.6845   ZZ=           -189.3079
   XY=              2.9294   XZ=             -2.1689   YZ=             -6.6435
 Traceless Quadrupole moment (field-independent basis, Debye-Ang):
   XX=             -8.4006   YY=             -5.9880   ZZ=             14.3886
   XY=              2.9294   XZ=             -2.1689   YZ=             -6.6435
 Octapole moment (field-independent basis, Debye-Ang**2):
  XXX=            -22.2366  YYY=            -12.2991  ZZZ=             29.0292  XYY=             -3.8020
  XXY=             67.7499  XXZ=            170.2089  XZZ=             -1.0648  YZZ=             40.0516
  YYZ=             41.1273  XYZ=             43.5888
 Hexadecapole moment (field-independent basis, Debye-Ang**3):
 XXXX=         -20015.0942 YYYY=          -8983.1771 ZZZZ=          -1684.6813 XXXY=            506.7765
 XXXZ=            706.0067 YYYX=            111.2666 YYYZ=            -48.0415 ZZZX=            -87.0396
 ZZZY=            -60.4950 XXYY=          -4839.7185 XXZZ=          -3545.9388 YYZZ=          -1709.5530
 XXYZ=           -264.5248 YYXZ=           -219.5047 ZZXY=            -89.2160
 N-N= 3.130595713920D+03 E-N=-1.049429293410D+04  KE= 1.802053275702D+03
 No NMR shielding tensors so no spin-rotation constants.
 Leave Link  601 at Sat Sep 10 11:44:32 2022, MaxMem=  209715200 cpu:       4.3
 (Enter /opt/gaussian/l602.exe)
 Breneman (CHELPG) radii used.
 Read replacement radii for each type of atom:
 Rad(35) =   1.900000000000D+00
 Atom Element Radius
    1    17    2.00
    2     6    1.50
    3     6    1.50
    4     6    1.50
    5     6    1.50
    6     6    1.50
    7     6    1.50
    8     6    1.50
    9     7    1.70
   10     6    1.50
   11     8    1.70
   12     6    1.50
   13     7    1.70
   14     7    1.70
   15     7    1.70
   16     6    1.50
   17     6    1.50
   18     6    1.50
   19     6    1.50
   20     6    1.50
   21     6    1.50
   22     6    1.50
   23     6    1.50
   24     6    1.50
   25     6    1.50
   26     6    1.50
   27     6    1.50
   28     6    1.50
   29     6    1.50
   30     6    1.50
   31     6    1.50
   32     7    1.70
   33     6    1.50
   34     1    1.45
   35     1    1.45
   36     1    1.45
   37     1    1.45
   38     1    1.45
   39     1    1.45
   40     1    1.45
   41     1    1.45
   42     1    1.45
   43     1    1.45
   44     1    1.45
   45     1    1.45
   46     1    1.45
   47     1    1.45
   48     1    1.45
   49     1    1.45
   50     1    1.45
   51     1    1.45
   52     1    1.45
   53     1    1.45
 Generate Potential Derived Charges using the Breneman model, NDens= 1.
 Grid spacing= 0.300 Box extension= 2.800
 NStep X,Y,Z=   71     57     39   Total possible points=      157833
 Number of Points to Fit=   29448

 **********************************************************************

            Electrostatic Properties Using The SCF Density

 **********************************************************************

       Atomic Center    1 is at  -2.972340  5.916950 -0.456140
       Atomic Center    2 is at  -2.199390  4.453420  0.135850
       Atomic Center    3 is at  -2.169000  4.200310  1.510090
       Atomic Center    4 is at  -1.554200  3.031070  1.959080
       Atomic Center    5 is at  -0.978380  2.130880  1.055510
       Atomic Center    6 is at  -1.012520  2.392610 -0.319880
       Atomic Center    7 is at  -1.633230  3.565040 -0.777530
       Atomic Center    8 is at  -0.382460  1.461620 -1.350840
       Atomic Center    9 is at   0.028980  0.139490 -0.867180
       Atomic Center   10 is at  -0.900420 -0.876340 -0.666130
       Atomic Center   11 is at  -0.620770 -1.957710 -0.184620
       Atomic Center   12 is at  -2.348650 -0.560080 -1.095380
       Atomic Center   13 is at  -3.217410 -1.695680 -0.927980
       Atomic Center   14 is at  -3.659640 -2.365490 -2.037530
       Atomic Center   15 is at  -4.418831 -3.340850 -1.676450
       Atomic Center   16 is at  -4.497681 -3.345650 -0.296700
       Atomic Center   17 is at  -5.200231 -4.192439  0.578630
       Atomic Center   18 is at  -5.092071 -3.937969  1.938610
       Atomic Center   19 is at  -4.300631 -2.867660  2.428090
       Atomic Center   20 is at  -3.596790 -2.023720  1.578210
       Atomic Center   21 is at  -3.713710 -2.283710  0.202970
       Atomic Center   22 is at   1.421220 -0.075480 -0.587640
       Atomic Center   23 is at   2.197660  0.963380 -0.050400
       Atomic Center   24 is at   3.562820  0.787190  0.177070
       Atomic Center   25 is at   4.200330 -0.430060 -0.112490
       Atomic Center   26 is at   3.408940 -1.464430 -0.645490
       Atomic Center   27 is at   2.046840 -1.297940 -0.883700
       Atomic Center   28 is at   5.651680 -0.616261  0.131490
       Atomic Center   29 is at   6.295970 -0.072981  1.255340
       Atomic Center   30 is at   7.663430 -0.280401  1.427850
       Atomic Center   31 is at   8.352990 -1.031301  0.472070
       Atomic Center   32 is at   7.768050 -1.557951 -0.612490
       Atomic Center   33 is at   6.456900 -1.345831 -0.765340
       Atomic Center   34 is at  -2.621200  4.906110  2.206980
       Atomic Center   35 is at  -1.522900  2.818460  3.029820
       Atomic Center   36 is at  -0.500300  1.222300  1.425050
       Atomic Center   37 is at  -1.679250  3.790010 -1.845070
       Atomic Center   38 is at  -1.074180  1.343980 -2.199030
       Atomic Center   39 is at   0.513120  1.940100 -1.772320
       Atomic Center   40 is at  -2.739340  0.301980 -0.532000
       Atomic Center   41 is at  -2.387590 -0.310200 -2.165140
       Atomic Center   42 is at  -5.803371 -5.013389  0.188150
       Atomic Center   43 is at  -5.621341 -4.572699  2.652150
       Atomic Center   44 is at  -4.238501 -2.707620  3.506820
       Atomic Center   45 is at  -2.975840 -1.214660  1.964040
       Atomic Center   46 is at   1.742730  1.922940  0.198700
       Atomic Center   47 is at   4.142590  1.623900  0.572040
       Atomic Center   48 is at   3.862480 -2.433040 -0.864240
       Atomic Center   49 is at   1.465620 -2.124910 -1.283700
       Atomic Center   50 is at   5.724420  0.487099  1.999030
       Atomic Center   51 is at   8.187570  0.123609  2.296420
       Atomic Center   52 is at   9.426140 -1.219991  0.581500
       Atomic Center   53 is at   6.010560 -1.766701 -1.672580
   29448 points will be used for fitting atomic charges
 Fitting point charges to electrostatic potential
 Charges from ESP fit, RMS=   0.00419 RRMS=   0.25293:
 Charge=   0.00000 Dipole=     0.9925     4.6810     3.5571 Tot=     5.9624
              1
     1  Cl  -0.113361
     2  C    0.064490
     3  C   -0.053179
     4  C   -0.144794
     5  C   -0.052626
     6  C    0.120662
     7  C   -0.143401
     8  C    0.050269
     9  N   -0.407703
    10  C    0.634874
    11  O   -0.509603
    12  C   -0.061230
    13  N    0.329880
    14  N   -0.230309
    15  N   -0.338573
    16  C    0.410254
    17  C   -0.254195
    18  C   -0.049347
    19  C   -0.109973
    20  C   -0.137267
    21  C   -0.087016
    22  C    0.239809
    23  C   -0.095808
    24  C   -0.105666
    25  C    0.018049
    26  C   -0.071145
    27  C   -0.181635
    28  C   -0.155245
    29  C    0.111420
    30  C   -0.318530
    31  C    0.352965
    32  N   -0.539715
    33  C    0.341636
    34  H    0.095004
    35  H    0.116645
    36  H    0.068761
    37  H    0.095298
    38  H    0.094096
    39  H    0.033957
    40  H   -0.021215
    41  H    0.019804
    42  H    0.128192
    43  H    0.087302
    44  H    0.096327
    45  H    0.106911
    46  H    0.050865
    47  H    0.090607
    48  H    0.094050
    49  H    0.140674
    50  H    0.057322
    51  H    0.120914
    52  H    0.010276
    53  H    0.000226
 Charges from ESP fit with hydrogens summed into heavy atoms:
              1
     1  Cl  -0.113361
     2  C    0.064490
     3  C    0.041826
     4  C   -0.028148
     5  C    0.016135
     6  C    0.120662
     7  C   -0.048103
     8  C    0.178322
     9  N   -0.407703
    10  C    0.634874
    11  O   -0.509603
    12  C   -0.062641
    13  N    0.329880
    14  N   -0.230309
    15  N   -0.338573
    16  C    0.410254
    17  C   -0.126003
    18  C    0.037955
    19  C   -0.013646
    20  C   -0.030355
    21  C   -0.087016
    22  C    0.239809
    23  C   -0.044943
    24  C   -0.015060
    25  C    0.018049
    26  C    0.022905
    27  C   -0.040962
    28  C   -0.155245
    29  C    0.168741
    30  C   -0.197616
    31  C    0.363241
    32  N   -0.539715
    33  C    0.341861
    34  H    0.000000
    35  H    0.000000
    36  H    0.000000
    37  H    0.000000
    38  H    0.000000
    39  H    0.000000
    40  H    0.000000
    41  H    0.000000
    42  H    0.000000
    43  H    0.000000
    44  H    0.000000
    45  H    0.000000
    46  H    0.000000
    47  H    0.000000
    48  H    0.000000
    49  H    0.000000
    50  H    0.000000
    51  H    0.000000
    52  H    0.000000
    53  H    0.000000
 -----------------------------------------------------------------

              Electrostatic Properties (Atomic Units)

 -----------------------------------------------------------------
    Center     Electric         -------- Electric Field --------
               Potential          X             Y             Z
 -----------------------------------------------------------------
    1 Atom    -64.395881
    2 Atom    -14.674922
    3 Atom    -14.724219
    4 Atom    -14.722277
    5 Atom    -14.726773
    6 Atom    -14.711803
    7 Atom    -14.722276
    8 Atom    -14.674412
    9 Atom    -18.306594
   10 Atom    -14.628296
   11 Atom    -22.356498
   12 Atom    -14.677492
   13 Atom    -18.290965
   14 Atom    -18.328794
   15 Atom    -18.367251
   16 Atom    -14.735376
   17 Atom    -14.746209
   18 Atom    -14.749621
   19 Atom    -14.743716
   20 Atom    -14.739252
   21 Atom    -14.712302
   22 Atom    -14.693132
   23 Atom    -14.736794
   24 Atom    -14.738401
   25 Atom    -14.732080
   26 Atom    -14.741886
   27 Atom    -14.743311
   28 Atom    -14.732245
   29 Atom    -14.732795
   30 Atom    -14.741508
   31 Atom    -14.717789
   32 Atom    -18.382598
   33 Atom    -14.717639
   34 Atom     -1.064070
   35 Atom     -1.067319
   36 Atom     -1.067571
   37 Atom     -1.058801
   38 Atom     -1.057734
   39 Atom     -1.057130
   40 Atom     -1.052829
   41 Atom     -1.049280
   42 Atom     -1.087688
   43 Atom     -1.093527
   44 Atom     -1.089627
   45 Atom     -1.078312
   46 Atom     -1.072498
   47 Atom     -1.079588
   48 Atom     -1.084977
   49 Atom     -1.087497
   50 Atom     -1.075606
   51 Atom     -1.078295
   52 Atom     -1.091941
   53 Atom     -1.092275
 -----------------------------------------------------------------
 Leave Link  602 at Sat Sep 10 11:44:48 2022, MaxMem=  209715200 cpu:     115.5
 (Enter /opt/gaussian/l9999.exe)
 1\1\GINC-LQCAPF-6\SP\RB3LYP\CC-pVDZ\C26H20Cl1N5O1\LQCAPF-6\10-Sep-2022
 \0\\#p b3lyp/cc-pvdz pop=(chelpg,readradii)\\Mol28.log\\0,1\Cl,0,-2.97
 234,5.91695,-0.45614\C,0,-2.19939,4.45342,0.13585\C,0,-2.169,4.20031,1
 .51009\C,0,-1.5542,3.03107,1.95908\C,0,-0.97838,2.13088,1.05551\C,0,-1
 .01252,2.39261,-0.31988\C,0,-1.63323,3.56504,-0.77753\C,0,-0.38246,1.4
 6162,-1.35084\N,0,0.02898,0.13949,-0.86718\C,0,-0.90042,-0.87634,-0.66
 613\O,0,-0.62077,-1.95771,-0.18462\C,0,-2.34865,-0.56008,-1.09538\N,0,
 -3.21741,-1.69568,-0.92798\N,0,-3.65964,-2.36549,-2.03753\N,0,-4.41883
 ,-3.34085,-1.67645\C,0,-4.49768,-3.34565,-0.2967\C,0,-5.20023,-4.19244
 ,0.57863\C,0,-5.09207,-3.93797,1.93861\C,0,-4.30063,-2.86766,2.42809\C
 ,0,-3.59679,-2.02372,1.57821\C,0,-3.71371,-2.28371,0.20297\C,0,1.42122
 ,-0.07548,-0.58764\C,0,2.19766,0.96338,-0.0504\C,0,3.56282,0.78719,0.1
 7707\C,0,4.20033,-0.43006,-0.11249\C,0,3.40894,-1.46443,-0.64549\C,0,2
 .04684,-1.29794,-0.8837\C,0,5.65168,-0.61626,0.13149\C,0,6.29597,-0.07
 298,1.25534\C,0,7.66343,-0.2804,1.42785\C,0,8.35299,-1.0313,0.47207\N,
 0,7.76805,-1.55795,-0.61249\C,0,6.4569,-1.34583,-0.76534\H,0,-2.6212,4
 .90611,2.20698\H,0,-1.5229,2.81846,3.02982\H,0,-0.5003,1.2223,1.42505\
 H,0,-1.67925,3.79001,-1.84507\H,0,-1.07418,1.34398,-2.19903\H,0,0.5131
 2,1.9401,-1.77232\H,0,-2.73934,0.30198,-0.532\H,0,-2.38759,-0.3102,-2.
 16514\H,0,-5.80337,-5.01339,0.18815\H,0,-5.62134,-4.5727,2.65215\H,0,-
 4.2385,-2.70762,3.50682\H,0,-2.97584,-1.21466,1.96404\H,0,1.74273,1.92
 294,0.1987\H,0,4.14259,1.6239,0.57204\H,0,3.86248,-2.43304,-0.86424\H,
 0,1.46562,-2.12491,-1.2837\H,0,5.72442,0.4871,1.99903\H,0,8.18757,0.12
 361,2.29642\H,0,9.42614,-1.21999,0.5815\H,0,6.01056,-1.7667,-1.67258\\
 Version=EM64L-G09RevC.01\State=1-A\HF=-1812.0712694\RMSD=5.801e-09\Dip
 ole=0.3881699,1.9093767,1.4077404\Quadrupole=-6.2456641,-4.4518965,10.
 6975606,2.1779183,-1.612504,-4.9393082\PG=C01 [X(C26H20Cl1N5O1)]\\@


 MORNING PEOPLE ARE USUALLY ADMIRED AS EARLY BIRDS.
 RECALL BEN FRANKLIN'S APHORISM THAT THE EARLY BIRD GETS THE WORM.
 I IDENTIFY WITH THE WORM. --  CRAIG JAGGER, MINNEAPOLIS, KS.
 Job cpu time:  0 days  1 hours 47 minutes  5.6 seconds.
 File lengths (MBytes):  RWF=    176 Int=      0 D2E=      0 Chk=     12 Scr=      1
 Normal termination of Gaussian 09 at Sat Sep 10 11:44:48 2022.
