 Entering Gaussian System, Link 0=g09
 Input=Mol34.gjf
 Output=Mol34.log
 Initial command:
 /opt/gaussian/l1.exe /home/scr/lqcapf-6/Gau-574945.inp -scrdir=/home/scr/lqcapf-6/
 Entering Link 1 = /opt/gaussian/l1.exe PID=    574947.
  
 Copyright (c) 1988,1990,1992,1993,1995,1998,2003,2009,2011,
            Gaussian, Inc.  All Rights Reserved.
  
 This is part of the Gaussian(R) 09 program.  It is based on
 the Gaussian(R) 03 system (copyright 2003, Gaussian, Inc.),
 the Gaussian(R) 98 system (copyright 1998, Gaussian, Inc.),
 the Gaussian(R) 94 system (copyright 1995, Gaussian, Inc.),
 the Gaussian 92(TM) system (copyright 1992, Gaussian, Inc.),
 the Gaussian 90(TM) system (copyright 1990, Gaussian, Inc.),
 the Gaussian 88(TM) system (copyright 1988, Gaussian, Inc.),
 the Gaussian 86(TM) system (copyright 1986, Carnegie Mellon
 University), and the Gaussian 82(TM) system (copyright 1983,
 Carnegie Mellon University). Gaussian is a federally registered
 trademark of Gaussian, Inc.
  
 This software contains proprietary and confidential information,
 including trade secrets, belonging to Gaussian, Inc.
  
 This software is provided under written license and may be
 used, copied, transmitted, or stored only in accord with that
 written license.
  
 The following legend is applicable only to US Government
 contracts under FAR:
  
                    RESTRICTED RIGHTS LEGEND
  
 Use, reproduction and disclosure by the US Government is
 subject to restrictions as set forth in subparagraphs (a)
 and (c) of the Commercial Computer Software - Restricted
 Rights clause in FAR 52.227-19.
  
 Gaussian, Inc.
 340 Quinnipiac St., Bldg. 40, Wallingford CT 06492
  
  
 ---------------------------------------------------------------
 Warning -- This program may not be used in any manner that
 competes with the business of Gaussian, Inc. or will provide
 assistance to any competitor of Gaussian, Inc.  The licensee
 of this program is prohibited from giving any competitor of
 Gaussian, Inc. access to this program.  By using this program,
 the user acknowledges that Gaussian, Inc. is engaged in the
 business of creating and licensing software in the field of
 computational chemistry and represents and warrants to the
 licensee that it is not a competitor of Gaussian, Inc. and that
 it will not use this program in any manner prohibited above.
 ---------------------------------------------------------------
  

 Cite this work as:
 Gaussian 09, Revision C.01,
 M. J. Frisch, G. W. Trucks, H. B. Schlegel, G. E. Scuseria, 
 M. A. Robb, J. R. Cheeseman, G. Scalmani, V. Barone, B. Mennucci, 
 G. A. Petersson, H. Nakatsuji, M. Caricato, X. Li, H. P. Hratchian, 
 A. F. Izmaylov, J. Bloino, G. Zheng, J. L. Sonnenberg, M. Hada, 
 M. Ehara, K. Toyota, R. Fukuda, J. Hasegawa, M. Ishida, T. Nakajima, 
 Y. Honda, O. Kitao, H. Nakai, T. Vreven, J. A. Montgomery, Jr., 
 J. E. Peralta, F. Ogliaro, M. Bearpark, J. J. Heyd, E. Brothers, 
 K. N. Kudin, V. N. Staroverov, T. Keith, R. Kobayashi, J. Normand, 
 K. Raghavachari, A. Rendell, J. C. Burant, S. S. Iyengar, J. Tomasi, 
 M. Cossi, N. Rega, J. M. Millam, M. Klene, J. E. Knox, J. B. Cross, 
 V. Bakken, C. Adamo, J. Jaramillo, R. Gomperts, R. E. Stratmann, 
 O. Yazyev, A. J. Austin, R. Cammi, C. Pomelli, J. W. Ochterski, 
 R. L. Martin, K. Morokuma, V. G. Zakrzewski, G. A. Voth, 
 P. Salvador, J. J. Dannenberg, S. Dapprich, A. D. Daniels, 
 O. Farkas, J. B. Foresman, J. V. Ortiz, J. Cioslowski, 
 and D. J. Fox, Gaussian, Inc., Wallingford CT, 2010.
 
 ******************************************
 Gaussian 09:  EM64L-G09RevC.01 23-Sep-2011
                10-Sep-2022 
 ******************************************
 %nprocshared=8
 Will use up to    8 processors via shared memory.
 %mem=1600MB
 ---------------------------------------
 #p b3lyp/cc-pvdz pop=(chelpg,readradii)
 ---------------------------------------
 1/38=1/1;
 2/12=2,17=6,18=5,40=1/2;
 3/5=16,11=2,16=1,25=1,30=1,74=-5/1,2,3;
 4//1;
 5/5=2,38=5/2;
 6/7=2,8=2,9=2,10=2,15=8,20=103,28=1/1,2;
 99/5=1,9=1/99;
 Leave Link    1 at Sat Sep 10 12:48:57 2022, MaxMem=  209715200 cpu:       0.2
 (Enter /opt/gaussian/l101.exe)
 ---------
 Mol34.log
 ---------
 Charge =  0 Multiplicity = 1
 Symbolic Z-Matrix:
 Cl                   -2.89394   5.96063  -0.37132 
 C                    -2.13803   4.46302   0.13398 
 C                    -2.08337   4.13176   1.4941 
 N                    -1.52239   3.00225   1.9286 
 C                    -0.99447   2.16726   1.02126 
 C                    -0.99861   2.40735  -0.359 
 C                    -1.59411   3.59457  -0.80707 
 C                    -0.37935   1.45618  -1.3748 
 N                     0.01999   0.13798  -0.87293 
 C                    -0.91367  -0.87514  -0.67147 
 O                    -0.63537  -1.95685  -0.19185 
 C                    -2.36207  -0.55371  -1.09677 
 N                    -3.23542  -1.68405  -0.92392 
 N                    -3.68504  -2.35286  -2.03174 
 N                    -4.44757  -3.3237   -1.66659 
 C                    -4.52175  -3.32667  -0.28642 
 C                    -5.22575  -4.16916   0.59189 
 C                    -5.11203  -3.91357   1.95117 
 C                    -4.31403  -2.84651   2.43704 
 C                    -3.60845  -2.00682   1.58435 
 C                    -3.73096  -2.2682    0.20984 
 C                     1.41188  -0.08344  -0.59169 
 C                     2.18768   0.94643  -0.03774 
 C                     3.55152   0.76426   0.19283 
 C                     4.1868   -0.45082  -0.11038 
 C                     3.39554  -1.47631  -0.66055 
 C                     2.03483  -1.30318  -0.90216 
 C                     5.63659  -0.64397   0.13779 
 C                     6.27599  -0.11981   1.27341 
 C                     7.64214  -0.33286   1.44929 
 C                     8.33497  -1.06966   0.48492 
 N                     7.75452  -1.57778  -0.61086 
 C                     6.44453  -1.36087  -0.76663 
 H                    -2.50996   4.80434   2.24344 
 H                    -0.54404   1.25369   1.41951 
 H                    -1.63704   3.84106  -1.87044 
 H                    -1.07424   1.33473  -2.22029 
 H                     0.52021   1.92147  -1.8032 
 H                    -2.74763   0.31157  -0.5344 
 H                    -2.40341  -0.30673  -2.16729 
 H                    -5.83412  -4.98752   0.20412 
 H                    -5.64219  -4.54483   2.6671 
 H                    -4.24793  -2.68495   3.51523 
 H                    -2.9832   -1.20043   1.96896 
 H                     1.73414   1.90383   0.22251 
 H                     4.13163   1.59367   0.60226 
 H                     3.84796  -2.44292  -0.89 
 H                     1.45277  -2.12316  -1.31544 
 H                     5.70177   0.42936   2.02315 
 H                     8.16267   0.05595   2.32689 
 H                     9.40719  -1.26219   0.59662 
 H                     6.00176  -1.76654  -1.68255 
 
 NAtoms=     52 NQM=        0 NQMF=       0 NMMI=     52 NMMIF=      0
                NMic=       0 NMicF=      0.
                    Isotopes and Nuclear Properties:
 (Nuclear quadrupole moments (NQMom) in fm**2, nuclear magnetic moments (NMagM)
  in nuclear magnetons)

  Atom         1           2           3           4           5           6           7           8           9          10
 IAtWgt=          35          12          12          14          12          12          12          12          14          12
 AtmWgt=  34.9688527  12.0000000  12.0000000  14.0030740  12.0000000  12.0000000  12.0000000  12.0000000  14.0030740  12.0000000
 NucSpn=           3           0           0           2           0           0           0           0           2           0
 AtZEff=   0.0000000   0.0000000   0.0000000   0.0000000   0.0000000   0.0000000   0.0000000   0.0000000   0.0000000   0.0000000
 NQMom=   -8.1650000   0.0000000   0.0000000   2.0440000   0.0000000   0.0000000   0.0000000   0.0000000   2.0440000   0.0000000
 NMagM=    0.8218740   0.0000000   0.0000000   0.4037610   0.0000000   0.0000000   0.0000000   0.0000000   0.4037610   0.0000000

  Atom        11          12          13          14          15          16          17          18          19          20
 IAtWgt=          16          12          14          14          14          12          12          12          12          12
 AtmWgt=  15.9949146  12.0000000  14.0030740  14.0030740  14.0030740  12.0000000  12.0000000  12.0000000  12.0000000  12.0000000
 NucSpn=           0           0           2           2           2           0           0           0           0           0
 AtZEff=   0.0000000   0.0000000   0.0000000   0.0000000   0.0000000   0.0000000   0.0000000   0.0000000   0.0000000   0.0000000
 NQMom=    0.0000000   0.0000000   2.0440000   2.0440000   2.0440000   0.0000000   0.0000000   0.0000000   0.0000000   0.0000000
 NMagM=    0.0000000   0.0000000   0.4037610   0.4037610   0.4037610   0.0000000   0.0000000   0.0000000   0.0000000   0.0000000

  Atom        21          22          23          24          25          26          27          28          29          30
 IAtWgt=          12          12          12          12          12          12          12          12          12          12
 AtmWgt=  12.0000000  12.0000000  12.0000000  12.0000000  12.0000000  12.0000000  12.0000000  12.0000000  12.0000000  12.0000000
 NucSpn=           0           0           0           0           0           0           0           0           0           0
 AtZEff=   0.0000000   0.0000000   0.0000000   0.0000000   0.0000000   0.0000000   0.0000000   0.0000000   0.0000000   0.0000000
 NQMom=    0.0000000   0.0000000   0.0000000   0.0000000   0.0000000   0.0000000   0.0000000   0.0000000   0.0000000   0.0000000
 NMagM=    0.0000000   0.0000000   0.0000000   0.0000000   0.0000000   0.0000000   0.0000000   0.0000000   0.0000000   0.0000000

  Atom        31          32          33          34          35          36          37          38          39          40
 IAtWgt=          12          14          12           1           1           1           1           1           1           1
 AtmWgt=  12.0000000  14.0030740  12.0000000   1.0078250   1.0078250   1.0078250   1.0078250   1.0078250   1.0078250   1.0078250
 NucSpn=           0           2           0           1           1           1           1           1           1           1
 AtZEff=   0.0000000   0.0000000   0.0000000   0.0000000   0.0000000   0.0000000   0.0000000   0.0000000   0.0000000   0.0000000
 NQMom=    0.0000000   2.0440000   0.0000000   0.0000000   0.0000000   0.0000000   0.0000000   0.0000000   0.0000000   0.0000000
 NMagM=    0.0000000   0.4037610   0.0000000   2.7928460   2.7928460   2.7928460   2.7928460   2.7928460   2.7928460   2.7928460

  Atom        41          42          43          44          45          46          47          48          49          50
 IAtWgt=           1           1           1           1           1           1           1           1           1           1
 AtmWgt=   1.0078250   1.0078250   1.0078250   1.0078250   1.0078250   1.0078250   1.0078250   1.0078250   1.0078250   1.0078250
 NucSpn=           1           1           1           1           1           1           1           1           1           1
 AtZEff=   0.0000000   0.0000000   0.0000000   0.0000000   0.0000000   0.0000000   0.0000000   0.0000000   0.0000000   0.0000000
 NQMom=    0.0000000   0.0000000   0.0000000   0.0000000   0.0000000   0.0000000   0.0000000   0.0000000   0.0000000   0.0000000
 NMagM=    2.7928460   2.7928460   2.7928460   2.7928460   2.7928460   2.7928460   2.7928460   2.7928460   2.7928460   2.7928460

  Atom        51          52
 IAtWgt=           1           1
 AtmWgt=   1.0078250   1.0078250
 NucSpn=           1           1
 AtZEff=   0.0000000   0.0000000
 NQMom=    0.0000000   0.0000000
 NMagM=    2.7928460   2.7928460
 Leave Link  101 at Sat Sep 10 12:48:57 2022, MaxMem=  209715200 cpu:       0.7
 (Enter /opt/gaussian/l202.exe)
 Stoichiometry    C25H19ClN6O
 Framework group  C1[X(C25H19ClN6O)]
 Deg. of freedom   150
 Full point group                 C1      NOp   1
 Largest Abelian subgroup         C1      NOp   1
 Largest concise Abelian subgroup C1      NOp   1
                         Standard orientation:                         
 ---------------------------------------------------------------------
 Center     Atomic      Atomic             Coordinates (Angstroms)
 Number     Number       Type             X           Y           Z
 ---------------------------------------------------------------------
      1         17           0       -2.893938    5.960631   -0.371320
      2          6           0       -2.138029    4.463021    0.133980
      3          6           0       -2.083369    4.131761    1.494100
      4          7           0       -1.522389    3.002251    1.928600
      5          6           0       -0.994469    2.167260    1.021260
      6          6           0       -0.998609    2.407350   -0.359000
      7          6           0       -1.594109    3.594571   -0.807070
      8          6           0       -0.379349    1.456180   -1.374800
      9          7           0        0.019990    0.137980   -0.872930
     10          6           0       -0.913670   -0.875140   -0.671470
     11          8           0       -0.635370   -1.956850   -0.191850
     12          6           0       -2.362070   -0.553709   -1.096770
     13          7           0       -3.235420   -1.684049   -0.923920
     14          7           0       -3.685040   -2.352859   -2.031740
     15          7           0       -4.447571   -3.323699   -1.666590
     16          6           0       -4.521751   -3.326669   -0.286420
     17          6           0       -5.225751   -4.169158    0.591890
     18          6           0       -5.112031   -3.913569    1.951170
     19          6           0       -4.314031   -2.846509    2.437040
     20          6           0       -3.608450   -2.006819    1.584350
     21          6           0       -3.730960   -2.268199    0.209840
     22          6           0        1.411880   -0.083440   -0.591690
     23          6           0        2.187680    0.946430   -0.037740
     24          6           0        3.551520    0.764259    0.192830
     25          6           0        4.186800   -0.450821   -0.110380
     26          6           0        3.395540   -1.476311   -0.660550
     27          6           0        2.034830   -1.303180   -0.902160
     28          6           0        5.636590   -0.643971    0.137790
     29          6           0        6.275990   -0.119812    1.273410
     30          6           0        7.642140   -0.332862    1.449290
     31          6           0        8.334970   -1.069662    0.484920
     32          7           0        7.754520   -1.577782   -0.610860
     33          6           0        6.444530   -1.360872   -0.766630
     34          1           0       -2.509959    4.804341    2.243440
     35          1           0       -0.544039    1.253690    1.419510
     36          1           0       -1.637039    3.841061   -1.870440
     37          1           0       -1.074239    1.334730   -2.220290
     38          1           0        0.520211    1.921470   -1.803200
     39          1           0       -2.747630    0.311571   -0.534400
     40          1           0       -2.403410   -0.306729   -2.167290
     41          1           0       -5.834121   -4.987518    0.204120
     42          1           0       -5.642191   -4.544828    2.667100
     43          1           0       -4.247930   -2.684949    3.515230
     44          1           0       -2.983200   -1.200429    1.968960
     45          1           0        1.734141    1.903830    0.222510
     46          1           0        4.131631    1.593669    0.602260
     47          1           0        3.847960   -2.442921   -0.890000
     48          1           0        1.452770   -2.123160   -1.315440
     49          1           0        5.701770    0.429359    2.023150
     50          1           0        8.162670    0.055948    2.326890
     51          1           0        9.407190   -1.262192    0.596620
     52          1           0        6.001760   -1.766541   -1.682550
 ---------------------------------------------------------------------
 Rotational constants (GHZ):      0.1255040      0.0637856      0.0466988
 Leave Link  202 at Sat Sep 10 12:48:57 2022, MaxMem=  209715200 cpu:       0.0
 (Enter /opt/gaussian/l301.exe)
 Standard basis: CC-pVDZ (5D, 7F)
 Ernie: Thresh=  0.10000D-02 Tol=  0.10000D-05 Strict=F.
 Ernie:  74 primitive shells out of 849 were deleted.
 There are   561 symmetry adapted basis functions of A   symmetry.
 Integral buffers will be    131072 words long.
 Raffenetti 2 integral format.
 Two-electron integral symmetry is turned on.
   561 basis functions,  1260 primitive gaussians,   594 cartesian basis functions
   118 alpha electrons      118 beta electrons
       nuclear repulsion energy      3135.7169818610 Hartrees.
 IExCor=  402 DFT=T Ex+Corr=B3LYP ExCW=0 ScaHFX=  0.200000
 ScaDFX=  0.800000  0.720000  1.000000  0.810000 ScalE2=  1.000000  1.000000
 IRadAn=      0 IRanWt=     -1 IRanGd=            0 ICorTp=0
 NAtoms=   52 NActive=   52 NUniq=   52 SFac= 1.00D+00 NAtFMM=   60 NAOKFM=F Big=F
 Leave Link  301 at Sat Sep 10 12:48:57 2022, MaxMem=  209715200 cpu:       0.3
 (Enter /opt/gaussian/l302.exe)
 NPDir=0 NMtPBC=     1 NCelOv=     1 NCel=       1 NClECP=     1 NCelD=      1
         NCelK=      1 NCelE2=     1 NClLst=     1 CellRange=     0.0.
 One-electron integrals computed using PRISM.
 NBasis=   561 RedAO= T  NBF=   561
 NBsUse=   561 1.00D-06 NBFU=   561
 Precomputing XC quadrature grid using
 IXCGrd= 2 IRadAn=           0 IRanWt=          -1 IRanGd=           0 AccXCQ= 0.00D+00.
 NRdTot=    3359 NPtTot=      429664 NUsed=      453866 NTot=      453898
 NSgBfM=   565   565   569   569   569 NAtAll=    52    52.
 Leave Link  302 at Sat Sep 10 12:48:58 2022, MaxMem=  209715200 cpu:       9.0
 (Enter /opt/gaussian/l303.exe)
 DipDrv:  MaxL=1.
 Leave Link  303 at Sat Sep 10 12:48:59 2022, MaxMem=  209715200 cpu:       1.9
 (Enter /opt/gaussian/l401.exe)
 Harris functional with IExCor=  402 diagonalized for initial guess.
 ExpMin= 1.22D-01 ExpMax= 1.28D+05 ExpMxC= 1.24D+03 IAcc=2 IRadAn=         4 AccDes= 0.00D+00
 HarFok:  IExCor=  402 AccDes= 0.00D+00 IRadAn=         4 IDoV= 1
 ScaDFX=  1.000000  1.000000  1.000000  1.000000
 FoFCou: FMM=F IPFlag=           0 FMFlag=      100000 FMFlg1=           0
         NFxFlg=           0 DoJE=T BraDBF=F KetDBF=T FulRan=T
         Omega=  0.000000  0.000000  1.000000  0.000000  0.000000 ICntrl=     500 IOpCl=  0
         NMat0=    1 NMatS0=    1 NMatT0=    0 NMatD0=    1 NMtDS0=    0 NMtDT0=    0
         I1Cent=           4 NGrid=           0.
 Petite list used in FoFCou.
 Harris En= -1827.78632348017    
 Initial guess orbital symmetries:
       Occupied  (A) (A) (A) (A) (A) (A) (A) (A) (A) (A) (A) (A)
                 (A) (A) (A) (A) (A) (A) (A) (A) (A) (A) (A) (A)
                 (A) (A) (A) (A) (A) (A) (A) (A) (A) (A) (A) (A)
                 (A) (A) (A) (A) (A) (A) (A) (A) (A) (A) (A) (A)
                 (A) (A) (A) (A) (A) (A) (A) (A) (A) (A) (A) (A)
                 (A) (A) (A) (A) (A) (A) (A) (A) (A) (A) (A) (A)
                 (A) (A) (A) (A) (A) (A) (A) (A) (A) (A) (A) (A)
                 (A) (A) (A) (A) (A) (A) (A) (A) (A) (A) (A) (A)
                 (A) (A) (A) (A) (A) (A) (A) (A) (A) (A) (A) (A)
                 (A) (A) (A) (A) (A) (A) (A) (A) (A) (A)
       Virtual   (A) (A) (A) (A) (A) (A) (A) (A) (A) (A) (A) (A)
                 (A) (A) (A) (A) (A) (A) (A) (A) (A) (A) (A) (A)
                 (A) (A) (A) (A) (A) (A) (A) (A) (A) (A) (A) (A)
                 (A) (A) (A) (A) (A) (A) (A) (A) (A) (A) (A) (A)
                 (A) (A) (A) (A) (A) (A) (A) (A) (A) (A) (A) (A)
                 (A) (A) (A) (A) (A) (A) (A) (A) (A) (A) (A) (A)
                 (A) (A) (A) (A) (A) (A) (A) (A) (A) (A) (A) (A)
                 (A) (A) (A) (A) (A) (A) (A) (A) (A) (A) (A) (A)
                 (A) (A) (A) (A) (A) (A) (A) (A) (A) (A) (A) (A)
                 (A) (A) (A) (A) (A) (A) (A) (A) (A) (A) (A) (A)
                 (A) (A) (A) (A) (A) (A) (A) (A) (A) (A) (A) (A)
                 (A) (A) (A) (A) (A) (A) (A) (A) (A) (A) (A) (A)
                 (A) (A) (A) (A) (A) (A) (A) (A) (A) (A) (A) (A)
                 (A) (A) (A) (A) (A) (A) (A) (A) (A) (A) (A) (A)
                 (A) (A) (A) (A) (A) (A) (A) (A) (A) (A) (A) (A)
                 (A) (A) (A) (A) (A) (A) (A) (A) (A) (A) (A) (A)
                 (A) (A) (A) (A) (A) (A) (A) (A) (A) (A) (A) (A)
                 (A) (A) (A) (A) (A) (A) (A) (A) (A) (A) (A) (A)
                 (A) (A) (A) (A) (A) (A) (A) (A) (A) (A) (A) (A)
                 (A) (A) (A) (A) (A) (A) (A) (A) (A) (A) (A) (A)
                 (A) (A) (A) (A) (A) (A) (A) (A) (A) (A) (A) (A)
                 (A) (A) (A) (A) (A) (A) (A) (A) (A) (A) (A) (A)
                 (A) (A) (A) (A) (A) (A) (A) (A) (A) (A) (A) (A)
                 (A) (A) (A) (A) (A) (A) (A) (A) (A) (A) (A) (A)
                 (A) (A) (A) (A) (A) (A) (A) (A) (A) (A) (A) (A)
                 (A) (A) (A) (A) (A) (A) (A) (A) (A) (A) (A) (A)
                 (A) (A) (A) (A) (A) (A) (A) (A) (A) (A) (A) (A)
                 (A) (A) (A) (A) (A) (A) (A) (A) (A) (A) (A) (A)
                 (A) (A) (A) (A) (A) (A) (A) (A) (A) (A) (A) (A)
                 (A) (A) (A) (A) (A) (A) (A) (A) (A) (A) (A) (A)
                 (A) (A) (A) (A) (A) (A) (A) (A) (A) (A) (A) (A)
                 (A) (A) (A) (A) (A) (A) (A) (A) (A) (A) (A) (A)
                 (A) (A) (A) (A) (A) (A) (A) (A) (A) (A) (A) (A)
                 (A) (A) (A) (A) (A) (A) (A) (A) (A) (A) (A) (A)
                 (A) (A) (A) (A) (A) (A) (A) (A) (A) (A) (A) (A)
                 (A) (A) (A) (A) (A) (A) (A) (A) (A) (A) (A) (A)
                 (A) (A) (A) (A) (A) (A) (A) (A) (A) (A) (A)
 The electronic state of the initial guess is 1-A.
 Leave Link  401 at Sat Sep 10 12:49:02 2022, MaxMem=  209715200 cpu:      26.4
 (Enter /opt/gaussian/l502.exe)
 Closed shell SCF:
 Requested convergence on RMS density matrix=1.00D-08 within 128 cycles.
 Requested convergence on MAX density matrix=1.00D-06.
 Requested convergence on             energy=1.00D-06.
 No special actions if energy rises.
 Using DIIS extrapolation, IDIIS=  1040.
 Integral symmetry usage will be decided dynamically.
       453385 words used for storage of precomputed grid.
 IEnd=     1539277 IEndB=     1539277 NGot=   209715200 MDV=   208545994
 LenX=   208545994 LenY=   208192564
 Fock matrices will be formed incrementally for  20 cycles.
 Integral accuracy reduced to 1.0D-05 until final iterations.

 Cycle   1  Pass 0  IDiag  1:
 FoFCou: FMM=F IPFlag=           0 FMFlag=      100000 FMFlg1=           0
         NFxFlg=           0 DoJE=F BraDBF=F KetDBF=F FulRan=T
         Omega=  0.000000  0.000000  1.000000  0.000000  0.000000 ICntrl=       0 IOpCl=  0
         NMat0=    1 NMatS0=    1 NMatT0=    0 NMatD0=    1 NMtDS0=    0 NMtDT0=    0
         I1Cent=           0 NGrid=           0.
 Symmetry not used in FoFCou.
 E= -1827.55326094834    
 DIIS: error= 1.87D-02 at cycle   1 NSaved=   1.
 NSaved= 1 IEnMin= 1 EnMin= -1827.55326094834     IErMin= 1 ErrMin= 1.87D-02
 ErrMax= 1.87D-02 EMaxC= 1.00D-01 BMatC= 5.06D-01 BMatP= 5.06D-01
 IDIUse=3 WtCom= 8.13D-01 WtEn= 1.87D-01
 Coeff-Com:  0.100D+01
 Coeff-En:   0.100D+01
 Coeff:      0.100D+01
 Gap=     0.358 Goal=   None    Shift=    0.000
 GapD=    0.358 DampG=1.000 DampE=0.500 DampFc=0.5000 IDamp=-1.
 Damping current iteration by 5.00D-01
 RMSDP=3.76D-03 MaxDP=2.15D-01              OVMax= 2.89D-01

 Cycle   2  Pass 0  IDiag  1:
 RMSU=  1.31D-03    CP:  9.81D-01
 E= -1827.68955101008     Delta-E=       -0.136290061742 Rises=F Damp=T
 DIIS: error= 8.79D-03 at cycle   2 NSaved=   2.
 NSaved= 2 IEnMin= 2 EnMin= -1827.68955101008     IErMin= 2 ErrMin= 8.79D-03
 ErrMax= 8.79D-03 EMaxC= 1.00D-01 BMatC= 1.10D-01 BMatP= 5.06D-01
 IDIUse=3 WtCom= 9.12D-01 WtEn= 8.79D-02
 Coeff-Com:  0.244D+00 0.756D+00
 Coeff-En:   0.357D+00 0.643D+00
 Coeff:      0.254D+00 0.746D+00
 Gap=     0.252 Goal=   None    Shift=    0.000
 RMSDP=1.30D-03 MaxDP=7.62D-02 DE=-1.36D-01 OVMax= 3.39D-01

 Cycle   3  Pass 0  IDiag  1:
 RMSU=  8.78D-04    CP:  9.68D-01  8.15D-01
 E= -1828.00622593245     Delta-E=       -0.316674922369 Rises=F Damp=F
 DIIS: error= 1.16D-02 at cycle   3 NSaved=   3.
 NSaved= 3 IEnMin= 3 EnMin= -1828.00622593245     IErMin= 2 ErrMin= 8.79D-03
 ErrMax= 1.16D-02 EMaxC= 1.00D-01 BMatC= 1.05D-01 BMatP= 1.10D-01
 IDIUse=3 WtCom= 8.84D-01 WtEn= 1.16D-01
 Coeff-Com:  0.542D-01 0.485D+00 0.461D+00
 Coeff-En:   0.000D+00 0.000D+00 0.100D+01
 Coeff:      0.479D-01 0.428D+00 0.524D+00
 Gap=     0.171 Goal=   None    Shift=    0.000
 RMSDP=7.83D-04 MaxDP=6.51D-02 DE=-3.17D-01 OVMax= 8.46D-02

 Cycle   4  Pass 0  IDiag  1:
 RMSU=  3.73D-04    CP:  9.71D-01  9.15D-01  5.61D-01
 E= -1828.08614985949     Delta-E=       -0.079923927040 Rises=F Damp=F
 DIIS: error= 4.22D-03 at cycle   4 NSaved=   4.
 NSaved= 4 IEnMin= 4 EnMin= -1828.08614985949     IErMin= 4 ErrMin= 4.22D-03
 ErrMax= 4.22D-03 EMaxC= 1.00D-01 BMatC= 2.06D-02 BMatP= 1.05D-01
 IDIUse=3 WtCom= 9.58D-01 WtEn= 4.22D-02
 Coeff-Com:  0.121D-01 0.126D+00 0.324D+00 0.537D+00
 Coeff-En:   0.000D+00 0.000D+00 0.194D+00 0.806D+00
 Coeff:      0.116D-01 0.121D+00 0.319D+00 0.549D+00
 Gap=     0.173 Goal=   None    Shift=    0.000
 RMSDP=3.05D-04 MaxDP=2.01D-02 DE=-7.99D-02 OVMax= 3.05D-02

 Cycle   5  Pass 0  IDiag  1:
 RMSU=  1.21D-04    CP:  9.70D-01  8.73D-01  6.71D-01  6.27D-01
 E= -1828.10311516716     Delta-E=       -0.016965307670 Rises=F Damp=F
 DIIS: error= 1.07D-03 at cycle   5 NSaved=   5.
 NSaved= 5 IEnMin= 5 EnMin= -1828.10311516716     IErMin= 5 ErrMin= 1.07D-03
 ErrMax= 1.07D-03 EMaxC= 1.00D-01 BMatC= 1.67D-03 BMatP= 2.06D-02
 IDIUse=3 WtCom= 9.89D-01 WtEn= 1.07D-02
 Coeff-Com:  0.212D-02 0.258D-01 0.146D+00 0.340D+00 0.486D+00
 Coeff-En:   0.000D+00 0.000D+00 0.000D+00 0.368D-01 0.963D+00
 Coeff:      0.210D-02 0.255D-01 0.144D+00 0.337D+00 0.491D+00
 Gap=     0.169 Goal=   None    Shift=    0.000
 RMSDP=1.06D-04 MaxDP=5.37D-03 DE=-1.70D-02 OVMax= 1.42D-02

 Cycle   6  Pass 0  IDiag  1:
 RMSU=  3.72D-05    CP:  9.70D-01  8.79D-01  6.76D-01  6.79D-01  4.95D-01
 E= -1828.10475945044     Delta-E=       -0.001644283277 Rises=F Damp=F
 DIIS: error= 3.60D-04 at cycle   6 NSaved=   6.
 NSaved= 6 IEnMin= 6 EnMin= -1828.10475945044     IErMin= 6 ErrMin= 3.60D-04
 ErrMax= 3.60D-04 EMaxC= 1.00D-01 BMatC= 1.85D-04 BMatP= 1.67D-03
 IDIUse=3 WtCom= 9.96D-01 WtEn= 3.60D-03
 Coeff-Com: -0.243D-04-0.183D-02 0.427D-01 0.126D+00 0.298D+00 0.535D+00
 Coeff-En:   0.000D+00 0.000D+00 0.000D+00 0.000D+00 0.883D-01 0.912D+00
 Coeff:     -0.242D-04-0.183D-02 0.425D-01 0.126D+00 0.297D+00 0.537D+00
 Gap=     0.168 Goal=   None    Shift=    0.000
 RMSDP=3.19D-05 MaxDP=1.42D-03 DE=-1.64D-03 OVMax= 3.90D-03

 Cycle   7  Pass 0  IDiag  1:
 RMSU=  1.33D-05    CP:  9.70D-01  8.79D-01  6.77D-01  6.80D-01  5.73D-01
                    CP:  5.85D-01
 E= -1828.10494881849     Delta-E=       -0.000189368047 Rises=F Damp=F
 DIIS: error= 1.09D-04 at cycle   7 NSaved=   7.
 NSaved= 7 IEnMin= 7 EnMin= -1828.10494881849     IErMin= 7 ErrMin= 1.09D-04
 ErrMax= 1.09D-04 EMaxC= 1.00D-01 BMatC= 1.96D-05 BMatP= 1.85D-04
 IDIUse=3 WtCom= 9.99D-01 WtEn= 1.09D-03
 Coeff-Com: -0.446D-04-0.352D-02 0.120D-01 0.424D-01 0.131D+00 0.322D+00
 Coeff-Com:  0.495D+00
 Coeff-En:   0.000D+00 0.000D+00 0.000D+00 0.000D+00 0.000D+00 0.311D-01
 Coeff-En:   0.969D+00
 Coeff:     -0.446D-04-0.352D-02 0.120D-01 0.424D-01 0.131D+00 0.322D+00
 Coeff:      0.496D+00
 Gap=     0.169 Goal=   None    Shift=    0.000
 RMSDP=9.59D-06 MaxDP=4.04D-04 DE=-1.89D-04 OVMax= 1.07D-03

 Initial convergence to 1.0D-05 achieved.  Increase integral accuracy.
 Cycle   8  Pass 1  IDiag  1:
 E= -1828.10500650938     Delta-E=       -0.000057690893 Rises=F Damp=F
 DIIS: error= 1.75D-04 at cycle   1 NSaved=   1.
 NSaved= 1 IEnMin= 1 EnMin= -1828.10500650938     IErMin= 1 ErrMin= 1.75D-04
 ErrMax= 1.75D-04 EMaxC= 1.00D-01 BMatC= 1.20D-05 BMatP= 1.20D-05
 IDIUse=3 WtCom= 9.98D-01 WtEn= 1.75D-03
 Coeff-Com:  0.100D+01
 Coeff-En:   0.100D+01
 Coeff:      0.100D+01
 Gap=     0.169 Goal=   None    Shift=    0.000
 RMSDP=9.59D-06 MaxDP=4.04D-04 DE=-5.77D-05 OVMax= 8.73D-04

 Cycle   9  Pass 1  IDiag  1:
 RMSU=  7.95D-05    CP:  1.00D+00
 E= -1828.10501239741     Delta-E=       -0.000005888027 Rises=F Damp=F
 DIIS: error= 7.03D-05 at cycle   2 NSaved=   2.
 NSaved= 2 IEnMin= 2 EnMin= -1828.10501239741     IErMin= 2 ErrMin= 7.03D-05
 ErrMax= 7.03D-05 EMaxC= 1.00D-01 BMatC= 5.38D-06 BMatP= 1.20D-05
 IDIUse=1 WtCom= 1.00D+00 WtEn= 0.00D+00
 Coeff-Com:  0.352D+00 0.648D+00
 Coeff:      0.352D+00 0.648D+00
 Gap=     0.169 Goal=   None    Shift=    0.000
 RMSDP=8.86D-06 MaxDP=4.45D-04 DE=-5.89D-06 OVMax= 1.11D-03

 Cycle  10  Pass 1  IDiag  1:
 RMSU=  6.26D-06    CP:  1.00D+00  1.00D+00
 E= -1828.10501152108     Delta-E=        0.000000876333 Rises=F Damp=F
 DIIS: error= 7.91D-05 at cycle   3 NSaved=   3.
 NSaved= 3 IEnMin= 2 EnMin= -1828.10501239741     IErMin= 2 ErrMin= 7.03D-05
 ErrMax= 7.91D-05 EMaxC= 1.00D-01 BMatC= 6.16D-06 BMatP= 5.38D-06
 IDIUse=1 WtCom= 1.00D+00 WtEn= 0.00D+00
 Coeff-Com:  0.577D-02 0.515D+00 0.479D+00
 Coeff:      0.577D-02 0.515D+00 0.479D+00
 Gap=     0.169 Goal=   None    Shift=    0.000
 RMSDP=4.88D-06 MaxDP=2.60D-04 DE= 8.76D-07 OVMax= 6.60D-04

 Cycle  11  Pass 1  IDiag  1:
 RMSU=  8.89D-07    CP:  1.00D+00  1.01D+00  4.74D-01
 E= -1828.10501813615     Delta-E=       -0.000006615077 Rises=F Damp=F
 DIIS: error= 9.93D-06 at cycle   4 NSaved=   4.
 NSaved= 4 IEnMin= 4 EnMin= -1828.10501813615     IErMin= 4 ErrMin= 9.93D-06
 ErrMax= 9.93D-06 EMaxC= 1.00D-01 BMatC= 1.77D-07 BMatP= 5.38D-06
 IDIUse=1 WtCom= 1.00D+00 WtEn= 0.00D+00
 Coeff-Com: -0.345D-02 0.327D+00 0.316D+00 0.360D+00
 Coeff:     -0.345D-02 0.327D+00 0.316D+00 0.360D+00
 Gap=     0.169 Goal=   None    Shift=    0.000
 RMSDP=8.07D-07 MaxDP=5.95D-05 DE=-6.62D-06 OVMax= 9.24D-05

 Cycle  12  Pass 1  IDiag  1:
 RMSU=  2.23D-07    CP:  1.00D+00  1.01D+00  4.89D-01  4.19D-01
 E= -1828.10501830427     Delta-E=       -0.000000168120 Rises=F Damp=F
 DIIS: error= 1.92D-06 at cycle   5 NSaved=   5.
 NSaved= 5 IEnMin= 5 EnMin= -1828.10501830427     IErMin= 5 ErrMin= 1.92D-06
 ErrMax= 1.92D-06 EMaxC= 1.00D-01 BMatC= 4.20D-09 BMatP= 1.77D-07
 IDIUse=1 WtCom= 1.00D+00 WtEn= 0.00D+00
 Coeff-Com: -0.229D-02 0.176D+00 0.170D+00 0.217D+00 0.438D+00
 Coeff:     -0.229D-02 0.176D+00 0.170D+00 0.217D+00 0.438D+00
 Gap=     0.169 Goal=   None    Shift=    0.000
 RMSDP=1.44D-07 MaxDP=8.63D-06 DE=-1.68D-07 OVMax= 1.37D-05

 Cycle  13  Pass 1  IDiag  1:
 RMSU=  7.37D-08    CP:  1.00D+00  1.01D+00  4.89D-01  4.33D-01  6.90D-01
 E= -1828.10501830805     Delta-E=       -0.000000003780 Rises=F Damp=F
 DIIS: error= 5.53D-07 at cycle   6 NSaved=   6.
 NSaved= 6 IEnMin= 6 EnMin= -1828.10501830805     IErMin= 6 ErrMin= 5.53D-07
 ErrMax= 5.53D-07 EMaxC= 1.00D-01 BMatC= 3.55D-10 BMatP= 4.20D-09
 IDIUse=1 WtCom= 1.00D+00 WtEn= 0.00D+00
 Coeff-Com: -0.104D-02 0.733D-01 0.709D-01 0.954D-01 0.266D+00 0.495D+00
 Coeff:     -0.104D-02 0.733D-01 0.709D-01 0.954D-01 0.266D+00 0.495D+00
 Gap=     0.169 Goal=   None    Shift=    0.000
 RMSDP=3.91D-08 MaxDP=2.74D-06 DE=-3.78D-09 OVMax= 4.25D-06

 Cycle  14  Pass 1  IDiag  1:
 RMSU=  2.18D-08    CP:  1.00D+00  1.01D+00  4.88D-01  4.36D-01  7.18D-01
                    CP:  7.94D-01
 E= -1828.10501830836     Delta-E=       -0.000000000311 Rises=F Damp=F
 DIIS: error= 1.56D-07 at cycle   7 NSaved=   7.
 NSaved= 7 IEnMin= 7 EnMin= -1828.10501830836     IErMin= 7 ErrMin= 1.56D-07
 ErrMax= 1.56D-07 EMaxC= 1.00D-01 BMatC= 3.19D-11 BMatP= 3.55D-10
 IDIUse=1 WtCom= 1.00D+00 WtEn= 0.00D+00
 Coeff-Com: -0.276D-03 0.176D-01 0.170D-01 0.248D-01 0.897D-01 0.274D+00
 Coeff-Com:  0.577D+00
 Coeff:     -0.276D-03 0.176D-01 0.170D-01 0.248D-01 0.897D-01 0.274D+00
 Coeff:      0.577D+00
 Gap=     0.169 Goal=   None    Shift=    0.000
 RMSDP=1.46D-08 MaxDP=7.90D-07 DE=-3.11D-10 OVMax= 2.02D-06

 Cycle  15  Pass 1  IDiag  1:
 RMSU=  7.35D-09    CP:  1.00D+00  1.01D+00  4.89D-01  4.36D-01  7.27D-01
                    CP:  8.26D-01  7.03D-01
 E= -1828.10501830836     Delta-E=        0.000000000002 Rises=F Damp=F
 DIIS: error= 8.24D-08 at cycle   8 NSaved=   8.
 NSaved= 8 IEnMin= 7 EnMin= -1828.10501830836     IErMin= 8 ErrMin= 8.24D-08
 ErrMax= 8.24D-08 EMaxC= 1.00D-01 BMatC= 6.52D-12 BMatP= 3.19D-11
 IDIUse=1 WtCom= 1.00D+00 WtEn= 0.00D+00
 Coeff-Com:  0.385D-05-0.139D-02-0.139D-02-0.576D-03 0.105D-01 0.864D-01
 Coeff-Com:  0.357D+00 0.549D+00
 Coeff:      0.385D-05-0.139D-02-0.139D-02-0.576D-03 0.105D-01 0.864D-01
 Coeff:      0.357D+00 0.549D+00
 Gap=     0.169 Goal=   None    Shift=    0.000
 RMSDP=5.83D-09 MaxDP=2.84D-07 DE= 1.82D-12 OVMax= 1.07D-06

 SCF Done:  E(RB3LYP) =  -1828.10501831     A.U. after   15 cycles
             Convg  =    0.5835D-08             -V/T =  2.0055
 KE= 1.818054448581D+03 PE=-1.054252673994D+04 EE= 3.760650291188D+03
 Leave Link  502 at Sat Sep 10 13:02:49 2022, MaxMem=  209715200 cpu:    6073.0
 (Enter /opt/gaussian/l601.exe)
 Copying SCF densities to generalized density rwf, IOpCl= 0 IROHF=0.

 **********************************************************************

            Population analysis using the SCF density.

 **********************************************************************

 Orbital symmetries:
       Occupied  (A) (A) (A) (A) (A) (A) (A) (A) (A) (A) (A) (A)
                 (A) (A) (A) (A) (A) (A) (A) (A) (A) (A) (A) (A)
                 (A) (A) (A) (A) (A) (A) (A) (A) (A) (A) (A) (A)
                 (A) (A) (A) (A) (A) (A) (A) (A) (A) (A) (A) (A)
                 (A) (A) (A) (A) (A) (A) (A) (A) (A) (A) (A) (A)
                 (A) (A) (A) (A) (A) (A) (A) (A) (A) (A) (A) (A)
                 (A) (A) (A) (A) (A) (A) (A) (A) (A) (A) (A) (A)
                 (A) (A) (A) (A) (A) (A) (A) (A) (A) (A) (A) (A)
                 (A) (A) (A) (A) (A) (A) (A) (A) (A) (A) (A) (A)
                 (A) (A) (A) (A) (A) (A) (A) (A) (A) (A)
       Virtual   (A) (A) (A) (A) (A) (A) (A) (A) (A) (A) (A) (A)
                 (A) (A) (A) (A) (A) (A) (A) (A) (A) (A) (A) (A)
                 (A) (A) (A) (A) (A) (A) (A) (A) (A) (A) (A) (A)
                 (A) (A) (A) (A) (A) (A) (A) (A) (A) (A) (A) (A)
                 (A) (A) (A) (A) (A) (A) (A) (A) (A) (A) (A) (A)
                 (A) (A) (A) (A) (A) (A) (A) (A) (A) (A) (A) (A)
                 (A) (A) (A) (A) (A) (A) (A) (A) (A) (A) (A) (A)
                 (A) (A) (A) (A) (A) (A) (A) (A) (A) (A) (A) (A)
                 (A) (A) (A) (A) (A) (A) (A) (A) (A) (A) (A) (A)
                 (A) (A) (A) (A) (A) (A) (A) (A) (A) (A) (A) (A)
                 (A) (A) (A) (A) (A) (A) (A) (A) (A) (A) (A) (A)
                 (A) (A) (A) (A) (A) (A) (A) (A) (A) (A) (A) (A)
                 (A) (A) (A) (A) (A) (A) (A) (A) (A) (A) (A) (A)
                 (A) (A) (A) (A) (A) (A) (A) (A) (A) (A) (A) (A)
                 (A) (A) (A) (A) (A) (A) (A) (A) (A) (A) (A) (A)
                 (A) (A) (A) (A) (A) (A) (A) (A) (A) (A) (A) (A)
                 (A) (A) (A) (A) (A) (A) (A) (A) (A) (A) (A) (A)
                 (A) (A) (A) (A) (A) (A) (A) (A) (A) (A) (A) (A)
                 (A) (A) (A) (A) (A) (A) (A) (A) (A) (A) (A) (A)
                 (A) (A) (A) (A) (A) (A) (A) (A) (A) (A) (A) (A)
                 (A) (A) (A) (A) (A) (A) (A) (A) (A) (A) (A) (A)
                 (A) (A) (A) (A) (A) (A) (A) (A) (A) (A) (A) (A)
                 (A) (A) (A) (A) (A) (A) (A) (A) (A) (A) (A) (A)
                 (A) (A) (A) (A) (A) (A) (A) (A) (A) (A) (A) (A)
                 (A) (A) (A) (A) (A) (A) (A) (A) (A) (A) (A) (A)
                 (A) (A) (A) (A) (A) (A) (A) (A) (A) (A) (A) (A)
                 (A) (A) (A) (A) (A) (A) (A) (A) (A) (A) (A) (A)
                 (A) (A) (A) (A) (A) (A) (A) (A) (A) (A) (A) (A)
                 (A) (A) (A) (A) (A) (A) (A) (A) (A) (A) (A) (A)
                 (A) (A) (A) (A) (A) (A) (A) (A) (A) (A) (A) (A)
                 (A) (A) (A) (A) (A) (A) (A) (A) (A) (A) (A) (A)
                 (A) (A) (A) (A) (A) (A) (A) (A) (A) (A) (A) (A)
                 (A) (A) (A) (A) (A) (A) (A) (A) (A) (A) (A) (A)
                 (A) (A) (A) (A) (A) (A) (A) (A) (A) (A) (A) (A)
                 (A) (A) (A) (A) (A) (A) (A) (A) (A) (A) (A) (A)
                 (A) (A) (A) (A) (A) (A) (A) (A) (A) (A) (A) (A)
                 (A) (A) (A) (A) (A) (A) (A) (A) (A) (A) (A)
 The electronic state is 1-A.
 Alpha  occ. eigenvalues -- -101.56905 -19.13644 -14.41488 -14.39853 -14.39287
 Alpha  occ. eigenvalues --  -14.35962 -14.35064 -14.33211 -10.31748 -10.28024
 Alpha  occ. eigenvalues --  -10.27228 -10.26549 -10.25511 -10.25268 -10.25162
 Alpha  occ. eigenvalues --  -10.24392 -10.24317 -10.23441 -10.22882 -10.22817
 Alpha  occ. eigenvalues --  -10.21598 -10.21574 -10.21530 -10.21330 -10.21251
 Alpha  occ. eigenvalues --  -10.21037 -10.20715 -10.20665 -10.20610 -10.20597
 Alpha  occ. eigenvalues --  -10.20229 -10.20067 -10.19640  -9.48714  -7.24984
 Alpha  occ. eigenvalues --   -7.23998  -7.23957  -1.09752  -1.06880  -0.98171
 Alpha  occ. eigenvalues --   -0.97310  -0.94788  -0.92905  -0.89775  -0.87768
 Alpha  occ. eigenvalues --   -0.86654  -0.84440  -0.82164  -0.79159  -0.78226
 Alpha  occ. eigenvalues --   -0.77935  -0.77219  -0.76698  -0.75340  -0.74525
 Alpha  occ. eigenvalues --   -0.72976  -0.66694  -0.66527  -0.65119  -0.64849
 Alpha  occ. eigenvalues --   -0.64083  -0.62711  -0.62146  -0.61786  -0.59571
 Alpha  occ. eigenvalues --   -0.57440  -0.55488  -0.54725  -0.53901  -0.53355
 Alpha  occ. eigenvalues --   -0.52833  -0.52487  -0.51303  -0.50186  -0.49801
 Alpha  occ. eigenvalues --   -0.48854  -0.48035  -0.47244  -0.46886  -0.46452
 Alpha  occ. eigenvalues --   -0.46293  -0.45283  -0.45119  -0.44894  -0.44580
 Alpha  occ. eigenvalues --   -0.44116  -0.43906  -0.43715  -0.42868  -0.42501
 Alpha  occ. eigenvalues --   -0.41237  -0.40925  -0.40656  -0.40163  -0.39464
 Alpha  occ. eigenvalues --   -0.38408  -0.37809  -0.37281  -0.36948  -0.36903
 Alpha  occ. eigenvalues --   -0.36067  -0.35802  -0.34112  -0.33354  -0.32035
 Alpha  occ. eigenvalues --   -0.31523  -0.31075  -0.29433  -0.28631  -0.28368
 Alpha  occ. eigenvalues --   -0.27912  -0.27442  -0.26925  -0.26856  -0.26105
 Alpha  occ. eigenvalues --   -0.25177  -0.23779  -0.23420
 Alpha virt. eigenvalues --   -0.06526  -0.05372  -0.04860  -0.04442  -0.03325
 Alpha virt. eigenvalues --   -0.02606  -0.01309   0.00474   0.00815   0.01572
 Alpha virt. eigenvalues --    0.03086   0.03530   0.05490   0.05740   0.06207
 Alpha virt. eigenvalues --    0.06916   0.07381   0.07807   0.08722   0.09827
 Alpha virt. eigenvalues --    0.09955   0.10490   0.10694   0.11012   0.11147
 Alpha virt. eigenvalues --    0.12358   0.12593   0.13201   0.13411   0.13959
 Alpha virt. eigenvalues --    0.14469   0.15193   0.15697   0.15924   0.16298
 Alpha virt. eigenvalues --    0.17122   0.18919   0.19483   0.20342   0.20851
 Alpha virt. eigenvalues --    0.21896   0.22531   0.22808   0.23755   0.23982
 Alpha virt. eigenvalues --    0.24861   0.25782   0.26868   0.27542   0.27777
 Alpha virt. eigenvalues --    0.28553   0.29243   0.29941   0.30538   0.31024
 Alpha virt. eigenvalues --    0.31535   0.31783   0.32986   0.33026   0.34072
 Alpha virt. eigenvalues --    0.35513   0.35788   0.36310   0.36952   0.37550
 Alpha virt. eigenvalues --    0.38950   0.39830   0.40751   0.42435   0.42906
 Alpha virt. eigenvalues --    0.43609   0.43998   0.44739   0.44822   0.45467
 Alpha virt. eigenvalues --    0.45606   0.45757   0.45897   0.46358   0.46461
 Alpha virt. eigenvalues --    0.46641   0.47020   0.47245   0.47548   0.47750
 Alpha virt. eigenvalues --    0.48120   0.48543   0.48813   0.48854   0.49467
 Alpha virt. eigenvalues --    0.49711   0.49790   0.50244   0.50639   0.50734
 Alpha virt. eigenvalues --    0.50987   0.51176   0.52100   0.52332   0.52945
 Alpha virt. eigenvalues --    0.53472   0.53592   0.53758   0.54034   0.54530
 Alpha virt. eigenvalues --    0.54900   0.55084   0.55454   0.55791   0.55874
 Alpha virt. eigenvalues --    0.56611   0.56989   0.58738   0.58901   0.59100
 Alpha virt. eigenvalues --    0.59674   0.59851   0.60229   0.60661   0.61136
 Alpha virt. eigenvalues --    0.61427   0.61940   0.62097   0.62578   0.63232
 Alpha virt. eigenvalues --    0.64039   0.64199   0.64332   0.64691   0.64981
 Alpha virt. eigenvalues --    0.65442   0.65890   0.66254   0.66753   0.67460
 Alpha virt. eigenvalues --    0.67722   0.67849   0.68443   0.69428   0.69495
 Alpha virt. eigenvalues --    0.70002   0.70100   0.70365   0.71063   0.71354
 Alpha virt. eigenvalues --    0.71859   0.72391   0.72515   0.73584   0.74715
 Alpha virt. eigenvalues --    0.75083   0.76573   0.77519   0.78511   0.78804
 Alpha virt. eigenvalues --    0.79718   0.80077   0.81542   0.82558   0.83713
 Alpha virt. eigenvalues --    0.83971   0.84078   0.84984   0.85692   0.86195
 Alpha virt. eigenvalues --    0.86665   0.86955   0.87552   0.87720   0.88093
 Alpha virt. eigenvalues --    0.88464   0.89080   0.89299   0.89682   0.90518
 Alpha virt. eigenvalues --    0.90852   0.91437   0.92031   0.92377   0.92687
 Alpha virt. eigenvalues --    0.93833   0.94114   0.94780   0.95123   0.95469
 Alpha virt. eigenvalues --    0.96750   0.97400   0.98096   0.98762   0.99203
 Alpha virt. eigenvalues --    0.99818   1.00181   1.00309   1.00498   1.01046
 Alpha virt. eigenvalues --    1.01732   1.02097   1.02437   1.03206   1.03574
 Alpha virt. eigenvalues --    1.03689   1.04133   1.04629   1.05294   1.05704
 Alpha virt. eigenvalues --    1.06090   1.06934   1.07456   1.08159   1.08844
 Alpha virt. eigenvalues --    1.09544   1.10309   1.10432   1.10602   1.11539
 Alpha virt. eigenvalues --    1.11847   1.12916   1.13562   1.15094   1.15471
 Alpha virt. eigenvalues --    1.16743   1.17132   1.18137   1.18638   1.19841
 Alpha virt. eigenvalues --    1.21539   1.21844   1.22835   1.23259   1.23617
 Alpha virt. eigenvalues --    1.23909   1.25263   1.26756   1.28318   1.29684
 Alpha virt. eigenvalues --    1.30209   1.31071   1.31393   1.32858   1.33689
 Alpha virt. eigenvalues --    1.34358   1.35529   1.35608   1.37609   1.38274
 Alpha virt. eigenvalues --    1.39351   1.40101   1.41737   1.43117   1.43602
 Alpha virt. eigenvalues --    1.45449   1.45831   1.46465   1.47010   1.47328
 Alpha virt. eigenvalues --    1.48230   1.48721   1.48824   1.49209   1.49983
 Alpha virt. eigenvalues --    1.50328   1.50612   1.51323   1.51406   1.52187
 Alpha virt. eigenvalues --    1.54374   1.54877   1.55446   1.55744   1.56166
 Alpha virt. eigenvalues --    1.56871   1.57164   1.57921   1.58703   1.58799
 Alpha virt. eigenvalues --    1.59345   1.59979   1.60051   1.60761   1.61033
 Alpha virt. eigenvalues --    1.61482   1.61855   1.62385   1.62911   1.63026
 Alpha virt. eigenvalues --    1.63420   1.64015   1.64487   1.65014   1.65056
 Alpha virt. eigenvalues --    1.65785   1.66321   1.67116   1.67426   1.68158
 Alpha virt. eigenvalues --    1.69261   1.69353   1.69725   1.70337   1.70912
 Alpha virt. eigenvalues --    1.71236   1.71809   1.72393   1.72901   1.73802
 Alpha virt. eigenvalues --    1.74203   1.74484   1.75177   1.75373   1.76213
 Alpha virt. eigenvalues --    1.77030   1.77907   1.78532   1.78743   1.79530
 Alpha virt. eigenvalues --    1.80033   1.80577   1.80825   1.81339   1.82262
 Alpha virt. eigenvalues --    1.83020   1.83084   1.83775   1.84034   1.84390
 Alpha virt. eigenvalues --    1.84610   1.85108   1.85846   1.86461   1.86649
 Alpha virt. eigenvalues --    1.87563   1.88286   1.88797   1.89483   1.89687
 Alpha virt. eigenvalues --    1.91083   1.91604   1.92001   1.92833   1.93750
 Alpha virt. eigenvalues --    1.94767   1.95861   1.96121   1.97162   1.97448
 Alpha virt. eigenvalues --    1.98025   1.98428   1.98887   1.99705   1.99915
 Alpha virt. eigenvalues --    2.01174   2.02664   2.02968   2.03674   2.04155
 Alpha virt. eigenvalues --    2.04531   2.05372   2.06108   2.07235   2.09257
 Alpha virt. eigenvalues --    2.10508   2.11265   2.11794   2.12008   2.14006
 Alpha virt. eigenvalues --    2.15544   2.15657   2.16793   2.18168   2.19295
 Alpha virt. eigenvalues --    2.20561   2.21516   2.21749   2.22651   2.24529
 Alpha virt. eigenvalues --    2.26498   2.28524   2.28774   2.29240   2.30350
 Alpha virt. eigenvalues --    2.32182   2.33148   2.33843   2.37669   2.38814
 Alpha virt. eigenvalues --    2.38998   2.39202   2.39527   2.40151   2.40701
 Alpha virt. eigenvalues --    2.41348   2.43030   2.43803   2.44354   2.45345
 Alpha virt. eigenvalues --    2.45926   2.46618   2.47272   2.47975   2.49461
 Alpha virt. eigenvalues --    2.51101   2.51747   2.52688   2.55337   2.58263
 Alpha virt. eigenvalues --    2.59237   2.61514   2.62019   2.62765   2.64291
 Alpha virt. eigenvalues --    2.65233   2.68114   2.68496   2.69742   2.70471
 Alpha virt. eigenvalues --    2.70886   2.71885   2.72854   2.73437   2.76661
 Alpha virt. eigenvalues --    2.77892   2.79386   2.80876   2.81697   2.82531
 Alpha virt. eigenvalues --    2.83575   2.84616   2.86067   2.88197   2.90043
 Alpha virt. eigenvalues --    2.93089   2.95566   2.96358   2.97985   3.06986
 Alpha virt. eigenvalues --    3.09648   3.14145   3.26522   3.38398   3.40470
 Alpha virt. eigenvalues --    3.48411   3.52692   3.53471
          Condensed to atoms (all electrons):
 Mulliken atomic charges:
              1
     1  Cl  -0.063333
     2  C   -0.186267
     3  C    0.178288
     4  N   -0.162416
     5  C    0.099737
     6  C   -0.149171
     7  C    0.187641
     8  C    0.148695
     9  N   -0.284466
    10  C    0.131023
    11  O   -0.230608
    12  C    0.121304
    13  N   -0.228729
    14  N   -0.061064
    15  N   -0.180499
    16  C    0.011569
    17  C    0.045268
    18  C    0.038461
    19  C    0.039775
    20  C    0.028617
    21  C    0.213382
    22  C    0.099027
    23  C    0.024649
    24  C    0.018490
    25  C    0.034548
    26  C    0.017615
    27  C    0.079565
    28  C   -0.043482
    29  C    0.074894
    30  C   -0.008025
    31  C    0.105818
    32  N   -0.172662
    33  C    0.099515
    34  H    0.014233
    35  H    0.015023
    36  H   -0.018049
    37  H    0.044079
    38  H    0.055634
    39  H    0.055551
    40  H    0.062737
    41  H   -0.021136
    42  H   -0.025819
    43  H   -0.023155
    44  H   -0.027475
    45  H   -0.024833
    46  H   -0.035592
    47  H   -0.027223
    48  H   -0.010557
    49  H   -0.026422
    50  H   -0.022344
    51  H   -0.002476
    52  H   -0.009332
 Sum of Mulliken atomic charges =   0.00000
 Mulliken charges with hydrogens summed into heavy atoms:
              1
     1  Cl  -0.063333
     2  C   -0.186267
     3  C    0.192521
     4  N   -0.162416
     5  C    0.114760
     6  C   -0.149171
     7  C    0.169592
     8  C    0.248408
     9  N   -0.284466
    10  C    0.131023
    11  O   -0.230608
    12  C    0.239592
    13  N   -0.228729
    14  N   -0.061064
    15  N   -0.180499
    16  C    0.011569
    17  C    0.024133
    18  C    0.012642
    19  C    0.016621
    20  C    0.001142
    21  C    0.213382
    22  C    0.099027
    23  C   -0.000184
    24  C   -0.017103
    25  C    0.034548
    26  C   -0.009609
    27  C    0.069009
    28  C   -0.043482
    29  C    0.048472
    30  C   -0.030369
    31  C    0.103342
    32  N   -0.172662
    33  C    0.090183
 Sum of Mulliken charges with hydrogens summed into heavy atoms =   0.00000
 Electronic spatial extent (au):  <R**2>=          21700.2887
 Charge=              0.0000 electrons
 Dipole moment (field-independent basis, Debye):
    X=              1.0695    Y=              5.0397    Z=              1.5409  Tot=              5.3774
 Quadrupole moment (field-independent basis, Debye-Ang):
   XX=           -208.7009   YY=           -204.4820   ZZ=           -194.8538
   XY=              1.6870   XZ=              0.9561   YZ=            -12.6517
 Traceless Quadrupole moment (field-independent basis, Debye-Ang):
   XX=             -6.0220   YY=             -1.8031   ZZ=              7.8251
   XY=              1.6870   XZ=              0.9561   YZ=            -12.6517
 Octapole moment (field-independent basis, Debye-Ang**2):
  XXX=            -27.1140  YYY=             23.4323  ZZZ=              9.4162  XYY=            -15.7266
  XXY=             73.8349  XXZ=            171.8109  XZZ=              8.3385  YZZ=             23.7754
  YYZ=             27.8512  XYZ=             52.9357
 Hexadecapole moment (field-independent basis, Debye-Ang**3):
 XXXX=         -19858.3410 YYYY=          -8767.2643 ZZZZ=          -1714.7753 XXXY=            454.1785
 XXXZ=            700.7960 YYYX=             37.5077 YYYZ=            -67.0263 ZZZX=            -59.0931
 ZZZY=           -114.1384 XXYY=          -4778.4648 XXZZ=          -3526.8877 YYZZ=          -1735.0721
 XXYZ=           -281.6384 YYXZ=           -199.8048 ZZXY=            -63.8329
 N-N= 3.135716981861D+03 E-N=-1.054252674593D+04  KE= 1.818054448581D+03
 No NMR shielding tensors so no spin-rotation constants.
 Leave Link  601 at Sat Sep 10 13:02:49 2022, MaxMem=  209715200 cpu:       4.3
 (Enter /opt/gaussian/l602.exe)
 Breneman (CHELPG) radii used.
 Read replacement radii for each type of atom:
 Rad(35) =   1.900000000000D+00
 Atom Element Radius
    1    17    2.00
    2     6    1.50
    3     6    1.50
    4     7    1.70
    5     6    1.50
    6     6    1.50
    7     6    1.50
    8     6    1.50
    9     7    1.70
   10     6    1.50
   11     8    1.70
   12     6    1.50
   13     7    1.70
   14     7    1.70
   15     7    1.70
   16     6    1.50
   17     6    1.50
   18     6    1.50
   19     6    1.50
   20     6    1.50
   21     6    1.50
   22     6    1.50
   23     6    1.50
   24     6    1.50
   25     6    1.50
   26     6    1.50
   27     6    1.50
   28     6    1.50
   29     6    1.50
   30     6    1.50
   31     6    1.50
   32     7    1.70
   33     6    1.50
   34     1    1.45
   35     1    1.45
   36     1    1.45
   37     1    1.45
   38     1    1.45
   39     1    1.45
   40     1    1.45
   41     1    1.45
   42     1    1.45
   43     1    1.45
   44     1    1.45
   45     1    1.45
   46     1    1.45
   47     1    1.45
   48     1    1.45
   49     1    1.45
   50     1    1.45
   51     1    1.45
   52     1    1.45
 Generate Potential Derived Charges using the Breneman model, NDens= 1.
 Grid spacing= 0.300 Box extension= 2.800
 NStep X,Y,Z=   71     57     39   Total possible points=      157833
 Number of Points to Fit=   28781

 **********************************************************************

            Electrostatic Properties Using The SCF Density

 **********************************************************************

       Atomic Center    1 is at  -2.893938  5.960631 -0.371320
       Atomic Center    2 is at  -2.138029  4.463021  0.133980
       Atomic Center    3 is at  -2.083369  4.131761  1.494100
       Atomic Center    4 is at  -1.522389  3.002251  1.928600
       Atomic Center    5 is at  -0.994469  2.167260  1.021260
       Atomic Center    6 is at  -0.998609  2.407350 -0.359000
       Atomic Center    7 is at  -1.594109  3.594571 -0.807070
       Atomic Center    8 is at  -0.379349  1.456180 -1.374800
       Atomic Center    9 is at   0.019990  0.137980 -0.872930
       Atomic Center   10 is at  -0.913670 -0.875140 -0.671470
       Atomic Center   11 is at  -0.635370 -1.956850 -0.191850
       Atomic Center   12 is at  -2.362070 -0.553709 -1.096770
       Atomic Center   13 is at  -3.235420 -1.684049 -0.923920
       Atomic Center   14 is at  -3.685040 -2.352859 -2.031740
       Atomic Center   15 is at  -4.447571 -3.323699 -1.666590
       Atomic Center   16 is at  -4.521751 -3.326669 -0.286420
       Atomic Center   17 is at  -5.225751 -4.169158  0.591890
       Atomic Center   18 is at  -5.112031 -3.913569  1.951170
       Atomic Center   19 is at  -4.314031 -2.846509  2.437040
       Atomic Center   20 is at  -3.608450 -2.006819  1.584350
       Atomic Center   21 is at  -3.730960 -2.268199  0.209840
       Atomic Center   22 is at   1.411880 -0.083440 -0.591690
       Atomic Center   23 is at   2.187680  0.946430 -0.037740
       Atomic Center   24 is at   3.551520  0.764259  0.192830
       Atomic Center   25 is at   4.186800 -0.450821 -0.110380
       Atomic Center   26 is at   3.395540 -1.476311 -0.660550
       Atomic Center   27 is at   2.034830 -1.303180 -0.902160
       Atomic Center   28 is at   5.636590 -0.643971  0.137790
       Atomic Center   29 is at   6.275990 -0.119812  1.273410
       Atomic Center   30 is at   7.642140 -0.332862  1.449290
       Atomic Center   31 is at   8.334970 -1.069662  0.484920
       Atomic Center   32 is at   7.754520 -1.577782 -0.610860
       Atomic Center   33 is at   6.444530 -1.360872 -0.766630
       Atomic Center   34 is at  -2.509959  4.804341  2.243440
       Atomic Center   35 is at  -0.544039  1.253690  1.419510
       Atomic Center   36 is at  -1.637039  3.841061 -1.870440
       Atomic Center   37 is at  -1.074239  1.334730 -2.220290
       Atomic Center   38 is at   0.520211  1.921470 -1.803200
       Atomic Center   39 is at  -2.747630  0.311571 -0.534400
       Atomic Center   40 is at  -2.403410 -0.306729 -2.167290
       Atomic Center   41 is at  -5.834121 -4.987518  0.204120
       Atomic Center   42 is at  -5.642191 -4.544828  2.667100
       Atomic Center   43 is at  -4.247930 -2.684949  3.515230
       Atomic Center   44 is at  -2.983200 -1.200429  1.968960
       Atomic Center   45 is at   1.734141  1.903830  0.222510
       Atomic Center   46 is at   4.131631  1.593669  0.602260
       Atomic Center   47 is at   3.847960 -2.442921 -0.890000
       Atomic Center   48 is at   1.452770 -2.123160 -1.315440
       Atomic Center   49 is at   5.701770  0.429359  2.023150
       Atomic Center   50 is at   8.162670  0.055948  2.326890
       Atomic Center   51 is at   9.407190 -1.262192  0.596620
       Atomic Center   52 is at   6.001760 -1.766541 -1.682550
   28781 points will be used for fitting atomic charges
 Fitting point charges to electrostatic potential
 Charges from ESP fit, RMS=   0.00413 RRMS=   0.24231:
 Charge=   0.00000 Dipole=     1.0753     4.8391     1.5090 Tot=     5.1817
              1
     1  Cl  -0.088578
     2  C   -0.122243
     3  C    0.339122
     4  N   -0.548080
     5  C    0.368653
     6  C   -0.106644
     7  C    0.049985
     8  C    0.042995
     9  N   -0.426461
    10  C    0.653128
    11  O   -0.508408
    12  C   -0.107923
    13  N    0.330387
    14  N   -0.227883
    15  N   -0.336858
    16  C    0.402281
    17  C   -0.250295
    18  C   -0.054241
    19  C   -0.102309
    20  C   -0.147318
    21  C   -0.077082
    22  C    0.266458
    23  C   -0.126702
    24  C   -0.104661
    25  C    0.024846
    26  C   -0.079722
    27  C   -0.185846
    28  C   -0.127094
    29  C    0.094347
    30  C   -0.295623
    31  C    0.330769
    32  N   -0.523669
    33  C    0.311331
    34  H    0.033817
    35  H    0.005316
    36  H    0.079741
    37  H    0.105343
    38  H    0.044445
    39  H   -0.000466
    40  H    0.031927
    41  H    0.128071
    42  H    0.089131
    43  H    0.095568
    44  H    0.118284
    45  H    0.074562
    46  H    0.088819
    47  H    0.097076
    48  H    0.142886
    49  H    0.061042
    50  H    0.115621
    51  H    0.016113
    52  H    0.006043
 Charges from ESP fit with hydrogens summed into heavy atoms:
              1
     1  Cl  -0.088578
     2  C   -0.122243
     3  C    0.372939
     4  N   -0.548080
     5  C    0.373968
     6  C   -0.106644
     7  C    0.129726
     8  C    0.192783
     9  N   -0.426461
    10  C    0.653128
    11  O   -0.508408
    12  C   -0.076462
    13  N    0.330387
    14  N   -0.227883
    15  N   -0.336858
    16  C    0.402281
    17  C   -0.122225
    18  C    0.034889
    19  C   -0.006741
    20  C   -0.029034
    21  C   -0.077082
    22  C    0.266458
    23  C   -0.052140
    24  C   -0.015842
    25  C    0.024846
    26  C    0.017354
    27  C   -0.042960
    28  C   -0.127094
    29  C    0.155389
    30  C   -0.180002
    31  C    0.346882
    32  N   -0.523669
    33  C    0.317374
    34  H    0.000000
    35  H    0.000000
    36  H    0.000000
    37  H    0.000000
    38  H    0.000000
    39  H    0.000000
    40  H    0.000000
    41  H    0.000000
    42  H    0.000000
    43  H    0.000000
    44  H    0.000000
    45  H    0.000000
    46  H    0.000000
    47  H    0.000000
    48  H    0.000000
    49  H    0.000000
    50  H    0.000000
    51  H    0.000000
    52  H    0.000000
 -----------------------------------------------------------------

              Electrostatic Properties (Atomic Units)

 -----------------------------------------------------------------
    Center     Electric         -------- Electric Field --------
               Potential          X             Y             Z
 -----------------------------------------------------------------
    1 Atom    -64.385880
    2 Atom    -14.667247
    3 Atom    -14.690304
    4 Atom    -18.354503
    5 Atom    -14.693516
    6 Atom    -14.703857
    7 Atom    -14.704387
    8 Atom    -14.666740
    9 Atom    -18.303083
   10 Atom    -14.625431
   11 Atom    -22.353858
   12 Atom    -14.674242
   13 Atom    -18.289688
   14 Atom    -18.327636
   15 Atom    -18.366125
   16 Atom    -14.734680
   17 Atom    -14.745891
   18 Atom    -14.749463
   19 Atom    -14.743838
   20 Atom    -14.739306
   21 Atom    -14.711524
   22 Atom    -14.691064
   23 Atom    -14.734349
   24 Atom    -14.736635
   25 Atom    -14.730258
   26 Atom    -14.740102
   27 Atom    -14.741105
   28 Atom    -14.731274
   29 Atom    -14.731979
   30 Atom    -14.740804
   31 Atom    -14.716971
   32 Atom    -18.381760
   33 Atom    -14.716642
   34 Atom     -1.064640
   35 Atom     -1.067575
   36 Atom     -1.042987
   37 Atom     -1.050637
   38 Atom     -1.050199
   39 Atom     -1.049465
   40 Atom     -1.046108
   41 Atom     -1.087337
   42 Atom     -1.093484
   43 Atom     -1.090111
   44 Atom     -1.078623
   45 Atom     -1.069746
   46 Atom     -1.077977
   47 Atom     -1.083308
   48 Atom     -1.085210
   49 Atom     -1.074907
   50 Atom     -1.077702
   51 Atom     -1.091227
   52 Atom     -1.091232
 -----------------------------------------------------------------
 Leave Link  602 at Sat Sep 10 13:03:05 2022, MaxMem=  209715200 cpu:     113.4
 (Enter /opt/gaussian/l9999.exe)
 1\1\GINC-LQCAPF-6\SP\RB3LYP\CC-pVDZ\C25H19Cl1N6O1\LQCAPF-6\10-Sep-2022
 \0\\#p b3lyp/cc-pvdz pop=(chelpg,readradii)\\Mol34.log\\0,1\Cl,0,-2.89
 394,5.96063,-0.37132\C,0,-2.13803,4.46302,0.13398\C,0,-2.08337,4.13176
 ,1.4941\N,0,-1.52239,3.00225,1.9286\C,0,-0.99447,2.16726,1.02126\C,0,-
 0.99861,2.40735,-0.359\C,0,-1.59411,3.59457,-0.80707\C,0,-0.37935,1.45
 618,-1.3748\N,0,0.01999,0.13798,-0.87293\C,0,-0.91367,-0.87514,-0.6714
 7\O,0,-0.63537,-1.95685,-0.19185\C,0,-2.36207,-0.55371,-1.09677\N,0,-3
 .23542,-1.68405,-0.92392\N,0,-3.68504,-2.35286,-2.03174\N,0,-4.44757,-
 3.3237,-1.66659\C,0,-4.52175,-3.32667,-0.28642\C,0,-5.22575,-4.16916,0
 .59189\C,0,-5.11203,-3.91357,1.95117\C,0,-4.31403,-2.84651,2.43704\C,0
 ,-3.60845,-2.00682,1.58435\C,0,-3.73096,-2.2682,0.20984\C,0,1.41188,-0
 .08344,-0.59169\C,0,2.18768,0.94643,-0.03774\C,0,3.55152,0.76426,0.192
 83\C,0,4.1868,-0.45082,-0.11038\C,0,3.39554,-1.47631,-0.66055\C,0,2.03
 483,-1.30318,-0.90216\C,0,5.63659,-0.64397,0.13779\C,0,6.27599,-0.1198
 1,1.27341\C,0,7.64214,-0.33286,1.44929\C,0,8.33497,-1.06966,0.48492\N,
 0,7.75452,-1.57778,-0.61086\C,0,6.44453,-1.36087,-0.76663\H,0,-2.50996
 ,4.80434,2.24344\H,0,-0.54404,1.25369,1.41951\H,0,-1.63704,3.84106,-1.
 87044\H,0,-1.07424,1.33473,-2.22029\H,0,0.52021,1.92147,-1.8032\H,0,-2
 .74763,0.31157,-0.5344\H,0,-2.40341,-0.30673,-2.16729\H,0,-5.83412,-4.
 98752,0.20412\H,0,-5.64219,-4.54483,2.6671\H,0,-4.24793,-2.68495,3.515
 23\H,0,-2.9832,-1.20043,1.96896\H,0,1.73414,1.90383,0.22251\H,0,4.1316
 3,1.59367,0.60226\H,0,3.84796,-2.44292,-0.89\H,0,1.45277,-2.12316,-1.3
 1544\H,0,5.70177,0.42936,2.02315\H,0,8.16267,0.05595,2.32689\H,0,9.407
 19,-1.26219,0.59662\H,0,6.00176,-1.76654,-1.68255\\Version=EM64L-G09Re
 vC.01\State=1-A\HF=-1828.1050183\RMSD=5.835e-09\Dipole=0.4207925,1.982
 7677,0.6062502\Quadrupole=-4.4771838,-1.3405605,5.8177444,1.2542544,0.
 7108382,-9.4062301\PG=C01 [X(C25H19Cl1N6O1)]\\@


 IT'S WHAT YOU LEARN AFTER YOU KNOW IT ALL
 THAT COUNTS.
 Job cpu time:  0 days  1 hours 43 minutes 49.8 seconds.
 File lengths (MBytes):  RWF=    173 Int=      0 D2E=      0 Chk=     12 Scr=      1
 Normal termination of Gaussian 09 at Sat Sep 10 13:03:05 2022.
