 Entering Gaussian System, Link 0=g09
 Input=Mol39.gjf
 Output=Mol39.log
 Initial command:
 /opt/gaussian/l1.exe /home/scr/lqcapf-6/Gau-582524.inp -scrdir=/home/scr/lqcapf-6/
 Entering Link 1 = /opt/gaussian/l1.exe PID=    582526.
  
 Copyright (c) 1988,1990,1992,1993,1995,1998,2003,2009,2011,
            Gaussian, Inc.  All Rights Reserved.
  
 This is part of the Gaussian(R) 09 program.  It is based on
 the Gaussian(R) 03 system (copyright 2003, Gaussian, Inc.),
 the Gaussian(R) 98 system (copyright 1998, Gaussian, Inc.),
 the Gaussian(R) 94 system (copyright 1995, Gaussian, Inc.),
 the Gaussian 92(TM) system (copyright 1992, Gaussian, Inc.),
 the Gaussian 90(TM) system (copyright 1990, Gaussian, Inc.),
 the Gaussian 88(TM) system (copyright 1988, Gaussian, Inc.),
 the Gaussian 86(TM) system (copyright 1986, Carnegie Mellon
 University), and the Gaussian 82(TM) system (copyright 1983,
 Carnegie Mellon University). Gaussian is a federally registered
 trademark of Gaussian, Inc.
  
 This software contains proprietary and confidential information,
 including trade secrets, belonging to Gaussian, Inc.
  
 This software is provided under written license and may be
 used, copied, transmitted, or stored only in accord with that
 written license.
  
 The following legend is applicable only to US Government
 contracts under FAR:
  
                    RESTRICTED RIGHTS LEGEND
  
 Use, reproduction and disclosure by the US Government is
 subject to restrictions as set forth in subparagraphs (a)
 and (c) of the Commercial Computer Software - Restricted
 Rights clause in FAR 52.227-19.
  
 Gaussian, Inc.
 340 Quinnipiac St., Bldg. 40, Wallingford CT 06492
  
  
 ---------------------------------------------------------------
 Warning -- This program may not be used in any manner that
 competes with the business of Gaussian, Inc. or will provide
 assistance to any competitor of Gaussian, Inc.  The licensee
 of this program is prohibited from giving any competitor of
 Gaussian, Inc. access to this program.  By using this program,
 the user acknowledges that Gaussian, Inc. is engaged in the
 business of creating and licensing software in the field of
 computational chemistry and represents and warrants to the
 licensee that it is not a competitor of Gaussian, Inc. and that
 it will not use this program in any manner prohibited above.
 ---------------------------------------------------------------
  

 Cite this work as:
 Gaussian 09, Revision C.01,
 M. J. Frisch, G. W. Trucks, H. B. Schlegel, G. E. Scuseria, 
 M. A. Robb, J. R. Cheeseman, G. Scalmani, V. Barone, B. Mennucci, 
 G. A. Petersson, H. Nakatsuji, M. Caricato, X. Li, H. P. Hratchian, 
 A. F. Izmaylov, J. Bloino, G. Zheng, J. L. Sonnenberg, M. Hada, 
 M. Ehara, K. Toyota, R. Fukuda, J. Hasegawa, M. Ishida, T. Nakajima, 
 Y. Honda, O. Kitao, H. Nakai, T. Vreven, J. A. Montgomery, Jr., 
 J. E. Peralta, F. Ogliaro, M. Bearpark, J. J. Heyd, E. Brothers, 
 K. N. Kudin, V. N. Staroverov, T. Keith, R. Kobayashi, J. Normand, 
 K. Raghavachari, A. Rendell, J. C. Burant, S. S. Iyengar, J. Tomasi, 
 M. Cossi, N. Rega, J. M. Millam, M. Klene, J. E. Knox, J. B. Cross, 
 V. Bakken, C. Adamo, J. Jaramillo, R. Gomperts, R. E. Stratmann, 
 O. Yazyev, A. J. Austin, R. Cammi, C. Pomelli, J. W. Ochterski, 
 R. L. Martin, K. Morokuma, V. G. Zakrzewski, G. A. Voth, 
 P. Salvador, J. J. Dannenberg, S. Dapprich, A. D. Daniels, 
 O. Farkas, J. B. Foresman, J. V. Ortiz, J. Cioslowski, 
 and D. J. Fox, Gaussian, Inc., Wallingford CT, 2010.
 
 ******************************************
 Gaussian 09:  EM64L-G09RevC.01 23-Sep-2011
                10-Sep-2022 
 ******************************************
 %nprocshared=8
 Will use up to    8 processors via shared memory.
 %mem=1600MB
 ---------------------------------------
 #p b3lyp/cc-pvdz pop=(chelpg,readradii)
 ---------------------------------------
 1/38=1/1;
 2/12=2,17=6,18=5,40=1/2;
 3/5=16,11=2,16=1,25=1,30=1,74=-5/1,2,3;
 4//1;
 5/5=2,38=5/2;
 6/7=2,8=2,9=2,10=2,15=8,20=103,28=1/1,2;
 99/5=1,9=1/99;
 Leave Link    1 at Sat Sep 10 14:01:29 2022, MaxMem=  209715200 cpu:       0.2
 (Enter /opt/gaussian/l101.exe)
 ---------
 Mol39.log
 ---------
 Charge =  0 Multiplicity = 1
 Symbolic Z-Matrix:
 Cl                   -2.75646   5.9607   -0.42794 
 C                    -2.00243   4.48861   0.16689 
 C                    -2.00826   4.21976   1.53857 
 C                    -1.4078    3.04409   1.98981 
 C                    -0.81057   2.15291   1.09101 
 C                    -0.80817   2.43043  -0.28169 
 C                    -1.4145    3.60954  -0.7416 
 C                    -0.15427   1.51033  -1.30813 
 N                     0.26372   0.1904   -0.82566 
 C                    -0.6498   -0.84245  -0.63733 
 O                    -0.35106  -1.91772  -0.15439 
 C                    -2.09725  -0.5493   -1.08035 
 N                    -2.94671  -1.70413  -0.94749 
 N                    -3.39411  -2.33326  -2.079 
 N                    -4.14589  -3.3254   -1.75013 
 C                    -4.21633  -3.38226  -0.37112 
 C                    -4.90994  -4.26485   0.47556 
 C                    -4.796    -4.06062   1.84342 
 C                    -4.00682  -3.00552   2.36836 
 C                    -3.31115  -2.12732   1.54708 
 C                    -3.43458  -2.3358    0.16364 
 C                     1.65027  -0.0086   -0.52096 
 C                     2.40965   1.00209   0.08283 
 C                     3.76504   0.79074   0.31706 
 C                     4.348    -0.43365  -0.05072 
 N                     3.61546  -1.40692  -0.63253 
 C                     2.31966  -1.19992  -0.85819 
 C                     5.76729  -0.73142   0.16068 
 C                     6.76844   0.06545   0.71078 
 N                     7.90425  -0.67565   0.67795 
 N                     7.73112  -1.90492   0.14704 
 C                     6.44013  -1.94373  -0.16745 
 H                    -2.47714   4.91844   2.23159 
 H                    -1.40526   2.81872   3.05839 
 H                    -0.34593   1.23839   1.46319 
 H                    -1.43237   3.84685  -1.8073 
 H                    -0.83215   1.39142  -2.1675 
 H                     0.74342   2.00005  -1.71307 
 H                    -2.51052   0.29492  -0.5055 
 H                    -2.12851  -0.27914  -2.14537 
 H                    -5.51077  -5.07389   0.05765 
 H                    -5.31817  -4.72433   2.5355 
 H                    -3.93899  -2.88602   3.45198 
 H                    -2.68971  -1.33216   1.95975 
 H                     1.95129   1.94757   0.37775 
 H                     4.36058   1.57465   0.78808 
 H                     1.77442  -2.02108  -1.32484 
 H                     6.76075   1.07565   1.11108 
 H                     6.00492  -2.82971  -0.6212 
 H                     8.8238   -0.40253   0.99984 
 
 NAtoms=     50 NQM=        0 NQMF=       0 NMMI=     50 NMMIF=      0
                NMic=       0 NMicF=      0.
                    Isotopes and Nuclear Properties:
 (Nuclear quadrupole moments (NQMom) in fm**2, nuclear magnetic moments (NMagM)
  in nuclear magnetons)

  Atom         1           2           3           4           5           6           7           8           9          10
 IAtWgt=          35          12          12          12          12          12          12          12          14          12
 AtmWgt=  34.9688527  12.0000000  12.0000000  12.0000000  12.0000000  12.0000000  12.0000000  12.0000000  14.0030740  12.0000000
 NucSpn=           3           0           0           0           0           0           0           0           2           0
 AtZEff=   0.0000000   0.0000000   0.0000000   0.0000000   0.0000000   0.0000000   0.0000000   0.0000000   0.0000000   0.0000000
 NQMom=   -8.1650000   0.0000000   0.0000000   0.0000000   0.0000000   0.0000000   0.0000000   0.0000000   2.0440000   0.0000000
 NMagM=    0.8218740   0.0000000   0.0000000   0.0000000   0.0000000   0.0000000   0.0000000   0.0000000   0.4037610   0.0000000

  Atom        11          12          13          14          15          16          17          18          19          20
 IAtWgt=          16          12          14          14          14          12          12          12          12          12
 AtmWgt=  15.9949146  12.0000000  14.0030740  14.0030740  14.0030740  12.0000000  12.0000000  12.0000000  12.0000000  12.0000000
 NucSpn=           0           0           2           2           2           0           0           0           0           0
 AtZEff=   0.0000000   0.0000000   0.0000000   0.0000000   0.0000000   0.0000000   0.0000000   0.0000000   0.0000000   0.0000000
 NQMom=    0.0000000   0.0000000   2.0440000   2.0440000   2.0440000   0.0000000   0.0000000   0.0000000   0.0000000   0.0000000
 NMagM=    0.0000000   0.0000000   0.4037610   0.4037610   0.4037610   0.0000000   0.0000000   0.0000000   0.0000000   0.0000000

  Atom        21          22          23          24          25          26          27          28          29          30
 IAtWgt=          12          12          12          12          12          14          12          12          12          14
 AtmWgt=  12.0000000  12.0000000  12.0000000  12.0000000  12.0000000  14.0030740  12.0000000  12.0000000  12.0000000  14.0030740
 NucSpn=           0           0           0           0           0           2           0           0           0           2
 AtZEff=   0.0000000   0.0000000   0.0000000   0.0000000   0.0000000   0.0000000   0.0000000   0.0000000   0.0000000   0.0000000
 NQMom=    0.0000000   0.0000000   0.0000000   0.0000000   0.0000000   2.0440000   0.0000000   0.0000000   0.0000000   2.0440000
 NMagM=    0.0000000   0.0000000   0.0000000   0.0000000   0.0000000   0.4037610   0.0000000   0.0000000   0.0000000   0.4037610

  Atom        31          32          33          34          35          36          37          38          39          40
 IAtWgt=          14          12           1           1           1           1           1           1           1           1
 AtmWgt=  14.0030740  12.0000000   1.0078250   1.0078250   1.0078250   1.0078250   1.0078250   1.0078250   1.0078250   1.0078250
 NucSpn=           2           0           1           1           1           1           1           1           1           1
 AtZEff=   0.0000000   0.0000000   0.0000000   0.0000000   0.0000000   0.0000000   0.0000000   0.0000000   0.0000000   0.0000000
 NQMom=    2.0440000   0.0000000   0.0000000   0.0000000   0.0000000   0.0000000   0.0000000   0.0000000   0.0000000   0.0000000
 NMagM=    0.4037610   0.0000000   2.7928460   2.7928460   2.7928460   2.7928460   2.7928460   2.7928460   2.7928460   2.7928460

  Atom        41          42          43          44          45          46          47          48          49          50
 IAtWgt=           1           1           1           1           1           1           1           1           1           1
 AtmWgt=   1.0078250   1.0078250   1.0078250   1.0078250   1.0078250   1.0078250   1.0078250   1.0078250   1.0078250   1.0078250
 NucSpn=           1           1           1           1           1           1           1           1           1           1
 AtZEff=   0.0000000   0.0000000   0.0000000   0.0000000   0.0000000   0.0000000   0.0000000   0.0000000   0.0000000   0.0000000
 NQMom=    0.0000000   0.0000000   0.0000000   0.0000000   0.0000000   0.0000000   0.0000000   0.0000000   0.0000000   0.0000000
 NMagM=    2.7928460   2.7928460   2.7928460   2.7928460   2.7928460   2.7928460   2.7928460   2.7928460   2.7928460   2.7928460
 Leave Link  101 at Sat Sep 10 14:01:29 2022, MaxMem=  209715200 cpu:       0.7
 (Enter /opt/gaussian/l202.exe)
                          Input orientation:                          
 ---------------------------------------------------------------------
 Center     Atomic      Atomic             Coordinates (Angstroms)
 Number     Number       Type             X           Y           Z
 ---------------------------------------------------------------------
      1         17           0       -2.756460    5.960700   -0.427940
      2          6           0       -2.002430    4.488610    0.166890
      3          6           0       -2.008260    4.219760    1.538570
      4          6           0       -1.407800    3.044090    1.989810
      5          6           0       -0.810570    2.152910    1.091010
      6          6           0       -0.808170    2.430430   -0.281690
      7          6           0       -1.414500    3.609540   -0.741600
      8          6           0       -0.154270    1.510330   -1.308130
      9          7           0        0.263720    0.190400   -0.825660
     10          6           0       -0.649800   -0.842450   -0.637330
     11          8           0       -0.351060   -1.917720   -0.154390
     12          6           0       -2.097250   -0.549300   -1.080350
     13          7           0       -2.946710   -1.704130   -0.947490
     14          7           0       -3.394110   -2.333260   -2.079000
     15          7           0       -4.145890   -3.325400   -1.750130
     16          6           0       -4.216330   -3.382260   -0.371120
     17          6           0       -4.909940   -4.264850    0.475560
     18          6           0       -4.796000   -4.060620    1.843420
     19          6           0       -4.006820   -3.005520    2.368360
     20          6           0       -3.311150   -2.127320    1.547080
     21          6           0       -3.434580   -2.335800    0.163640
     22          6           0        1.650270   -0.008600   -0.520960
     23          6           0        2.409650    1.002090    0.082830
     24          6           0        3.765040    0.790740    0.317060
     25          6           0        4.348000   -0.433650   -0.050720
     26          7           0        3.615460   -1.406920   -0.632530
     27          6           0        2.319660   -1.199920   -0.858190
     28          6           0        5.767290   -0.731420    0.160680
     29          6           0        6.768440    0.065450    0.710780
     30          7           0        7.904250   -0.675650    0.677950
     31          7           0        7.731120   -1.904920    0.147040
     32          6           0        6.440130   -1.943730   -0.167450
     33          1           0       -2.477140    4.918440    2.231590
     34          1           0       -1.405260    2.818720    3.058390
     35          1           0       -0.345930    1.238390    1.463190
     36          1           0       -1.432370    3.846850   -1.807300
     37          1           0       -0.832150    1.391420   -2.167500
     38          1           0        0.743420    2.000050   -1.713070
     39          1           0       -2.510520    0.294920   -0.505500
     40          1           0       -2.128510   -0.279140   -2.145370
     41          1           0       -5.510770   -5.073890    0.057650
     42          1           0       -5.318170   -4.724330    2.535500
     43          1           0       -3.938990   -2.886020    3.451980
     44          1           0       -2.689710   -1.332160    1.959750
     45          1           0        1.951290    1.947570    0.377750
     46          1           0        4.360580    1.574650    0.788080
     47          1           0        1.774420   -2.021080   -1.324840
     48          1           0        6.760750    1.075650    1.111080
     49          1           0        6.004920   -2.829710   -0.621200
     50          1           0        8.823800   -0.402530    0.999840
 ---------------------------------------------------------------------
                    Distance matrix (angstroms):
                    1          2          3          4          5
     1  Cl   0.000000
     2  C    1.757678   0.000000
     3  C    2.730904   1.397791   0.000000
     4  C    4.021320   2.400679   1.395124   0.000000
     5  C    4.537947   2.780292   2.430358   1.399545   0.000000
     6  C    4.034852   2.421484   2.820508   2.428137   1.400474
     7  C    2.725288   1.394195   2.433946   2.789333   2.417636
     8  C    5.229906   3.802832   4.345341   3.847098   2.568951
     9  N    6.525031   4.959355   5.194922   4.343316   2.946043
    10  C    7.124936   5.558469   5.675026   4.752012   3.461963
    11  O    8.241983   6.623542   6.578836   5.507618   4.281612
    12  C    6.575735   5.190870   5.441562   4.776366   3.697606
    13  N    7.684774   6.362667   6.492585   5.791508   4.857503
    14  N    8.480706   7.315648   7.612455   7.029690   6.070368
    15  N    9.482107   8.326352   8.503790   7.877480   7.014864
    16  C    9.456498   8.193986   8.143292   7.399987   6.661466
    17  C   10.488835   9.228865   9.029858   8.244910   7.640108
    18  C   10.475956   9.148996   8.742375   7.872626   7.420089
    19  C    9.475009   8.063872   7.542378   6.595149   6.201374
    20  C    8.344127   6.883909   6.479430   5.528312   4.978079
    21  C    8.345162   6.973065   6.848371   6.032077   5.281473
    22  C    7.420274   5.834403   5.958652   4.997467   3.650521
    23  C    7.178955   5.623997   5.656015   4.730672   3.565197
    24  C    8.355446   6.852773   6.825046   5.885062   4.836395
    25  C    9.565739   8.037659   8.036299   7.027636   5.882575
    26  N    9.742949   8.182728   8.246177   7.205643   5.935716
    27  C    8.787866   7.217383   7.338139   6.325874   4.983893
    28  C   10.852892   9.360411   9.320512   8.311565   7.242452
    29  C   11.259413   9.838106   9.745460   8.795403   7.870417
    30  N   12.606144  11.183607  11.088894  10.112948   9.171666
    31  N   13.122039  11.645584  11.588942  10.555016   9.503554
    32  C   12.129515  10.619021  10.595962   9.545791   8.422519
    33  H    2.870092   2.161733   1.090082   2.171436   3.424403
    34  H    4.883879   3.392037   2.153224   1.092090   2.160450
    35  H    5.629142   3.871475   3.414321   2.159965   1.091217
    36  H    2.850300   2.152731   3.415488   3.881117   3.414128
    37  H    5.254270   4.051113   4.808087   4.510645   3.346374
    38  H    5.439436   4.155343   4.803334   4.407844   3.209535
    39  H    5.671646   4.277534   4.453634   3.873048   2.981745
    40  H    6.502268   5.300366   5.816010   5.353783   4.257463
    41  H   11.383506  10.186353  10.041545   9.298882   8.682531
    42  H   11.380431  10.073863   9.588854   8.714191   8.348739
    43  H    9.732246   8.302244   7.607954   6.611435   6.383730
    44  H    7.674068   6.129279   5.609419   4.560237   4.053590
    45  H    6.238370   4.704599   4.710455   3.883887   2.859856
    46  H    8.447982   7.026019   6.937000   6.072694   5.212192
    47  H    9.221828   7.672413   7.839379   6.838814   5.471809
    48  H   10.807848   9.451620   9.325434   8.448203   7.647600
    49  H   12.412511  10.876422  10.889017   9.811591   8.614469
    50  H   13.290285  11.909001  11.789373  10.841811   9.967932
                    6          7          8          9         10
     6  C    0.000000
     7  C    1.403372   0.000000
     8  C    1.525696   2.513129   0.000000
     9  N    2.542162   3.809725   1.466188   0.000000
    10  C    3.295953   4.518391   2.496216   1.391677   0.000000
    11  O    4.373964   5.659180   3.622343   2.296242   1.216011
    12  C    3.343408   4.228102   2.840622   2.487208   1.541854
    13  N    4.702258   5.533999   4.273235   3.729738   2.472749
    14  N    5.710530   6.405027   5.085665   4.617298   3.439791
    15  N    6.813683   7.521371   6.285911   5.714906   4.430125
    16  C    6.738762   7.541404   6.427733   5.748161   4.386529
    17  C    7.888265   8.700896   7.690946   6.950481   5.576750
    18  C    7.909021   8.772014   7.906542   7.127126   5.805318
    19  C    6.841321   7.755707   6.982236   6.217168   4.998262
    20  C    5.512023   6.461184   5.599162   4.876619   3.674959
    21  C    5.460155   6.344072   5.264908   4.586701   3.259854
    22  C    3.471317   4.746834   2.486594   1.433515   2.449320
    23  C    3.539406   4.701341   2.960872   2.467633   3.644337
    24  C    4.895032   5.991163   4.303492   3.731683   4.803018
    25  C    5.902744   7.073267   5.062665   4.203726   5.048686
    26  N    5.866587   7.104735   4.814317   3.717915   4.302452
    27  C    4.826501   6.090029   3.697057   2.482124   2.999043
    28  C    7.309560   8.440151   6.499825   5.666736   6.467472
    29  C    7.998947   9.034959   7.354427   6.684882   7.594206
    30  N    9.299188  10.354568   8.582702   7.835087   8.656186
    31  N    9.586373  10.716404   8.715551   7.816558   8.484333
    32  C    8.466651   9.636580   7.531122   6.567784   7.190321
    33  H    3.910528   3.417935   5.435122   6.262065   6.690122
    34  H    3.415175   3.881418   4.726876   4.977892   5.256732
    35  H    2.163153   3.409588   2.791218   2.590133   2.972275
    36  H    2.173329   1.091949   2.709619   4.148489   4.895996
    37  H    2.153229   2.700440   1.100989   2.108059   2.713825
    38  H    2.154416   2.861963   1.099841   2.071821   3.343364
    39  H    2.740162   3.499101   2.770081   2.794608   2.184781
    40  H    3.543779   4.195499   2.792991   2.772159   2.185883
    41  H    8.862529   9.634323   8.597058   7.863696   6.482061
    42  H    8.914441   9.768900   8.961604   8.161462   6.850512
    43  H    7.211586   8.133355   7.504042   6.739832   5.631821
    44  H    4.766690   5.774413   5.018690   4.335833   3.338544
    45  H    2.877957   3.917095   2.732536   2.717303   3.947185
    46  H    5.347218   6.311279   4.978163   4.615687   5.742654
    47  H    5.251083   6.497173   4.023802   2.724342   2.781849
    48  H    7.814332   8.757153   7.338871   6.837107   7.851898
    49  H    8.614089   9.824776   7.565940   6.490319   6.945125
    50  H   10.121404  11.133378   9.465279   8.772627   9.624082
                   11         12         13         14         15
    11  O    0.000000
    12  C    2.403987   0.000000
    13  N    2.722504   1.439745   0.000000
    14  N    3.624493   2.421087   1.369776   0.000000
    15  N    4.350711   3.514579   2.170433   1.287506   0.000000
    16  C    4.139102   3.608209   2.181801   2.166403   1.381978
    17  C    5.166163   4.912982   3.526561   3.543241   2.533779
    18  C    5.323604   5.306699   4.094154   4.509373   3.725157
    19  C    4.572981   4.644682   3.716492   4.539423   4.133234
    20  C    3.420682   3.296527   2.556323   3.632871   3.606075
    21  C    3.127943   2.554906   1.368077   2.243007   2.268873
    22  C    2.790060   3.827425   4.918229   5.768648   6.790250
    23  C    4.025305   4.906317   6.088988   7.034323   8.066103
    24  C    4.949778   6.173727   7.271248   8.170306   9.154163
    25  C    4.928933   6.527998   7.458627   8.225734   9.132162
    26  N    4.027756   5.794058   6.576443   7.216956   8.072679
    27  C    2.853650   4.470096   5.291205   5.951639   6.864150
    28  C    6.240255   7.963938   8.837873   9.566259  10.423582
    29  C    7.441019   9.065678  10.013262  10.808057  11.690874
    30  N    8.389617  10.155668  11.020125  11.747399  12.574682
    31  N    8.087809   9.997052  10.735659  11.353831  12.111168
    32  C    6.791252   8.698545   9.422242  10.025868  10.792484
    33  H    7.546271   6.403862   7.361079   8.485822   9.305897
    34  H    5.819550   5.380667   6.235328   7.542625   8.269409
    35  H    3.546494   3.568270   4.608021   5.881768   6.752281
    36  H    6.093571   4.505181   5.817721   6.489684   7.668613
    37  H    3.903136   2.559056   3.942362   4.521583   5.779573
    38  H    4.356179   3.868970   5.284328   6.002552   7.229602
    39  H    3.111643   1.101795   2.093279   3.188097   4.162962
    40  H    3.131816   1.099196   2.033461   2.413619   3.675015
    41  H    6.052188   5.780924   4.352010   4.068977   2.861500
    42  H    6.307515   6.393714   5.184269   5.541916   4.658097
    43  H    5.178489   5.421649   4.662276   5.585175   5.224731
    44  H    3.206517   3.194697   2.942185   4.220176   4.456083
    45  H    4.530392   4.975047   6.251526   7.275605   8.337127
    46  H    5.940071   7.050231   8.195065   9.144787  10.139676
    47  H    2.428642   4.149186   4.746780   5.232582   6.077186
    48  H    7.819176   9.268602  10.305322  11.176693  12.104155
    49  H    6.438021   8.429487   9.028016   9.524359  10.225416
    50  H    9.370491  11.118366  12.001298  12.746933  13.576390
                   16         17         18         19         20
    16  C    0.000000
    17  C    1.406032   0.000000
    18  C    2.387546   1.387708   0.000000
    19  C    2.773189   2.446269   1.418310   0.000000
    20  C    2.464491   2.876338   2.455656   1.389134   0.000000
    21  C    1.411446   2.448513   2.765887   2.374189   1.404495
    22  C    6.769123   7.883215   7.972676   7.023700   5.777668
    23  C    7.958153   9.026145   8.980652   7.902890   6.683172
    24  C    9.032707  10.041882   9.957754   8.889389   7.752450
    25  C    9.063372  10.033171  10.017755   9.070253   8.005252
    26  N    8.081289   9.059695   9.161065   8.346258   7.297095
    27  C    6.907895   7.964911   8.131108   7.327699   6.192852
    28  C   10.343231  11.251112  11.202602  10.275145   9.289172
    29  C   11.563839  12.457583  12.330596  11.326282  10.349192
    30  N   12.463336  13.308899  13.195177  12.253953  11.342307
    31  N   12.049589  12.863654  12.823942  11.996867  11.132893
    32  C   10.755045  11.602808  11.609282  10.802615   9.902564
    33  H    8.871330   9.661003   9.281773   8.071417   7.127893
    34  H    7.623372   8.314491   7.765217   6.416076   5.511786
    35  H    6.300404   7.217427   6.930166   5.677343   4.486376
    36  H    7.878647   9.116174   9.336479   8.427271   7.104392
    37  H    6.121085   7.457046   7.843744   7.070052   5.685515
    38  H    7.441049   8.717772   8.947934   8.017392   6.641031
    39  H    4.055798   5.245112   5.450832   4.625029   3.274346
    40  H    4.139603   5.521912   6.109463   5.597763   4.295183
    41  H    2.172793   1.090959   2.174071   3.446651   3.967241
    42  H    3.385800   2.149681   1.091855   2.168382   3.427764
    43  H    3.865135   3.420964   2.168321   1.092297   2.144400
    44  H    3.459253   3.966473   3.448838   2.168381   1.090304
    45  H    8.185807   9.256360   9.152730   7.999669   6.757613
    46  H    9.973870  10.960838  10.803378   9.668952   8.551965
    47  H    6.217031   7.277129   7.574168   6.930482   5.841424
    48  H   11.940107  12.850285  12.667915  11.583491  10.577915
    49  H   10.239229  11.063303  11.146720  10.450039   9.590826
    50  H   13.446312  14.276134  14.127710  13.163328  12.269123
                   21         22         23         24         25
    21  C    0.000000
    22  C    5.633847   0.000000
    23  C    6.730755   1.400969   0.000000
    24  C    7.850689   2.411115   1.391623   0.000000
    25  C    8.014529   2.771198   2.415861   1.405075   0.000000
    26  N    7.155401   2.414481   2.787301   2.398709   1.349953
    27  C    5.953624   1.407498   2.396344   2.726364   2.313729
    28  C    9.340688   4.235204   3.779532   2.520006   1.465517
    29  C   10.496046   5.264820   4.502296   3.114719   2.586023
    30  N   11.471254   6.402703   5.775778   4.406087   3.638192
    31  N   11.174023   6.404607   6.064064   4.798466   3.694489
    32  C    9.888035   5.178075   4.998526   3.855928   2.582823
    33  H    7.603756   6.991979   6.620852   7.724516   8.968631
    34  H    6.250343   5.490150   5.167944   6.193512   7.303730
    35  H    4.899329   3.078417   3.091028   4.291163   5.207746
    36  H    6.791068   5.101160   5.140658   6.392635   7.404116
    37  H    5.108720   3.291437   3.965455   5.260039   5.886051
    38  H    6.306926   2.505629   2.645279   3.835889   4.656104
    39  H    2.867459   4.171874   5.005426   6.348629   6.912086
    40  H    3.356664   4.122024   5.215489   6.476275   6.808569
    41  H    3.437868   8.790475   9.982546  10.977333  10.896739
    42  H    3.857293   8.952051   9.926061  10.855514  10.887300
    43  H    3.371995   7.436641   8.171524   9.093864   9.325086
    44  H    2.188181   5.171186   5.913969   6.990632   7.374190
    45  H    6.884816   2.173682   1.091331   2.152122   3.405586
    46  H    8.743344   3.400889   2.152053   1.091349   2.176468
    47  H    5.426629   2.170648   3.394791   3.816377   3.281254
    48  H   10.792608   5.473222   4.471552   3.112221   3.073943
    49  H    9.484940   5.189575   5.301350   4.359478   2.968490
    50  H   12.438032   7.343538   6.629871   5.242245   4.597546
                   26         27         28         29         30
    26  N    0.000000
    27  C    1.331491   0.000000
    28  C    2.390785   3.625430   0.000000
    29  C    3.730099   4.884104   1.392808   0.000000
    30  N    4.543769   5.815688   2.199381   1.356603   0.000000
    31  N    4.218340   5.549001   2.287775   2.264269   1.350164
    32  C    2.912598   4.243660   1.424808   2.217178   2.113380
    33  H    9.237594   8.366024  10.206871  10.552020  11.894574
    34  H    7.529047   6.735287   8.511503   8.938744  10.224681
    35  H    5.204067   4.294127   6.553483   7.249563   8.505623
    36  H    7.379890   6.359908   8.756061   9.375127  10.667800
    37  H    5.474310   4.285235   7.312967   8.234784   9.417752
    38  H    4.585153   3.668128   6.017569   6.776326   8.009609
    39  H    6.359247   5.068489   8.367754   9.361148  10.526633
    40  H    6.045971   4.721322   8.238087   9.350511  10.429987
    41  H    9.859569   8.784193  12.085624  13.327355  14.131244
    42  H   10.042478   9.070559  12.019589  13.128509  13.952587
    43  H    8.714395   7.784035  10.473148  11.440035  12.362982
    44  H    6.817674   5.749092   8.667087   9.642087  10.691399
    45  H    3.878496   3.401461   4.667544   5.182492   6.512230
    46  H    3.385719   3.817564   2.773161   2.842789   4.199235
    47  H    2.060562   1.090574   4.451180   5.782525   6.587577
    48  H    4.369917   5.364655   2.270622   1.086648   2.135941
    49  H    2.781003   4.036523   2.251805   3.277054   3.152018
    50  H    5.549796   6.811163   3.186630   2.127690   1.011820
                   31         32         33         34         35
    31  N    0.000000
    32  C    1.329310   0.000000
    33  H   12.454403  11.504889   0.000000
    34  H   10.689349   9.728161   2.498269   0.000000
    35  H    8.766492   7.670429   4.321488   2.482798   0.000000
    36  H   10.994174   9.909399   4.307259   4.973201   4.322097
    37  H    9.463221   8.246786   5.873487   5.447528   3.666298
    38  H    8.218075   7.098933   5.869357   5.296591   3.443173
    39  H   10.495537   9.232549   5.373054   4.504717   3.074301
    40  H   10.252346   8.950118   6.803981   6.099094   4.301418
    41  H   13.616094  12.356075  10.666564   9.388980   8.276231
    42  H   13.562366  12.381248  10.057178   8.513629   7.837541
    43  H   12.168675  11.032421   8.033427   6.254499   5.820320
    44  H   10.592812   9.394306   6.260118   4.481811   3.513916
    45  H    6.949917   5.965664   5.645687   4.383054   2.637866
    46  H    4.886602   4.197209   7.747197   6.320358   4.766559
    47  H    6.136954   4.807742   8.881492   7.262695   4.784678
    48  H    3.279449   3.294555  10.067829   8.574032   7.117258
    49  H    2.103615   1.086397  11.837127  10.017730   7.824795
    50  H    2.044112   3.069160  12.551541  10.920062   9.326911
                   36         37         38         39         40
    36  H    0.000000
    37  H    2.553262   0.000000
    38  H    2.855453   1.749102   0.000000
    39  H    3.933611   2.604128   3.867017   0.000000
    40  H    4.197939   2.114665   3.691825   1.778946   0.000000
    41  H    9.984537   8.284987   9.606819   6.175982   6.267584
    42  H   10.364578   8.924404  10.000525   6.505648   7.200291
    43  H    8.903635   7.715407   8.513306   5.274519   6.434593
    44  H    6.526386   5.282292   6.031551   2.959215   4.275021
    45  H    4.453186   3.812498   2.415209   4.839332   5.288586
    46  H    6.742193   5.977748   4.418208   7.107958   7.358665
    47  H    6.704392   4.376007   4.169313   4.939219   4.352067
    48  H    9.128182   8.276529   6.711080   9.443480   9.563413
    49  H   10.064620   8.182573   7.225105   9.071351   8.659168
    50  H   11.451039  10.319286   8.855778  11.455099  11.395642
                   41         42         43         44         45
    41  H    0.000000
    42  H    2.509786   0.000000
    43  H    4.333445   2.474158   0.000000
    44  H    5.057362   4.329793   2.490368   0.000000
    45  H   10.251132  10.100257   8.216440   5.899003   0.000000
    46  H   11.923932  11.679419   9.791670   7.715500   2.472270
    47  H    8.019035   8.515552   7.497278   5.584944   4.322069
    48  H   13.766509  13.474756  11.647278   9.789228   4.942562
    49  H   11.751949  11.906583  10.745944   9.192418   6.344464
    50  H   15.105933  14.867129  13.231384  11.590796   7.289812
                   46         47         48         49         50
    46  H    0.000000
    47  H    4.907334   0.000000
    48  H    2.472680   6.355071   0.000000
    49  H    4.907984   4.364186   4.338653   0.000000
    50  H    4.886145   7.597210   2.540387   4.057716   0.000000
 Stoichiometry    C23H18ClN7O
 Framework group  C1[X(C23H18ClN7O)]
 Deg. of freedom   144
 Full point group                 C1      NOp   1
 Largest Abelian subgroup         C1      NOp   1
 Largest concise Abelian subgroup C1      NOp   1
                         Standard orientation:                         
 ---------------------------------------------------------------------
 Center     Atomic      Atomic             Coordinates (Angstroms)
 Number     Number       Type             X           Y           Z
 ---------------------------------------------------------------------
      1         17           0       -2.756459    5.960701   -0.427940
      2          6           0       -2.002429    4.488611    0.166890
      3          6           0       -2.008259    4.219761    1.538570
      4          6           0       -1.407799    3.044091    1.989810
      5          6           0       -0.810569    2.152911    1.091010
      6          6           0       -0.808169    2.430431   -0.281690
      7          6           0       -1.414499    3.609541   -0.741600
      8          6           0       -0.154270    1.510331   -1.308130
      9          7           0        0.263720    0.190401   -0.825660
     10          6           0       -0.649800   -0.842449   -0.637330
     11          8           0       -0.351060   -1.917719   -0.154390
     12          6           0       -2.097250   -0.549299   -1.080350
     13          7           0       -2.946710   -1.704129   -0.947490
     14          7           0       -3.394110   -2.333259   -2.079000
     15          7           0       -4.145890   -3.325399   -1.750130
     16          6           0       -4.216330   -3.382259   -0.371120
     17          6           0       -4.909940   -4.264849    0.475560
     18          6           0       -4.796000   -4.060619    1.843420
     19          6           0       -4.006820   -3.005519    2.368360
     20          6           0       -3.311150   -2.127319    1.547080
     21          6           0       -3.434580   -2.335799    0.163640
     22          6           0        1.650270   -0.008599   -0.520960
     23          6           0        2.409650    1.002091    0.082830
     24          6           0        3.765040    0.790741    0.317060
     25          6           0        4.348000   -0.433649   -0.050720
     26          7           0        3.615460   -1.406919   -0.632530
     27          6           0        2.319660   -1.199919   -0.858190
     28          6           0        5.767290   -0.731420    0.160680
     29          6           0        6.768440    0.065450    0.710780
     30          7           0        7.904250   -0.675650    0.677950
     31          7           0        7.731120   -1.904920    0.147040
     32          6           0        6.440130   -1.943730   -0.167450
     33          1           0       -2.477139    4.918441    2.231590
     34          1           0       -1.405259    2.818721    3.058390
     35          1           0       -0.345930    1.238391    1.463190
     36          1           0       -1.432369    3.846851   -1.807300
     37          1           0       -0.832150    1.391421   -2.167500
     38          1           0        0.743421    2.000051   -1.713070
     39          1           0       -2.510520    0.294921   -0.505500
     40          1           0       -2.128510   -0.279139   -2.145370
     41          1           0       -5.510770   -5.073889    0.057650
     42          1           0       -5.318170   -4.724329    2.535500
     43          1           0       -3.938990   -2.886019    3.451980
     44          1           0       -2.689710   -1.332159    1.959750
     45          1           0        1.951291    1.947571    0.377750
     46          1           0        4.360581    1.574651    0.788080
     47          1           0        1.774420   -2.021079   -1.324840
     48          1           0        6.760750    1.075650    1.111080
     49          1           0        6.004920   -2.829710   -0.621200
     50          1           0        8.823800   -0.402530    0.999840
 ---------------------------------------------------------------------
 Rotational constants (GHZ):      0.1246042      0.0726489      0.0505117
 Leave Link  202 at Sat Sep 10 14:01:29 2022, MaxMem=  209715200 cpu:       0.0
 (Enter /opt/gaussian/l301.exe)
 Standard basis: CC-pVDZ (5D, 7F)
 Ernie: Thresh=  0.10000D-02 Tol=  0.10000D-05 Strict=F.
 Ernie:  72 primitive shells out of 822 were deleted.
 There are   542 symmetry adapted basis functions of A   symmetry.
 Integral buffers will be    131072 words long.
 Raffenetti 2 integral format.
 Two-electron integral symmetry is turned on.
   542 basis functions,  1220 primitive gaussians,   574 cartesian basis functions
   115 alpha electrons      115 beta electrons
       nuclear repulsion energy      3029.8111746208 Hartrees.
 IExCor=  402 DFT=T Ex+Corr=B3LYP ExCW=0 ScaHFX=  0.200000
 ScaDFX=  0.800000  0.720000  1.000000  0.810000 ScalE2=  1.000000  1.000000
 IRadAn=      0 IRanWt=     -1 IRanGd=            0 ICorTp=0
 NAtoms=   50 NActive=   50 NUniq=   50 SFac= 1.00D+00 NAtFMM=   60 NAOKFM=F Big=F
 Leave Link  301 at Sat Sep 10 14:01:29 2022, MaxMem=  209715200 cpu:       0.3
 (Enter /opt/gaussian/l302.exe)
 NPDir=0 NMtPBC=     1 NCelOv=     1 NCel=       1 NClECP=     1 NCelD=      1
         NCelK=      1 NCelE2=     1 NClLst=     1 CellRange=     0.0.
 One-electron integrals computed using PRISM.
 NBasis=   542 RedAO= T  NBF=   542
 NBsUse=   542 1.00D-06 NBFU=   542
 Precomputing XC quadrature grid using
 IXCGrd= 2 IRadAn=           0 IRanWt=          -1 IRanGd=           0 AccXCQ= 0.00D+00.
 NRdTot=    3224 NPtTot=      411844 NUsed=      435075 NTot=      435107
 NSgBfM=   547   547   549   550   550 NAtAll=    50    50.
 Leave Link  302 at Sat Sep 10 14:01:30 2022, MaxMem=  209715200 cpu:       8.3
 (Enter /opt/gaussian/l303.exe)
 DipDrv:  MaxL=1.
 Leave Link  303 at Sat Sep 10 14:01:30 2022, MaxMem=  209715200 cpu:       1.2
 (Enter /opt/gaussian/l401.exe)
 Harris functional with IExCor=  402 diagonalized for initial guess.
 ExpMin= 1.22D-01 ExpMax= 1.28D+05 ExpMxC= 1.24D+03 IAcc=2 IRadAn=         4 AccDes= 0.00D+00
 HarFok:  IExCor=  402 AccDes= 0.00D+00 IRadAn=         4 IDoV= 1
 ScaDFX=  1.000000  1.000000  1.000000  1.000000
 FoFCou: FMM=F IPFlag=           0 FMFlag=      100000 FMFlg1=           0
         NFxFlg=           0 DoJE=T BraDBF=F KetDBF=T FulRan=T
         Omega=  0.000000  0.000000  1.000000  0.000000  0.000000 ICntrl=     500 IOpCl=  0
         NMat0=    1 NMatS0=    1 NMatT0=    0 NMatD0=    1 NMtDS0=    0 NMtDT0=    0
         I1Cent=           4 NGrid=           0.
 Petite list used in FoFCou.
 Harris En= -1805.71094477429    
 Initial guess orbital symmetries:
       Occupied  (A) (A) (A) (A) (A) (A) (A) (A) (A) (A) (A) (A)
                 (A) (A) (A) (A) (A) (A) (A) (A) (A) (A) (A) (A)
                 (A) (A) (A) (A) (A) (A) (A) (A) (A) (A) (A) (A)
                 (A) (A) (A) (A) (A) (A) (A) (A) (A) (A) (A) (A)
                 (A) (A) (A) (A) (A) (A) (A) (A) (A) (A) (A) (A)
                 (A) (A) (A) (A) (A) (A) (A) (A) (A) (A) (A) (A)
                 (A) (A) (A) (A) (A) (A) (A) (A) (A) (A) (A) (A)
                 (A) (A) (A) (A) (A) (A) (A) (A) (A) (A) (A) (A)
                 (A) (A) (A) (A) (A) (A) (A) (A) (A) (A) (A) (A)
                 (A) (A) (A) (A) (A) (A) (A)
       Virtual   (A) (A) (A) (A) (A) (A) (A) (A) (A) (A) (A) (A)
                 (A) (A) (A) (A) (A) (A) (A) (A) (A) (A) (A) (A)
                 (A) (A) (A) (A) (A) (A) (A) (A) (A) (A) (A) (A)
                 (A) (A) (A) (A) (A) (A) (A) (A) (A) (A) (A) (A)
                 (A) (A) (A) (A) (A) (A) (A) (A) (A) (A) (A) (A)
                 (A) (A) (A) (A) (A) (A) (A) (A) (A) (A) (A) (A)
                 (A) (A) (A) (A) (A) (A) (A) (A) (A) (A) (A) (A)
                 (A) (A) (A) (A) (A) (A) (A) (A) (A) (A) (A) (A)
                 (A) (A) (A) (A) (A) (A) (A) (A) (A) (A) (A) (A)
                 (A) (A) (A) (A) (A) (A) (A) (A) (A) (A) (A) (A)
                 (A) (A) (A) (A) (A) (A) (A) (A) (A) (A) (A) (A)
                 (A) (A) (A) (A) (A) (A) (A) (A) (A) (A) (A) (A)
                 (A) (A) (A) (A) (A) (A) (A) (A) (A) (A) (A) (A)
                 (A) (A) (A) (A) (A) (A) (A) (A) (A) (A) (A) (A)
                 (A) (A) (A) (A) (A) (A) (A) (A) (A) (A) (A) (A)
                 (A) (A) (A) (A) (A) (A) (A) (A) (A) (A) (A) (A)
                 (A) (A) (A) (A) (A) (A) (A) (A) (A) (A) (A) (A)
                 (A) (A) (A) (A) (A) (A) (A) (A) (A) (A) (A) (A)
                 (A) (A) (A) (A) (A) (A) (A) (A) (A) (A) (A) (A)
                 (A) (A) (A) (A) (A) (A) (A) (A) (A) (A) (A) (A)
                 (A) (A) (A) (A) (A) (A) (A) (A) (A) (A) (A) (A)
                 (A) (A) (A) (A) (A) (A) (A) (A) (A) (A) (A) (A)
                 (A) (A) (A) (A) (A) (A) (A) (A) (A) (A) (A) (A)
                 (A) (A) (A) (A) (A) (A) (A) (A) (A) (A) (A) (A)
                 (A) (A) (A) (A) (A) (A) (A) (A) (A) (A) (A) (A)
                 (A) (A) (A) (A) (A) (A) (A) (A) (A) (A) (A) (A)
                 (A) (A) (A) (A) (A) (A) (A) (A) (A) (A) (A) (A)
                 (A) (A) (A) (A) (A) (A) (A) (A) (A) (A) (A) (A)
                 (A) (A) (A) (A) (A) (A) (A) (A) (A) (A) (A) (A)
                 (A) (A) (A) (A) (A) (A) (A) (A) (A) (A) (A) (A)
                 (A) (A) (A) (A) (A) (A) (A) (A) (A) (A) (A) (A)
                 (A) (A) (A) (A) (A) (A) (A) (A) (A) (A) (A) (A)
                 (A) (A) (A) (A) (A) (A) (A) (A) (A) (A) (A) (A)
                 (A) (A) (A) (A) (A) (A) (A) (A) (A) (A) (A) (A)
                 (A) (A) (A) (A) (A) (A) (A) (A) (A) (A) (A) (A)
                 (A) (A) (A) (A) (A) (A) (A)
 The electronic state of the initial guess is 1-A.
 Leave Link  401 at Sat Sep 10 14:01:33 2022, MaxMem=  209715200 cpu:      25.1
 (Enter /opt/gaussian/l502.exe)
 Closed shell SCF:
 Requested convergence on RMS density matrix=1.00D-08 within 128 cycles.
 Requested convergence on MAX density matrix=1.00D-06.
 Requested convergence on             energy=1.00D-06.
 No special actions if energy rises.
 Using DIIS extrapolation, IDIIS=  1040.
 Integral symmetry usage will be decided dynamically.
       434612 words used for storage of precomputed grid.
 IEnd=     1450112 IEndB=     1450112 NGot=   209715200 MDV=   208611779
 LenX=   208611779 LenY=   208281729
 Fock matrices will be formed incrementally for  20 cycles.
 Integral accuracy reduced to 1.0D-05 until final iterations.

 Cycle   1  Pass 0  IDiag  1:
 FoFCou: FMM=F IPFlag=           0 FMFlag=      100000 FMFlg1=           0
         NFxFlg=           0 DoJE=F BraDBF=F KetDBF=F FulRan=T
         Omega=  0.000000  0.000000  1.000000  0.000000  0.000000 ICntrl=       0 IOpCl=  0
         NMat0=    1 NMatS0=    1 NMatT0=    0 NMatD0=    1 NMtDS0=    0 NMtDT0=    0
         I1Cent=           0 NGrid=           0.
 Symmetry not used in FoFCou.
 E= -1805.46847006733    
 DIIS: error= 2.37D-02 at cycle   1 NSaved=   1.
 NSaved= 1 IEnMin= 1 EnMin= -1805.46847006733     IErMin= 1 ErrMin= 2.37D-02
 ErrMax= 2.37D-02 EMaxC= 1.00D-01 BMatC= 5.17D-01 BMatP= 5.17D-01
 IDIUse=3 WtCom= 7.63D-01 WtEn= 2.37D-01
 Coeff-Com:  0.100D+01
 Coeff-En:   0.100D+01
 Coeff:      0.100D+01
 Gap=     0.354 Goal=   None    Shift=    0.000
 GapD=    0.354 DampG=1.000 DampE=0.500 DampFc=0.5000 IDamp=-1.
 Damping current iteration by 5.00D-01
 RMSDP=3.94D-03 MaxDP=2.15D-01              OVMax= 2.77D-01

 Cycle   2  Pass 0  IDiag  1:
 RMSU=  1.38D-03    CP:  9.81D-01
 E= -1805.59891283993     Delta-E=       -0.130442772603 Rises=F Damp=T
 DIIS: error= 8.07D-03 at cycle   2 NSaved=   2.
 NSaved= 2 IEnMin= 2 EnMin= -1805.59891283993     IErMin= 2 ErrMin= 8.07D-03
 ErrMax= 8.07D-03 EMaxC= 1.00D-01 BMatC= 1.14D-01 BMatP= 5.17D-01
 IDIUse=3 WtCom= 9.19D-01 WtEn= 8.07D-02
 Coeff-Com:  0.251D+00 0.749D+00
 Coeff-En:   0.371D+00 0.629D+00
 Coeff:      0.261D+00 0.739D+00
 Gap=     0.221 Goal=   None    Shift=    0.000
 RMSDP=1.35D-03 MaxDP=7.32D-02 DE=-1.30D-01 OVMax= 3.33D-01

 Cycle   3  Pass 0  IDiag  1:
 RMSU=  9.01D-04    CP:  9.67D-01  8.00D-01
 E= -1805.93251446021     Delta-E=       -0.333601620284 Rises=F Damp=F
 DIIS: error= 8.31D-03 at cycle   3 NSaved=   3.
 NSaved= 3 IEnMin= 3 EnMin= -1805.93251446021     IErMin= 2 ErrMin= 8.07D-03
 ErrMax= 8.31D-03 EMaxC= 1.00D-01 BMatC= 1.02D-01 BMatP= 1.14D-01
 IDIUse=3 WtCom= 9.17D-01 WtEn= 8.31D-02
 Coeff-Com:  0.642D-01 0.476D+00 0.460D+00
 Coeff-En:   0.000D+00 0.000D+00 0.100D+01
 Coeff:      0.589D-01 0.436D+00 0.505D+00
 Gap=     0.179 Goal=   None    Shift=    0.000
 RMSDP=7.70D-04 MaxDP=5.87D-02 DE=-3.34D-01 OVMax= 8.11D-02

 Cycle   4  Pass 0  IDiag  1:
 RMSU=  3.78D-04    CP:  9.71D-01  8.91D-01  5.89D-01
 E= -1806.01370826458     Delta-E=       -0.081193804373 Rises=F Damp=F
 DIIS: error= 3.17D-03 at cycle   4 NSaved=   4.
 NSaved= 4 IEnMin= 4 EnMin= -1806.01370826458     IErMin= 4 ErrMin= 3.17D-03
 ErrMax= 3.17D-03 EMaxC= 1.00D-01 BMatC= 1.61D-02 BMatP= 1.02D-01
 IDIUse=3 WtCom= 9.68D-01 WtEn= 3.17D-02
 Coeff-Com:  0.120D-01 0.137D+00 0.308D+00 0.544D+00
 Coeff-En:   0.000D+00 0.000D+00 0.159D+00 0.841D+00
 Coeff:      0.117D-01 0.132D+00 0.303D+00 0.553D+00
 Gap=     0.179 Goal=   None    Shift=    0.000
 RMSDP=2.99D-04 MaxDP=1.63D-02 DE=-8.12D-02 OVMax= 3.31D-02

 Cycle   5  Pass 0  IDiag  1:
 RMSU=  1.30D-04    CP:  9.70D-01  8.59D-01  6.79D-01  6.33D-01
 E= -1806.02710623969     Delta-E=       -0.013397975103 Rises=F Damp=F
 DIIS: error= 1.21D-03 at cycle   5 NSaved=   5.
 NSaved= 5 IEnMin= 5 EnMin= -1806.02710623969     IErMin= 5 ErrMin= 1.21D-03
 ErrMax= 1.21D-03 EMaxC= 1.00D-01 BMatC= 1.66D-03 BMatP= 1.61D-02
 IDIUse=3 WtCom= 9.88D-01 WtEn= 1.21D-02
 Coeff-Com:  0.572D-03 0.303D-01 0.133D+00 0.342D+00 0.494D+00
 Coeff-En:   0.000D+00 0.000D+00 0.000D+00 0.728D-01 0.927D+00
 Coeff:      0.565D-03 0.299D-01 0.131D+00 0.339D+00 0.500D+00
 Gap=     0.175 Goal=   None    Shift=    0.000
 RMSDP=1.08D-04 MaxDP=4.66D-03 DE=-1.34D-02 OVMax= 1.34D-02

 Cycle   6  Pass 0  IDiag  1:
 RMSU=  3.96D-05    CP:  9.70D-01  8.65D-01  6.84D-01  6.90D-01  5.33D-01
 E= -1806.02873762839     Delta-E=       -0.001631388703 Rises=F Damp=F
 DIIS: error= 5.49D-04 at cycle   6 NSaved=   6.
 NSaved= 6 IEnMin= 6 EnMin= -1806.02873762839     IErMin= 6 ErrMin= 5.49D-04
 ErrMax= 5.49D-04 EMaxC= 1.00D-01 BMatC= 1.79D-04 BMatP= 1.66D-03
 IDIUse=3 WtCom= 9.95D-01 WtEn= 5.49D-03
 Coeff-Com: -0.803D-03 0.390D-03 0.393D-01 0.130D+00 0.300D+00 0.530D+00
 Coeff-En:   0.000D+00 0.000D+00 0.000D+00 0.000D+00 0.768D-01 0.923D+00
 Coeff:     -0.799D-03 0.388D-03 0.391D-01 0.130D+00 0.299D+00 0.532D+00
 Gap=     0.175 Goal=   None    Shift=    0.000
 RMSDP=3.26D-05 MaxDP=1.57D-03 DE=-1.63D-03 OVMax= 4.13D-03

 Cycle   7  Pass 0  IDiag  1:
 RMSU=  1.36D-05    CP:  9.70D-01  8.64D-01  6.85D-01  6.91D-01  6.03D-01
                    CP:  5.92D-01
 E= -1806.02891985504     Delta-E=       -0.000182226651 Rises=F Damp=F
 DIIS: error= 1.21D-04 at cycle   7 NSaved=   7.
 NSaved= 7 IEnMin= 7 EnMin= -1806.02891985504     IErMin= 7 ErrMin= 1.21D-04
 ErrMax= 1.21D-04 EMaxC= 1.00D-01 BMatC= 1.67D-05 BMatP= 1.79D-04
 IDIUse=3 WtCom= 9.99D-01 WtEn= 1.21D-03
 Coeff-Com: -0.359D-03-0.272D-02 0.103D-01 0.418D-01 0.125D+00 0.308D+00
 Coeff-Com:  0.517D+00
 Coeff-En:   0.000D+00 0.000D+00 0.000D+00 0.000D+00 0.000D+00 0.125D-01
 Coeff-En:   0.987D+00
 Coeff:     -0.359D-03-0.271D-02 0.103D-01 0.417D-01 0.125D+00 0.308D+00
 Coeff:      0.518D+00
 Gap=     0.175 Goal=   None    Shift=    0.000
 RMSDP=8.89D-06 MaxDP=4.90D-04 DE=-1.82D-04 OVMax= 9.22D-04

 Initial convergence to 1.0D-05 achieved.  Increase integral accuracy.
 Cycle   8  Pass 1  IDiag  1:
 E= -1806.02901207900     Delta-E=       -0.000092223960 Rises=F Damp=F
 DIIS: error= 1.40D-04 at cycle   1 NSaved=   1.
 NSaved= 1 IEnMin= 1 EnMin= -1806.02901207900     IErMin= 1 ErrMin= 1.40D-04
 ErrMax= 1.40D-04 EMaxC= 1.00D-01 BMatC= 1.07D-05 BMatP= 1.07D-05
 IDIUse=3 WtCom= 9.99D-01 WtEn= 1.40D-03
 Coeff-Com:  0.100D+01
 Coeff-En:   0.100D+01
 Coeff:      0.100D+01
 Gap=     0.175 Goal=   None    Shift=    0.000
 RMSDP=8.89D-06 MaxDP=4.90D-04 DE=-9.22D-05 OVMax= 7.31D-04

 Cycle   9  Pass 1  IDiag  1:
 RMSU=  7.51D-05    CP:  1.00D+00
 E= -1806.02901785709     Delta-E=       -0.000005778093 Rises=F Damp=F
 DIIS: error= 7.88D-05 at cycle   2 NSaved=   2.
 NSaved= 2 IEnMin= 2 EnMin= -1806.02901785709     IErMin= 2 ErrMin= 7.88D-05
 ErrMax= 7.88D-05 EMaxC= 1.00D-01 BMatC= 4.86D-06 BMatP= 1.07D-05
 IDIUse=1 WtCom= 1.00D+00 WtEn= 0.00D+00
 Coeff-Com:  0.354D+00 0.646D+00
 Coeff:      0.354D+00 0.646D+00
 Gap=     0.175 Goal=   None    Shift=    0.000
 RMSDP=7.73D-06 MaxDP=4.23D-04 DE=-5.78D-06 OVMax= 8.42D-04

 Cycle  10  Pass 1  IDiag  1:
 RMSU=  5.45D-06    CP:  1.00D+00  1.00D+00
 E= -1806.02901760149     Delta-E=        0.000000255608 Rises=F Damp=F
 DIIS: error= 8.60D-05 at cycle   3 NSaved=   3.
 NSaved= 3 IEnMin= 2 EnMin= -1806.02901785709     IErMin= 2 ErrMin= 7.88D-05
 ErrMax= 8.60D-05 EMaxC= 1.00D-01 BMatC= 5.06D-06 BMatP= 4.86D-06
 IDIUse=1 WtCom= 1.00D+00 WtEn= 0.00D+00
 Coeff-Com:  0.442D-02 0.504D+00 0.492D+00
 Coeff:      0.442D-02 0.504D+00 0.492D+00
 Gap=     0.175 Goal=   None    Shift=    0.000
 RMSDP=4.26D-06 MaxDP=2.20D-04 DE= 2.56D-07 OVMax= 4.28D-04

 Cycle  11  Pass 1  IDiag  1:
 RMSU=  8.96D-07    CP:  1.00D+00  1.01D+00  4.80D-01
 E= -1806.02902240276     Delta-E=       -0.000004801274 Rises=F Damp=F
 DIIS: error= 1.15D-05 at cycle   4 NSaved=   4.
 NSaved= 4 IEnMin= 4 EnMin= -1806.02902240276     IErMin= 4 ErrMin= 1.15D-05
 ErrMax= 1.15D-05 EMaxC= 1.00D-01 BMatC= 1.58D-07 BMatP= 4.86D-06
 IDIUse=1 WtCom= 1.00D+00 WtEn= 0.00D+00
 Coeff-Com: -0.366D-02 0.324D+00 0.328D+00 0.352D+00
 Coeff:     -0.366D-02 0.324D+00 0.328D+00 0.352D+00
 Gap=     0.175 Goal=   None    Shift=    0.000
 RMSDP=8.16D-07 MaxDP=4.03D-05 DE=-4.80D-06 OVMax= 1.18D-04

 Cycle  12  Pass 1  IDiag  1:
 RMSU=  2.07D-07    CP:  1.00D+00  1.01D+00  5.03D-01  4.16D-01
 E= -1806.02902256121     Delta-E=       -0.000000158448 Rises=F Damp=F
 DIIS: error= 1.66D-06 at cycle   5 NSaved=   5.
 NSaved= 5 IEnMin= 5 EnMin= -1806.02902256121     IErMin= 5 ErrMin= 1.66D-06
 ErrMax= 1.66D-06 EMaxC= 1.00D-01 BMatC= 3.43D-09 BMatP= 1.58D-07
 IDIUse=1 WtCom= 1.00D+00 WtEn= 0.00D+00
 Coeff-Com: -0.238D-02 0.176D+00 0.179D+00 0.212D+00 0.436D+00
 Coeff:     -0.238D-02 0.176D+00 0.179D+00 0.212D+00 0.436D+00
 Gap=     0.175 Goal=   None    Shift=    0.000
 RMSDP=1.30D-07 MaxDP=8.27D-06 DE=-1.58D-07 OVMax= 1.27D-05

 Cycle  13  Pass 1  IDiag  1:
 RMSU=  7.24D-08    CP:  1.00D+00  1.01D+00  5.01D-01  4.28D-01  7.34D-01
 E= -1806.02902256421     Delta-E=       -0.000000002998 Rises=F Damp=F
 DIIS: error= 5.38D-07 at cycle   6 NSaved=   6.
 NSaved= 6 IEnMin= 6 EnMin= -1806.02902256421     IErMin= 6 ErrMin= 5.38D-07
 ErrMax= 5.38D-07 EMaxC= 1.00D-01 BMatC= 2.73D-10 BMatP= 3.43D-09
 IDIUse=1 WtCom= 1.00D+00 WtEn= 0.00D+00
 Coeff-Com: -0.971D-03 0.657D-01 0.668D-01 0.847D-01 0.256D+00 0.528D+00
 Coeff:     -0.971D-03 0.657D-01 0.668D-01 0.847D-01 0.256D+00 0.528D+00
 Gap=     0.175 Goal=   None    Shift=    0.000
 RMSDP=3.74D-08 MaxDP=2.79D-06 DE=-3.00D-09 OVMax= 4.92D-06

 Cycle  14  Pass 1  IDiag  1:
 RMSU=  2.10D-08    CP:  1.00D+00  1.01D+00  5.00D-01  4.32D-01  7.62D-01
                    CP:  8.02D-01
 E= -1806.02902256445     Delta-E=       -0.000000000242 Rises=F Damp=F
 DIIS: error= 1.47D-07 at cycle   7 NSaved=   7.
 NSaved= 7 IEnMin= 7 EnMin= -1806.02902256445     IErMin= 7 ErrMin= 1.47D-07
 ErrMax= 1.47D-07 EMaxC= 1.00D-01 BMatC= 3.20D-11 BMatP= 2.73D-10
 IDIUse=1 WtCom= 1.00D+00 WtEn= 0.00D+00
 Coeff-Com: -0.221D-03 0.129D-01 0.131D-01 0.190D-01 0.837D-01 0.300D+00
 Coeff-Com:  0.572D+00
 Coeff:     -0.221D-03 0.129D-01 0.131D-01 0.190D-01 0.837D-01 0.300D+00
 Coeff:      0.572D+00
 Gap=     0.175 Goal=   None    Shift=    0.000
 RMSDP=1.38D-08 MaxDP=9.17D-07 DE=-2.42D-10 OVMax= 1.81D-06

 Cycle  15  Pass 1  IDiag  1:
 RMSU=  6.98D-09    CP:  1.00D+00  1.01D+00  5.01D-01  4.32D-01  7.74D-01
                    CP:  8.30D-01  7.17D-01
 E= -1806.02902256450     Delta-E=       -0.000000000054 Rises=F Damp=F
 DIIS: error= 7.41D-08 at cycle   8 NSaved=   8.
 NSaved= 8 IEnMin= 8 EnMin= -1806.02902256450     IErMin= 8 ErrMin= 7.41D-08
 ErrMax= 7.41D-08 EMaxC= 1.00D-01 BMatC= 5.97D-12 BMatP= 3.20D-11
 IDIUse=1 WtCom= 1.00D+00 WtEn= 0.00D+00
 Coeff-Com:  0.136D-04-0.219D-02-0.224D-02-0.124D-02 0.111D-01 0.104D+00
 Coeff-Com:  0.351D+00 0.540D+00
 Coeff:      0.136D-04-0.219D-02-0.224D-02-0.124D-02 0.111D-01 0.104D+00
 Coeff:      0.351D+00 0.540D+00
 Gap=     0.175 Goal=   None    Shift=    0.000
 RMSDP=5.87D-09 MaxDP=3.04D-07 DE=-5.37D-11 OVMax= 8.40D-07

 SCF Done:  E(RB3LYP) =  -1806.02902256     A.U. after   15 cycles
             Convg  =    0.5866D-08             -V/T =  2.0054
 KE= 1.796244081605D+03 PE=-1.028158390943D+04 EE= 3.649499630641D+03
 Leave Link  502 at Sat Sep 10 14:14:14 2022, MaxMem=  209715200 cpu:    5564.1
 (Enter /opt/gaussian/l601.exe)
 Copying SCF densities to generalized density rwf, IOpCl= 0 IROHF=0.

 **********************************************************************

            Population analysis using the SCF density.

 **********************************************************************

 Orbital symmetries:
       Occupied  (A) (A) (A) (A) (A) (A) (A) (A) (A) (A) (A) (A)
                 (A) (A) (A) (A) (A) (A) (A) (A) (A) (A) (A) (A)
                 (A) (A) (A) (A) (A) (A) (A) (A) (A) (A) (A) (A)
                 (A) (A) (A) (A) (A) (A) (A) (A) (A) (A) (A) (A)
                 (A) (A) (A) (A) (A) (A) (A) (A) (A) (A) (A) (A)
                 (A) (A) (A) (A) (A) (A) (A) (A) (A) (A) (A) (A)
                 (A) (A) (A) (A) (A) (A) (A) (A) (A) (A) (A) (A)
                 (A) (A) (A) (A) (A) (A) (A) (A) (A) (A) (A) (A)
                 (A) (A) (A) (A) (A) (A) (A) (A) (A) (A) (A) (A)
                 (A) (A) (A) (A) (A) (A) (A)
       Virtual   (A) (A) (A) (A) (A) (A) (A) (A) (A) (A) (A) (A)
                 (A) (A) (A) (A) (A) (A) (A) (A) (A) (A) (A) (A)
                 (A) (A) (A) (A) (A) (A) (A) (A) (A) (A) (A) (A)
                 (A) (A) (A) (A) (A) (A) (A) (A) (A) (A) (A) (A)
                 (A) (A) (A) (A) (A) (A) (A) (A) (A) (A) (A) (A)
                 (A) (A) (A) (A) (A) (A) (A) (A) (A) (A) (A) (A)
                 (A) (A) (A) (A) (A) (A) (A) (A) (A) (A) (A) (A)
                 (A) (A) (A) (A) (A) (A) (A) (A) (A) (A) (A) (A)
                 (A) (A) (A) (A) (A) (A) (A) (A) (A) (A) (A) (A)
                 (A) (A) (A) (A) (A) (A) (A) (A) (A) (A) (A) (A)
                 (A) (A) (A) (A) (A) (A) (A) (A) (A) (A) (A) (A)
                 (A) (A) (A) (A) (A) (A) (A) (A) (A) (A) (A) (A)
                 (A) (A) (A) (A) (A) (A) (A) (A) (A) (A) (A) (A)
                 (A) (A) (A) (A) (A) (A) (A) (A) (A) (A) (A) (A)
                 (A) (A) (A) (A) (A) (A) (A) (A) (A) (A) (A) (A)
                 (A) (A) (A) (A) (A) (A) (A) (A) (A) (A) (A) (A)
                 (A) (A) (A) (A) (A) (A) (A) (A) (A) (A) (A) (A)
                 (A) (A) (A) (A) (A) (A) (A) (A) (A) (A) (A) (A)
                 (A) (A) (A) (A) (A) (A) (A) (A) (A) (A) (A) (A)
                 (A) (A) (A) (A) (A) (A) (A) (A) (A) (A) (A) (A)
                 (A) (A) (A) (A) (A) (A) (A) (A) (A) (A) (A) (A)
                 (A) (A) (A) (A) (A) (A) (A) (A) (A) (A) (A) (A)
                 (A) (A) (A) (A) (A) (A) (A) (A) (A) (A) (A) (A)
                 (A) (A) (A) (A) (A) (A) (A) (A) (A) (A) (A) (A)
                 (A) (A) (A) (A) (A) (A) (A) (A) (A) (A) (A) (A)
                 (A) (A) (A) (A) (A) (A) (A) (A) (A) (A) (A) (A)
                 (A) (A) (A) (A) (A) (A) (A) (A) (A) (A) (A) (A)
                 (A) (A) (A) (A) (A) (A) (A) (A) (A) (A) (A) (A)
                 (A) (A) (A) (A) (A) (A) (A) (A) (A) (A) (A) (A)
                 (A) (A) (A) (A) (A) (A) (A) (A) (A) (A) (A) (A)
                 (A) (A) (A) (A) (A) (A) (A) (A) (A) (A) (A) (A)
                 (A) (A) (A) (A) (A) (A) (A) (A) (A) (A) (A) (A)
                 (A) (A) (A) (A) (A) (A) (A) (A) (A) (A) (A) (A)
                 (A) (A) (A) (A) (A) (A) (A) (A) (A) (A) (A) (A)
                 (A) (A) (A) (A) (A) (A) (A) (A) (A) (A) (A) (A)
                 (A) (A) (A) (A) (A) (A) (A)
 The electronic state is 1-A.
 Alpha  occ. eigenvalues -- -101.55975 -19.13336 -14.41302 -14.41181 -14.39540
 Alpha  occ. eigenvalues --  -14.39103 -14.34877 -14.34830 -14.33073 -10.31436
 Alpha  occ. eigenvalues --  -10.27279 -10.26603 -10.26208 -10.24791 -10.23977
 Alpha  occ. eigenvalues --  -10.23620 -10.23424 -10.23285 -10.22965 -10.22563
 Alpha  occ. eigenvalues --  -10.22538 -10.22359 -10.22105 -10.21982 -10.21178
 Alpha  occ. eigenvalues --  -10.20878 -10.20513 -10.20444 -10.20139 -10.19941
 Alpha  occ. eigenvalues --  -10.19529 -10.19321  -9.47792  -7.24053  -7.23080
 Alpha  occ. eigenvalues --   -7.23039  -1.09558  -1.06585  -1.05159  -0.97655
 Alpha  occ. eigenvalues --   -0.94762  -0.92674  -0.91214  -0.86524  -0.86105
 Alpha  occ. eigenvalues --   -0.82527  -0.81868  -0.81043  -0.79998  -0.78126
 Alpha  occ. eigenvalues --   -0.77181  -0.76196  -0.75571  -0.74356  -0.72435
 Alpha  occ. eigenvalues --   -0.67292  -0.64999  -0.64916  -0.63846  -0.62718
 Alpha  occ. eigenvalues --   -0.62286  -0.61035  -0.60203  -0.58878  -0.57376
 Alpha  occ. eigenvalues --   -0.55495  -0.54714  -0.53593  -0.52988  -0.52603
 Alpha  occ. eigenvalues --   -0.52304  -0.50274  -0.49909  -0.48564  -0.48048
 Alpha  occ. eigenvalues --   -0.47446  -0.46791  -0.46587  -0.45658  -0.45130
 Alpha  occ. eigenvalues --   -0.45088  -0.44748  -0.44683  -0.44555  -0.44069
 Alpha  occ. eigenvalues --   -0.43779  -0.42180  -0.41644  -0.41270  -0.40921
 Alpha  occ. eigenvalues --   -0.40229  -0.39633  -0.39195  -0.38548  -0.38194
 Alpha  occ. eigenvalues --   -0.37722  -0.36791  -0.35693  -0.35007  -0.33217
 Alpha  occ. eigenvalues --   -0.33025  -0.32481  -0.31299  -0.29553  -0.29431
 Alpha  occ. eigenvalues --   -0.28438  -0.27956  -0.27693  -0.26884  -0.26662
 Alpha  occ. eigenvalues --   -0.26308  -0.25930  -0.25040  -0.23599  -0.22237
 Alpha virt. eigenvalues --   -0.04729  -0.04535  -0.04287  -0.04018  -0.03319
 Alpha virt. eigenvalues --   -0.00187   0.00673   0.01292   0.01811   0.03388
 Alpha virt. eigenvalues --    0.03830   0.04626   0.05213   0.05506   0.06822
 Alpha virt. eigenvalues --    0.06902   0.07445   0.08287   0.09186   0.09440
 Alpha virt. eigenvalues --    0.10372   0.10719   0.11510   0.12010   0.12316
 Alpha virt. eigenvalues --    0.13000   0.13443   0.13782   0.14445   0.14982
 Alpha virt. eigenvalues --    0.15600   0.15905   0.16788   0.17483   0.18883
 Alpha virt. eigenvalues --    0.19463   0.19785   0.20514   0.21250   0.22797
 Alpha virt. eigenvalues --    0.23446   0.23903   0.24000   0.25088   0.25337
 Alpha virt. eigenvalues --    0.25574   0.27172   0.27892   0.28449   0.29933
 Alpha virt. eigenvalues --    0.30093   0.30604   0.30957   0.31256   0.32219
 Alpha virt. eigenvalues --    0.33640   0.34142   0.36007   0.36387   0.37244
 Alpha virt. eigenvalues --    0.37691   0.38112   0.39504   0.40027   0.41121
 Alpha virt. eigenvalues --    0.42884   0.43271   0.43528   0.44054   0.44317
 Alpha virt. eigenvalues --    0.44491   0.45268   0.45545   0.45593   0.46014
 Alpha virt. eigenvalues --    0.46555   0.46767   0.46954   0.47505   0.47683
 Alpha virt. eigenvalues --    0.47966   0.48222   0.48552   0.48789   0.49251
 Alpha virt. eigenvalues --    0.49642   0.49899   0.50101   0.50330   0.50803
 Alpha virt. eigenvalues --    0.51045   0.51310   0.52047   0.52437   0.52784
 Alpha virt. eigenvalues --    0.53075   0.53502   0.54088   0.54459   0.54802
 Alpha virt. eigenvalues --    0.55061   0.55341   0.56104   0.56423   0.56851
 Alpha virt. eigenvalues --    0.57313   0.58044   0.58700   0.59451   0.59593
 Alpha virt. eigenvalues --    0.59793   0.60341   0.60798   0.61132   0.61623
 Alpha virt. eigenvalues --    0.62181   0.62640   0.62909   0.63471   0.64103
 Alpha virt. eigenvalues --    0.64265   0.64697   0.64890   0.65520   0.65646
 Alpha virt. eigenvalues --    0.65759   0.66641   0.66850   0.67290   0.67979
 Alpha virt. eigenvalues --    0.68967   0.69730   0.69921   0.70422   0.71026
 Alpha virt. eigenvalues --    0.71599   0.72207   0.72384   0.72805   0.73706
 Alpha virt. eigenvalues --    0.73949   0.74274   0.75026   0.75286   0.75751
 Alpha virt. eigenvalues --    0.77664   0.78042   0.79212   0.80738   0.80787
 Alpha virt. eigenvalues --    0.81128   0.82081   0.82494   0.83359   0.83685
 Alpha virt. eigenvalues --    0.84132   0.84626   0.84656   0.86934   0.87122
 Alpha virt. eigenvalues --    0.87386   0.87802   0.87999   0.88531   0.88628
 Alpha virt. eigenvalues --    0.89242   0.89817   0.90225   0.90530   0.90868
 Alpha virt. eigenvalues --    0.91950   0.92601   0.92873   0.93785   0.94210
 Alpha virt. eigenvalues --    0.94777   0.95390   0.96144   0.96842   0.98012
 Alpha virt. eigenvalues --    0.98823   0.99316   1.00148   1.00401   1.00619
 Alpha virt. eigenvalues --    1.01222   1.01505   1.01779   1.01837   1.02518
 Alpha virt. eigenvalues --    1.03000   1.03691   1.03843   1.04404   1.04914
 Alpha virt. eigenvalues --    1.05914   1.06492   1.06613   1.07608   1.08795
 Alpha virt. eigenvalues --    1.09513   1.09939   1.10618   1.10868   1.11997
 Alpha virt. eigenvalues --    1.13280   1.13728   1.14735   1.15300   1.16064
 Alpha virt. eigenvalues --    1.17097   1.17344   1.18515   1.19209   1.19486
 Alpha virt. eigenvalues --    1.20820   1.22166   1.22938   1.23559   1.23904
 Alpha virt. eigenvalues --    1.24967   1.25692   1.26975   1.28565   1.30000
 Alpha virt. eigenvalues --    1.30414   1.31163   1.32976   1.33355   1.34063
 Alpha virt. eigenvalues --    1.35373   1.36544   1.37789   1.39692   1.40154
 Alpha virt. eigenvalues --    1.41193   1.42830   1.43311   1.44156   1.44885
 Alpha virt. eigenvalues --    1.45424   1.46393   1.46522   1.46711   1.47465
 Alpha virt. eigenvalues --    1.47723   1.48941   1.49023   1.49709   1.50347
 Alpha virt. eigenvalues --    1.50945   1.52028   1.52515   1.53207   1.54167
 Alpha virt. eigenvalues --    1.54901   1.55042   1.55634   1.56643   1.56766
 Alpha virt. eigenvalues --    1.57781   1.58080   1.58742   1.59139   1.59832
 Alpha virt. eigenvalues --    1.60330   1.61445   1.61629   1.61915   1.62352
 Alpha virt. eigenvalues --    1.62957   1.63832   1.64340   1.65031   1.65052
 Alpha virt. eigenvalues --    1.65248   1.65528   1.66549   1.66771   1.67322
 Alpha virt. eigenvalues --    1.68100   1.68489   1.68622   1.69456   1.70416
 Alpha virt. eigenvalues --    1.70731   1.71742   1.72335   1.72864   1.73545
 Alpha virt. eigenvalues --    1.74120   1.74519   1.75174   1.75606   1.76076
 Alpha virt. eigenvalues --    1.76991   1.77479   1.78193   1.78648   1.79196
 Alpha virt. eigenvalues --    1.79353   1.79590   1.79929   1.80734   1.81262
 Alpha virt. eigenvalues --    1.82183   1.82651   1.83104   1.83813   1.83970
 Alpha virt. eigenvalues --    1.84408   1.84693   1.85354   1.86046   1.86186
 Alpha virt. eigenvalues --    1.86785   1.87137   1.87698   1.89030   1.89756
 Alpha virt. eigenvalues --    1.90054   1.90594   1.91269   1.91815   1.92474
 Alpha virt. eigenvalues --    1.93651   1.96010   1.96303   1.96621   1.97292
 Alpha virt. eigenvalues --    1.97695   1.98361   1.99823   1.99965   2.01708
 Alpha virt. eigenvalues --    2.01764   2.03096   2.03866   2.04429   2.04585
 Alpha virt. eigenvalues --    2.05487   2.06220   2.06512   2.08653   2.09599
 Alpha virt. eigenvalues --    2.11155   2.11835   2.13242   2.15164   2.15721
 Alpha virt. eigenvalues --    2.16032   2.17762   2.18066   2.20148   2.21836
 Alpha virt. eigenvalues --    2.22710   2.24097   2.24856   2.26696   2.28394
 Alpha virt. eigenvalues --    2.29327   2.29556   2.29933   2.31890   2.32584
 Alpha virt. eigenvalues --    2.34247   2.34918   2.35258   2.37516   2.37730
 Alpha virt. eigenvalues --    2.39242   2.39855   2.40574   2.40827   2.41275
 Alpha virt. eigenvalues --    2.43609   2.43943   2.44364   2.45458   2.46431
 Alpha virt. eigenvalues --    2.47698   2.48898   2.49857   2.50664   2.51449
 Alpha virt. eigenvalues --    2.51898   2.53117   2.55542   2.57472   2.58293
 Alpha virt. eigenvalues --    2.59101   2.60266   2.61391   2.62843   2.64401
 Alpha virt. eigenvalues --    2.65780   2.67793   2.68696   2.70417   2.71182
 Alpha virt. eigenvalues --    2.73415   2.73542   2.73716   2.76268   2.76864
 Alpha virt. eigenvalues --    2.77361   2.79469   2.80424   2.83555   2.84987
 Alpha virt. eigenvalues --    2.87755   2.89450   2.93287   2.94935   2.96586
 Alpha virt. eigenvalues --    2.98516   3.04055   3.07382   3.09797   3.10001
 Alpha virt. eigenvalues --    3.14448   3.30345   3.39189   3.40198   3.46336
 Alpha virt. eigenvalues --    3.48916   3.53602
          Condensed to atoms (all electrons):
              1          2          3          4          5          6
     1  Cl  16.939074   0.294284  -0.079294   0.006711  -0.000180   0.007071
     2  C    0.294284   5.144576   0.418390   0.032238  -0.086284   0.041247
     3  C   -0.079294   0.418390   4.755601   0.463853   0.017370  -0.085202
     4  C    0.006711   0.032238   0.463853   4.749655   0.451747   0.030843
     5  C   -0.000180  -0.086284   0.017370   0.451747   4.848690   0.460276
     6  C    0.007071   0.041247  -0.085202   0.030843   0.460276   5.030805
     7  C   -0.082502   0.392341   0.021108  -0.085431  -0.001031   0.431660
     8  C   -0.000149   0.007313  -0.000138   0.009662  -0.088148   0.362646
     9  N    0.000000  -0.000133  -0.000024   0.000733   0.004682  -0.046092
    10  C    0.000000  -0.000013   0.000008  -0.000369  -0.001010   0.001933
    11  O    0.000000   0.000000   0.000000  -0.000007  -0.000429  -0.000029
    12  C    0.000000   0.000031   0.000023  -0.000158  -0.003594  -0.006692
    13  N    0.000000   0.000000   0.000000   0.000000   0.000000   0.000046
    14  N    0.000000   0.000000   0.000000   0.000000  -0.000001   0.000000
    15  N    0.000000   0.000000   0.000000   0.000000   0.000000   0.000000
    16  C    0.000000   0.000000   0.000000   0.000000  -0.000001   0.000000
    17  C    0.000000   0.000000   0.000000   0.000000   0.000000   0.000000
    18  C    0.000000   0.000000   0.000000   0.000000   0.000000   0.000000
    19  C    0.000000   0.000000   0.000000   0.000000   0.000001   0.000000
    20  C    0.000000   0.000000   0.000000  -0.000032  -0.000132  -0.000008
    21  C    0.000000   0.000000   0.000000  -0.000003  -0.000035  -0.000024
    22  C    0.000000   0.000001  -0.000005  -0.000061  -0.001313  -0.003676
    23  C    0.000000   0.000004   0.000011  -0.000277  -0.003205  -0.003171
    24  C    0.000000   0.000000   0.000000  -0.000004   0.000001   0.000225
    25  C    0.000000   0.000000   0.000000   0.000000   0.000000   0.000002
    26  N    0.000000   0.000000   0.000000   0.000000   0.000000   0.000004
    27  C    0.000000   0.000000   0.000000   0.000000   0.000034  -0.000415
    28  C    0.000000   0.000000   0.000000   0.000000   0.000000   0.000000
    29  C    0.000000   0.000000   0.000000   0.000000   0.000000   0.000000
    30  N    0.000000   0.000000   0.000000   0.000000   0.000000   0.000000
    31  N    0.000000   0.000000   0.000000   0.000000   0.000000   0.000000
    32  C    0.000000   0.000000   0.000000   0.000000   0.000000   0.000000
    33  H   -0.004521  -0.053332   0.393379  -0.046671   0.010968  -0.000844
    34  H   -0.000189   0.009701  -0.046967   0.386502  -0.044830   0.009700
    35  H    0.000017  -0.000801   0.010492  -0.050567   0.394043  -0.039385
    36  H   -0.004069  -0.056123   0.012290  -0.001476   0.012433  -0.057961
    37  H   -0.000012   0.000426  -0.000049   0.000018   0.004585  -0.026477
    38  H    0.000000   0.000057   0.000014  -0.000049  -0.003282  -0.019635
    39  H    0.000001  -0.000136  -0.000080  -0.000060   0.002318   0.004086
    40  H    0.000000  -0.000010   0.000001   0.000006   0.000308  -0.000946
    41  H    0.000000   0.000000   0.000000   0.000000   0.000000   0.000000
    42  H    0.000000   0.000000   0.000000   0.000000   0.000000   0.000000
    43  H    0.000000   0.000000   0.000000   0.000000  -0.000001   0.000000
    44  H    0.000000  -0.000003   0.000003   0.000197   0.000818   0.000064
    45  H    0.000001  -0.000086  -0.000063   0.000562   0.006088  -0.003481
    46  H    0.000000   0.000000   0.000000  -0.000002  -0.000004   0.000009
    47  H    0.000000   0.000000   0.000000   0.000000   0.000007  -0.000026
    48  H    0.000000   0.000000   0.000000   0.000000   0.000000   0.000000
    49  H    0.000000   0.000000   0.000000   0.000000   0.000000   0.000000
    50  H    0.000000   0.000000   0.000000   0.000000   0.000000   0.000000
              7          8          9         10         11         12
     1  Cl  -0.082502  -0.000149   0.000000   0.000000   0.000000   0.000000
     2  C    0.392341   0.007313  -0.000133  -0.000013   0.000000   0.000031
     3  C    0.021108  -0.000138  -0.000024   0.000008   0.000000   0.000023
     4  C   -0.085431   0.009662   0.000733  -0.000369  -0.000007  -0.000158
     5  C   -0.001031  -0.088148   0.004682  -0.001010  -0.000429  -0.003594
     6  C    0.431660   0.362646  -0.046092   0.001933  -0.000029  -0.006692
     7  C    4.857503  -0.072131   0.003716   0.000125  -0.000003  -0.000558
     8  C   -0.072131   4.691032   0.361061  -0.055865   0.002600   0.006140
     9  N    0.003716   0.361061   6.565869   0.366515  -0.070881  -0.074905
    10  C    0.000125  -0.055865   0.366515   4.642015   0.766071   0.284659
    11  O   -0.000003   0.002600  -0.070881   0.766071   7.602757  -0.089526
    12  C   -0.000558   0.006140  -0.074905   0.284659  -0.089526   4.799678
    13  N   -0.000002   0.000125   0.001586  -0.041320  -0.003108   0.367801
    14  N    0.000000   0.000027  -0.000023  -0.000629   0.000008  -0.048962
    15  N    0.000000   0.000000   0.000000  -0.000321   0.000011   0.006725
    16  C    0.000000   0.000001  -0.000010  -0.000969  -0.000916   0.010643
    17  C    0.000000   0.000000   0.000000   0.000022  -0.000020  -0.000461
    18  C    0.000000   0.000000   0.000000  -0.000002   0.000014   0.000041
    19  C    0.000000   0.000000  -0.000001   0.000070   0.000013  -0.000355
    20  C    0.000000   0.000001  -0.000026   0.002047   0.004178  -0.005600
    21  C    0.000000   0.000011   0.000430   0.001842   0.009791  -0.075841
    22  C   -0.000010  -0.058797   0.302902  -0.058253  -0.004413   0.007734
    23  C   -0.000043  -0.000871  -0.054197   0.002760  -0.000432  -0.000623
    24  C    0.000003  -0.000228   0.004239   0.000285   0.000025   0.000005
    25  C    0.000000   0.000047   0.000584  -0.000001  -0.000008   0.000000
    26  N    0.000000  -0.000015   0.002622   0.000085  -0.000082  -0.000001
    27  C    0.000010   0.001577  -0.037495  -0.008739   0.001144   0.000361
    28  C    0.000000   0.000000   0.000000   0.000001   0.000000   0.000000
    29  C    0.000000   0.000000   0.000000   0.000000   0.000000   0.000000
    30  N    0.000000   0.000000   0.000000   0.000000   0.000000   0.000000
    31  N    0.000000   0.000000   0.000000   0.000000   0.000000   0.000000
    32  C    0.000000   0.000000   0.000000   0.000000   0.000000   0.000000
    33  H    0.012035   0.000032   0.000000   0.000000   0.000000   0.000000
    34  H    0.000742  -0.000334   0.000027  -0.000004  -0.000001   0.000000
    35  H    0.012450  -0.026448   0.004859   0.003495   0.000483  -0.000533
    36  H    0.398056  -0.012888   0.000369  -0.000016   0.000000  -0.000039
    37  H   -0.007219   0.358361  -0.018214  -0.014118   0.000270   0.012493
    38  H   -0.000883   0.354005  -0.011365   0.005871  -0.000164  -0.000775
    39  H    0.000950   0.002976  -0.001265  -0.016609   0.001010   0.351525
    40  H   -0.000127  -0.000726  -0.000564  -0.006221   0.000948   0.335780
    41  H    0.000000   0.000000   0.000000   0.000000   0.000000   0.000002
    42  H    0.000000   0.000000   0.000000   0.000000   0.000000  -0.000001
    43  H    0.000000   0.000000   0.000000   0.000000  -0.000003  -0.000014
    44  H   -0.000006  -0.000027  -0.000071   0.000196   0.002532   0.001887
    45  H   -0.000060   0.008561  -0.012469  -0.001001  -0.000005  -0.000013
    46  H    0.000000  -0.000004  -0.000107   0.000005   0.000000   0.000000
    47  H    0.000000  -0.000505  -0.008048   0.002201   0.009877   0.000106
    48  H    0.000000   0.000000   0.000000   0.000000   0.000000   0.000000
    49  H    0.000000   0.000000   0.000000   0.000000   0.000000   0.000000
    50  H    0.000000   0.000000   0.000000   0.000000   0.000000   0.000000
             13         14         15         16         17         18
     1  Cl   0.000000   0.000000   0.000000   0.000000   0.000000   0.000000
     2  C    0.000000   0.000000   0.000000   0.000000   0.000000   0.000000
     3  C    0.000000   0.000000   0.000000   0.000000   0.000000   0.000000
     4  C    0.000000   0.000000   0.000000   0.000000   0.000000   0.000000
     5  C    0.000000  -0.000001   0.000000  -0.000001   0.000000   0.000000
     6  C    0.000046   0.000000   0.000000   0.000000   0.000000   0.000000
     7  C   -0.000002   0.000000   0.000000   0.000000   0.000000   0.000000
     8  C    0.000125   0.000027   0.000000   0.000001   0.000000   0.000000
     9  N    0.001586  -0.000023   0.000000  -0.000010   0.000000   0.000000
    10  C   -0.041320  -0.000629  -0.000321  -0.000969   0.000022  -0.000002
    11  O   -0.003108   0.000008   0.000011  -0.000916  -0.000020   0.000014
    12  C    0.367801  -0.048962   0.006725   0.010643  -0.000461   0.000041
    13  N    6.507965   0.290629  -0.113032  -0.005194   0.007225   0.000516
    14  N    0.290629   6.546367   0.460806  -0.125824   0.000545   0.000119
    15  N   -0.113032   0.460806   6.427659   0.508914  -0.050561   0.004310
    16  C   -0.005194  -0.125824   0.508914   4.978540   0.428369   0.028359
    17  C    0.007225   0.000545  -0.050561   0.428369   4.776327   0.497754
    18  C    0.000516   0.000119   0.004310   0.028359   0.497754   4.758092
    19  C    0.002472  -0.000122  -0.000683  -0.078162   0.013780   0.464945
    20  C   -0.059527   0.003360   0.011514  -0.016120  -0.071818   0.006790
    21  C    0.321984  -0.090725  -0.073161   0.281866   0.013371  -0.089201
    22  C   -0.000023   0.000000   0.000000   0.000000   0.000000   0.000000
    23  C    0.000002   0.000000   0.000000   0.000000   0.000000   0.000000
    24  C    0.000000   0.000000   0.000000   0.000000   0.000000   0.000000
    25  C    0.000000   0.000000   0.000000   0.000000   0.000000   0.000000
    26  N    0.000000   0.000000   0.000000   0.000000   0.000000   0.000000
    27  C   -0.000016  -0.000001   0.000000   0.000000   0.000000   0.000000
    28  C    0.000000   0.000000   0.000000   0.000000   0.000000   0.000000
    29  C    0.000000   0.000000   0.000000   0.000000   0.000000   0.000000
    30  N    0.000000   0.000000   0.000000   0.000000   0.000000   0.000000
    31  N    0.000000   0.000000   0.000000   0.000000   0.000000   0.000000
    32  C    0.000000   0.000000   0.000000   0.000000   0.000000   0.000000
    33  H    0.000000   0.000000   0.000000   0.000000   0.000000   0.000000
    34  H    0.000000   0.000000   0.000000   0.000000   0.000000   0.000000
    35  H    0.000005   0.000000   0.000000   0.000000   0.000000   0.000000
    36  H    0.000000   0.000000   0.000000   0.000000   0.000000   0.000000
    37  H    0.000436  -0.000210   0.000002  -0.000002   0.000000   0.000000
    38  H   -0.000008   0.000000   0.000000   0.000000   0.000000   0.000000
    39  H   -0.020638   0.001959  -0.000352   0.000830   0.000026  -0.000017
    40  H   -0.022350   0.023651   0.000142  -0.000645  -0.000021   0.000003
    41  H   -0.000011  -0.000555  -0.000932  -0.040853   0.377172  -0.058385
    42  H    0.000003   0.000008  -0.000096   0.010751  -0.048135   0.389606
    43  H   -0.000134   0.000005  -0.000008  -0.000739   0.010975  -0.049921
    44  H   -0.006246  -0.000273  -0.000236   0.009556  -0.000010   0.008718
    45  H    0.000000   0.000000   0.000000   0.000000   0.000000   0.000000
    46  H    0.000000   0.000000   0.000000   0.000000   0.000000   0.000000
    47  H   -0.000006   0.000001   0.000000   0.000000   0.000000   0.000000
    48  H    0.000000   0.000000   0.000000   0.000000   0.000000   0.000000
    49  H    0.000000   0.000000   0.000000   0.000000   0.000000   0.000000
    50  H    0.000000   0.000000   0.000000   0.000000   0.000000   0.000000
             19         20         21         22         23         24
     1  Cl   0.000000   0.000000   0.000000   0.000000   0.000000   0.000000
     2  C    0.000000   0.000000   0.000000   0.000001   0.000004   0.000000
     3  C    0.000000   0.000000   0.000000  -0.000005   0.000011   0.000000
     4  C    0.000000  -0.000032  -0.000003  -0.000061  -0.000277  -0.000004
     5  C    0.000001  -0.000132  -0.000035  -0.001313  -0.003205   0.000001
     6  C    0.000000  -0.000008  -0.000024  -0.003676  -0.003171   0.000225
     7  C    0.000000   0.000000   0.000000  -0.000010  -0.000043   0.000003
     8  C    0.000000   0.000001   0.000011  -0.058797  -0.000871  -0.000228
     9  N   -0.000001  -0.000026   0.000430   0.302902  -0.054197   0.004239
    10  C    0.000070   0.002047   0.001842  -0.058253   0.002760   0.000285
    11  O    0.000013   0.004178   0.009791  -0.004413  -0.000432   0.000025
    12  C   -0.000355  -0.005600  -0.075841   0.007734  -0.000623   0.000005
    13  N    0.002472  -0.059527   0.321984  -0.000023   0.000002   0.000000
    14  N   -0.000122   0.003360  -0.090725   0.000000   0.000000   0.000000
    15  N   -0.000683   0.011514  -0.073161   0.000000   0.000000   0.000000
    16  C   -0.078162  -0.016120   0.281866   0.000000   0.000000   0.000000
    17  C    0.013780  -0.071818   0.013371   0.000000   0.000000   0.000000
    18  C    0.464945   0.006790  -0.089201   0.000000   0.000000   0.000000
    19  C    4.716430   0.513648   0.027332   0.000000   0.000000   0.000000
    20  C    0.513648   4.856110   0.393347  -0.000002   0.000000   0.000000
    21  C    0.027332   0.393347   5.060256  -0.000005   0.000001   0.000000
    22  C    0.000000  -0.000002  -0.000005   5.024738   0.453328   0.002891
[...]
     9  N    0.000000  -0.000071  -0.012469  -0.000107  -0.008048   0.000000
    10  C    0.000000   0.000196  -0.001001   0.000005   0.002201   0.000000
    11  O   -0.000003   0.002532  -0.000005   0.000000   0.009877   0.000000
    12  C   -0.000014   0.001887  -0.000013   0.000000   0.000106   0.000000
    13  N   -0.000134  -0.006246   0.000000   0.000000  -0.000006   0.000000
    14  N    0.000005  -0.000273   0.000000   0.000000   0.000001   0.000000
    15  N   -0.000008  -0.000236   0.000000   0.000000   0.000000   0.000000
    16  C   -0.000739   0.009556   0.000000   0.000000   0.000000   0.000000
    17  C    0.010975  -0.000010   0.000000   0.000000   0.000000   0.000000
    18  C   -0.049921   0.008718   0.000000   0.000000   0.000000   0.000000
    19  C    0.386151  -0.044480   0.000000   0.000000   0.000000   0.000000
    20  C   -0.047158   0.365640   0.000000   0.000000   0.000000   0.000000
    21  C    0.010795  -0.030291   0.000000   0.000000   0.000015   0.000000
    22  C    0.000000   0.000002  -0.048451   0.010619  -0.045479   0.000011
    23  C    0.000000   0.000003   0.384720  -0.038482   0.007469   0.000236
    24  C    0.000000   0.000000  -0.041614   0.370757   0.001042   0.003538
    25  C    0.000000   0.000000   0.008533  -0.034715   0.000214  -0.012152
    26  N    0.000000   0.000000  -0.000654   0.005944  -0.026428  -0.000091
    27  C    0.000000   0.000002   0.009067   0.001012   0.385752  -0.000015
    28  C    0.000000   0.000000  -0.000250  -0.020674  -0.001007  -0.020107
    29  C    0.000000   0.000000  -0.000007   0.003714   0.000013   0.383554
    30  N    0.000000   0.000000   0.000000   0.000128   0.000000  -0.030185
    31  N    0.000000   0.000000   0.000000   0.000007   0.000000   0.003925
    32  C    0.000000   0.000000   0.000010  -0.000487  -0.000086   0.006487
    33  H    0.000000   0.000000   0.000000   0.000000   0.000000   0.000000
    34  H    0.000000   0.000010   0.000018   0.000000   0.000000   0.000000
    35  H    0.000000   0.000337  -0.000507  -0.000002  -0.000002   0.000000
    36  H    0.000000   0.000000  -0.000023   0.000000   0.000000   0.000000
    37  H    0.000000  -0.000012   0.000526  -0.000001   0.000023   0.000000
    38  H    0.000000   0.000000  -0.002135   0.000017   0.000029   0.000000
    39  H    0.000005   0.000715   0.000015   0.000000   0.000005   0.000000
    40  H   -0.000001  -0.000029  -0.000004   0.000000  -0.000069   0.000000
    41  H   -0.000161   0.000060   0.000000   0.000000   0.000000   0.000000
    42  H   -0.015841  -0.000223   0.000000   0.000000   0.000000   0.000000
    43  H    0.746841  -0.015240   0.000000   0.000000   0.000000   0.000000
    44  H   -0.015240   0.739532  -0.000001   0.000000   0.000001   0.000000
    45  H    0.000000  -0.000001   0.731151  -0.016610  -0.000244   0.000008
    46  H    0.000000   0.000000  -0.016610   0.758028   0.000107   0.000010
    47  H    0.000000   0.000001  -0.000244   0.000107   0.672294   0.000000
    48  H    0.000000   0.000000   0.000008   0.000010   0.000000   0.672916
    49  H    0.000000   0.000000   0.000001  -0.000072  -0.000149  -0.000182
    50  H    0.000000   0.000000   0.000000   0.000008   0.000000  -0.004913
             49         50
     1  Cl   0.000000   0.000000
     2  C    0.000000   0.000000
     3  C    0.000000   0.000000
     4  C    0.000000   0.000000
     5  C    0.000000   0.000000
     6  C    0.000000   0.000000
     7  C    0.000000   0.000000
     8  C    0.000000   0.000000
     9  N    0.000000   0.000000
    10  C    0.000000   0.000000
    11  O    0.000000   0.000000
    12  C    0.000000   0.000000
    13  N    0.000000   0.000000
    14  N    0.000000   0.000000
    15  N    0.000000   0.000000
    16  C    0.000000   0.000000
    17  C    0.000000   0.000000
    18  C    0.000000   0.000000
    19  C    0.000000   0.000000
    20  C    0.000000   0.000000
    21  C    0.000000   0.000000
    22  C    0.000037   0.000000
    23  C    0.000047   0.000000
    24  C    0.000570   0.000031
    25  C   -0.022497  -0.000391
    26  N    0.017646   0.000003
    27  C    0.000583   0.000000
    28  C   -0.039183   0.008593
    29  C    0.016261  -0.037392
    30  N    0.003015   0.382205
    31  N   -0.029183  -0.029943
    32  C    0.391293   0.007306
    33  H    0.000000   0.000000
    34  H    0.000000   0.000000
    35  H    0.000000   0.000000
    36  H    0.000000   0.000000
    37  H    0.000000   0.000000
    38  H    0.000000   0.000000
    39  H    0.000000   0.000000
    40  H    0.000000   0.000000
    41  H    0.000000   0.000000
    42  H    0.000000   0.000000
    43  H    0.000000   0.000000
    44  H    0.000000   0.000000
    45  H    0.000001   0.000000
    46  H   -0.000072   0.000008
    47  H   -0.000149   0.000000
    48  H   -0.000182  -0.004913
    49  H    0.670997  -0.000383
    50  H   -0.000383   0.573753
 Mulliken atomic charges:
              1
     1  Cl  -0.076242
     2  C   -0.143687
     3  C    0.119278
     4  C    0.052439
     5  C    0.019110
     6  C   -0.086555
     7  C    0.119306
     8  C    0.151096
     9  N   -0.284306
    10  C    0.125256
    11  O   -0.231703
    12  C    0.123018
    13  N   -0.229179
    14  N   -0.060160
    15  N   -0.180701
    16  C    0.011606
    17  C    0.045460
    18  C    0.038260
    19  C    0.039845
    20  C    0.031695
    21  C    0.213905
    22  C    0.042089
    23  C    0.067725
    24  C    0.018481
    25  C    0.074218
    26  N   -0.207735
    27  C    0.151329
    28  C   -0.054135
    29  C    0.070774
    30  N    0.002771
    31  N   -0.170393
    32  C    0.136022
    33  H   -0.014519
    34  H   -0.011978
    35  H   -0.014437
    36  H   -0.031158
    37  H    0.045255
    38  H    0.052583
    39  H    0.057686
    40  H    0.062642
    41  H   -0.021260
    42  H   -0.026417
    43  H   -0.025552
    44  H   -0.033126
    45  H   -0.021582
    46  H   -0.039204
    47  H    0.002894
    48  H   -0.003040
    49  H   -0.008800
    50  H    0.101123
 Sum of Mulliken atomic charges =   0.00000
 Mulliken charges with hydrogens summed into heavy atoms:
              1
     1  Cl  -0.076242
     2  C   -0.143687
     3  C    0.104759
     4  C    0.040461
     5  C    0.004673
     6  C   -0.086555
     7  C    0.088148
     8  C    0.248934
     9  N   -0.284306
    10  C    0.125256
    11  O   -0.231703
    12  C    0.243345
    13  N   -0.229179
    14  N   -0.060160
    15  N   -0.180701
    16  C    0.011606
    17  C    0.024200
    18  C    0.011843
    19  C    0.014294
    20  C   -0.001431
    21  C    0.213905
    22  C    0.042089
    23  C    0.046143
    24  C   -0.020722
    25  C    0.074218
    26  N   -0.207735
    27  C    0.154223
    28  C   -0.054135
    29  C    0.067734
    30  N    0.103894
    31  N   -0.170393
    32  C    0.127221
 Sum of Mulliken charges with hydrogens summed into heavy atoms =   0.00000
 Electronic spatial extent (au):  <R**2>=          19967.1533
 Charge=              0.0000 electrons
 Dipole moment (field-independent basis, Debye):
    X=              2.0897    Y=              7.0485    Z=              3.7184  Tot=              8.2386
 Quadrupole moment (field-independent basis, Debye-Ang):
   XX=           -184.2197   YY=           -205.1656   ZZ=           -184.0219
   XY=             17.8727   XZ=             -2.5900   YZ=             -6.5799
 Traceless Quadrupole moment (field-independent basis, Debye-Ang):
   XX=              6.9161   YY=            -14.0299   ZZ=              7.1138
   XY=             17.8727   XZ=             -2.5900   YZ=             -6.5799
 Octapole moment (field-independent basis, Debye-Ang**2):
  XXX=            230.3270  YYY=            -12.5876  ZZZ=             27.7688  XYY=            -16.2983
  XXY=            152.8997  XXZ=            152.1048  XZZ=              8.4832  YZZ=             38.8277
  YYZ=             42.0633  XYZ=             49.2326
 Hexadecapole moment (field-independent basis, Debye-Ang**3):
 XXXX=         -14784.3157 YYYY=          -9221.3577 ZZZZ=          -1509.1992 XXXY=           1154.4034
 XXXZ=            672.2420 YYYX=            152.8581 YYYZ=            -47.3027 ZZZX=            -96.6241
 ZZZY=            -70.6113 XXYY=          -4465.8009 XXZZ=          -3026.3140 YYZZ=          -1714.4741
 XXYZ=           -131.9103 YYXZ=           -214.9424 ZZXY=           -105.3268
 N-N= 3.029811174621D+03 E-N=-1.028158390564D+04  KE= 1.796244081605D+03
 No NMR shielding tensors so no spin-rotation constants.
 Leave Link  601 at Sat Sep 10 14:14:14 2022, MaxMem=  209715200 cpu:       3.8
 (Enter /opt/gaussian/l602.exe)
 Breneman (CHELPG) radii used.
 Read replacement radii for each type of atom:
 Rad(35) =   1.900000000000D+00
 Atom Element Radius
    1    17    2.00
    2     6    1.50
    3     6    1.50
    4     6    1.50
    5     6    1.50
    6     6    1.50
    7     6    1.50
    8     6    1.50
    9     7    1.70
   10     6    1.50
   11     8    1.70
   12     6    1.50
   13     7    1.70
   14     7    1.70
   15     7    1.70
   16     6    1.50
   17     6    1.50
   18     6    1.50
   19     6    1.50
   20     6    1.50
   21     6    1.50
   22     6    1.50
   23     6    1.50
   24     6    1.50
   25     6    1.50
   26     7    1.70
   27     6    1.50
   28     6    1.50
   29     6    1.50
   30     7    1.70
   31     7    1.70
   32     6    1.50
   33     1    1.45
   34     1    1.45
   35     1    1.45
   36     1    1.45
   37     1    1.45
   38     1    1.45
   39     1    1.45
   40     1    1.45
   41     1    1.45
   42     1    1.45
   43     1    1.45
   44     1    1.45
   45     1    1.45
   46     1    1.45
   47     1    1.45
   48     1    1.45
   49     1    1.45
   50     1    1.45
 Generate Potential Derived Charges using the Breneman model, NDens= 1.
 Grid spacing= 0.300 Box extension= 2.800
 NStep X,Y,Z=   68     57     39   Total possible points=      151164
 Number of Points to Fit=   27990

 **********************************************************************

            Electrostatic Properties Using The SCF Density

 **********************************************************************

       Atomic Center    1 is at  -2.756459  5.960701 -0.427940
       Atomic Center    2 is at  -2.002429  4.488611  0.166890
       Atomic Center    3 is at  -2.008259  4.219761  1.538570
       Atomic Center    4 is at  -1.407799  3.044091  1.989810
       Atomic Center    5 is at  -0.810569  2.152911  1.091010
       Atomic Center    6 is at  -0.808169  2.430431 -0.281690
       Atomic Center    7 is at  -1.414499  3.609541 -0.741600
       Atomic Center    8 is at  -0.154270  1.510331 -1.308130
       Atomic Center    9 is at   0.263720  0.190401 -0.825660
       Atomic Center   10 is at  -0.649800 -0.842449 -0.637330
       Atomic Center   11 is at  -0.351060 -1.917719 -0.154390
       Atomic Center   12 is at  -2.097250 -0.549299 -1.080350
       Atomic Center   13 is at  -2.946710 -1.704129 -0.947490
       Atomic Center   14 is at  -3.394110 -2.333259 -2.079000
       Atomic Center   15 is at  -4.145890 -3.325399 -1.750130
       Atomic Center   16 is at  -4.216330 -3.382259 -0.371120
       Atomic Center   17 is at  -4.909940 -4.264849  0.475560
       Atomic Center   18 is at  -4.796000 -4.060619  1.843420
       Atomic Center   19 is at  -4.006820 -3.005519  2.368360
       Atomic Center   20 is at  -3.311150 -2.127319  1.547080
       Atomic Center   21 is at  -3.434580 -2.335799  0.163640
       Atomic Center   22 is at   1.650270 -0.008599 -0.520960
       Atomic Center   23 is at   2.409650  1.002091  0.082830
       Atomic Center   24 is at   3.765040  0.790741  0.317060
       Atomic Center   25 is at   4.348000 -0.433649 -0.050720
       Atomic Center   26 is at   3.615460 -1.406919 -0.632530
       Atomic Center   27 is at   2.319660 -1.199919 -0.858190
       Atomic Center   28 is at   5.767290 -0.731420  0.160680
       Atomic Center   29 is at   6.768440  0.065450  0.710780
       Atomic Center   30 is at   7.904250 -0.675650  0.677950
       Atomic Center   31 is at   7.731120 -1.904920  0.147040
       Atomic Center   32 is at   6.440130 -1.943730 -0.167450
       Atomic Center   33 is at  -2.477139  4.918441  2.231590
       Atomic Center   34 is at  -1.405259  2.818721  3.058390
       Atomic Center   35 is at  -0.345930  1.238391  1.463190
       Atomic Center   36 is at  -1.432369  3.846851 -1.807300
       Atomic Center   37 is at  -0.832150  1.391421 -2.167500
       Atomic Center   38 is at   0.743421  2.000051 -1.713070
       Atomic Center   39 is at  -2.510520  0.294921 -0.505500
       Atomic Center   40 is at  -2.128510 -0.279139 -2.145370
       Atomic Center   41 is at  -5.510770 -5.073889  0.057650
       Atomic Center   42 is at  -5.318170 -4.724329  2.535500
       Atomic Center   43 is at  -3.938990 -2.886019  3.451980
       Atomic Center   44 is at  -2.689710 -1.332159  1.959750
       Atomic Center   45 is at   1.951291  1.947571  0.377750
       Atomic Center   46 is at   4.360581  1.574651  0.788080
       Atomic Center   47 is at   1.774420 -2.021079 -1.324840
       Atomic Center   48 is at   6.760750  1.075650  1.111080
       Atomic Center   49 is at   6.004920 -2.829710 -0.621200
       Atomic Center   50 is at   8.823800 -0.402530  0.999840
   27990 points will be used for fitting atomic charges
 Fitting point charges to electrostatic potential
 Charges from ESP fit, RMS=   0.00410 RRMS=   0.20858:
 Charge=   0.00000 Dipole=     2.0807     6.8934     3.6871 Tot=     8.0897
              1
     1  Cl  -0.113603
     2  C    0.068205
     3  C   -0.055361
     4  C   -0.146842
     5  C   -0.054528
     6  C    0.145382
     7  C   -0.147731
     8  C   -0.076139
     9  N   -0.375033
    10  C    0.604215
    11  O   -0.498655
    12  C    0.011051
    13  N    0.286883
    14  N   -0.221640
    15  N   -0.341590
    16  C    0.425313
    17  C   -0.292269
    18  C   -0.025418
    19  C   -0.109462
    20  C   -0.148363
    21  C   -0.070234
    22  C    0.045463
    23  C    0.088422
    24  C   -0.359586
    25  C    0.460900
    26  N   -0.545443
    27  C    0.254395
    28  C   -0.184159
    29  C   -0.132311
    30  N    0.066818
    31  N   -0.460594
    32  C    0.243694
    33  H    0.096991
    34  H    0.115493
    35  H    0.078702
    36  H    0.098108
    37  H    0.128973
    38  H    0.071799
    39  H   -0.032191
    40  H    0.003688
    41  H    0.140201
    42  H    0.081569
    43  H    0.094723
    44  H    0.110774
    45  H    0.025548
    46  H    0.157247
    47  H    0.067841
    48  H    0.111067
    49  H    0.055075
    50  H    0.252612
 Charges from ESP fit with hydrogens summed into heavy atoms:
              1
     1  Cl  -0.113603
     2  C    0.068205
     3  C    0.041631
     4  C   -0.031349
     5  C    0.024174
     6  C    0.145382
     7  C   -0.049623
     8  C    0.124633
     9  N   -0.375033
    10  C    0.604215
    11  O   -0.498655
    12  C   -0.017452
    13  N    0.286883
    14  N   -0.221640
    15  N   -0.341590
    16  C    0.425313
    17  C   -0.152067
    18  C    0.056151
    19  C   -0.014740
    20  C   -0.037588
    21  C   -0.070234
    22  C    0.045463
    23  C    0.113970
    24  C   -0.202339
    25  C    0.460900
    26  N   -0.545443
    27  C    0.322236
    28  C   -0.184159
    29  C   -0.021244
    30  N    0.319430
    31  N   -0.460594
    32  C    0.298769
    33  H    0.000000
    34  H    0.000000
    35  H    0.000000
    36  H    0.000000
    37  H    0.000000
    38  H    0.000000
    39  H    0.000000
    40  H    0.000000
    41  H    0.000000
    42  H    0.000000
    43  H    0.000000
    44  H    0.000000
    45  H    0.000000
    46  H    0.000000
    47  H    0.000000
    48  H    0.000000
    49  H    0.000000
    50  H    0.000000
 -----------------------------------------------------------------

              Electrostatic Properties (Atomic Units)

 -----------------------------------------------------------------
    Center     Electric         -------- Electric Field --------
               Potential          X             Y             Z
 -----------------------------------------------------------------
    1 Atom    -64.395145
    2 Atom    -14.674083
    3 Atom    -14.723416
    4 Atom    -14.721385
    5 Atom    -14.725702
    6 Atom    -14.710836
    7 Atom    -14.721502
    8 Atom    -14.673125
    9 Atom    -18.306173
   10 Atom    -14.628592
   11 Atom    -22.356908
   12 Atom    -14.677650
   13 Atom    -18.291561
   14 Atom    -18.329500
   15 Atom    -18.367992
   16 Atom    -14.736204
   17 Atom    -14.747152
   18 Atom    -14.750556
   19 Atom    -14.744709
   20 Atom    -14.740267
   21 Atom    -14.713078
   22 Atom    -14.696231
   23 Atom    -14.727559
   24 Atom    -14.738480
   25 Atom    -14.704647
   26 Atom    -18.382876
   27 Atom    -14.715806
   28 Atom    -14.753476
   29 Atom    -14.710253
   30 Atom    -18.290846
   31 Atom    -18.367934
   32 Atom    -14.741493
   33 Atom     -1.063300
   34 Atom     -1.066479
   35 Atom     -1.066268
   36 Atom     -1.058034
   37 Atom     -1.056850
   38 Atom     -1.055878
   39 Atom     -1.053140
   40 Atom     -1.049556
   41 Atom     -1.088605
   42 Atom     -1.094456
   43 Atom     -1.090617
   44 Atom     -1.079479
   45 Atom     -1.064950
   46 Atom     -1.073850
   47 Atom     -1.094510
   48 Atom     -1.049082
   49 Atom     -1.092974
   50 Atom     -0.974995
 -----------------------------------------------------------------
 Leave Link  602 at Sat Sep 10 14:14:29 2022, MaxMem=  209715200 cpu:     106.4
 (Enter /opt/gaussian/l9999.exe)
 1\1\GINC-LQCAPF-6\SP\RB3LYP\CC-pVDZ\C23H18Cl1N7O1\LQCAPF-6\10-Sep-2022
 \0\\#p b3lyp/cc-pvdz pop=(chelpg,readradii)\\Mol39.log\\0,1\Cl,0,-2.75
 646,5.9607,-0.42794\C,0,-2.00243,4.48861,0.16689\C,0,-2.00826,4.21976,
 1.53857\C,0,-1.4078,3.04409,1.98981\C,0,-0.81057,2.15291,1.09101\C,0,-
 0.80817,2.43043,-0.28169\C,0,-1.4145,3.60954,-0.7416\C,0,-0.15427,1.51
 033,-1.30813\N,0,0.26372,0.1904,-0.82566\C,0,-0.6498,-0.84245,-0.63733
 \O,0,-0.35106,-1.91772,-0.15439\C,0,-2.09725,-0.5493,-1.08035\N,0,-2.9
 4671,-1.70413,-0.94749\N,0,-3.39411,-2.33326,-2.079\N,0,-4.14589,-3.32
 54,-1.75013\C,0,-4.21633,-3.38226,-0.37112\C,0,-4.90994,-4.26485,0.475
 56\C,0,-4.796,-4.06062,1.84342\C,0,-4.00682,-3.00552,2.36836\C,0,-3.31
 115,-2.12732,1.54708\C,0,-3.43458,-2.3358,0.16364\C,0,1.65027,-0.0086,
 -0.52096\C,0,2.40965,1.00209,0.08283\C,0,3.76504,0.79074,0.31706\C,0,4
 .348,-0.43365,-0.05072\N,0,3.61546,-1.40692,-0.63253\C,0,2.31966,-1.19
 992,-0.85819\C,0,5.76729,-0.73142,0.16068\C,0,6.76844,0.06545,0.71078\
 N,0,7.90425,-0.67565,0.67795\N,0,7.73112,-1.90492,0.14704\C,0,6.44013,
 -1.94373,-0.16745\H,0,-2.47714,4.91844,2.23159\H,0,-1.40526,2.81872,3.
 05839\H,0,-0.34593,1.23839,1.46319\H,0,-1.43237,3.84685,-1.8073\H,0,-0
 .83215,1.39142,-2.1675\H,0,0.74342,2.00005,-1.71307\H,0,-2.51052,0.294
 92,-0.5055\H,0,-2.12851,-0.27914,-2.14537\H,0,-5.51077,-5.07389,0.0576
 5\H,0,-5.31817,-4.72433,2.5355\H,0,-3.93899,-2.88602,3.45198\H,0,-2.68
 971,-1.33216,1.95975\H,0,1.95129,1.94757,0.37775\H,0,4.36058,1.57465,0
 .78808\H,0,1.77442,-2.02108,-1.32484\H,0,6.76075,1.07565,1.11108\H,0,6
 .00492,-2.82971,-0.6212\H,0,8.8238,-0.40253,0.99984\\Version=EM64L-G09
 RevC.01\State=1-A\HF=-1806.0290226\RMSD=5.866e-09\Dipole=0.822161,2.77
 31044,1.4629275\Quadrupole=5.1419242,-10.4308923,5.2889681,13.2879195,
 -1.9255902,-4.8919911\PG=C01 [X(C23H18Cl1N7O1)]\\@


 SUCCESS-- IF YOU HAVE TRIED TO DO SOMETHING AND FAILED
           YOU ARE BETTER OFF THAN IF YOU HAD TRIED TO DO
           NOTHING AND SUCCEEDED.

                   -- FROM THE BACK OF A SUGAR PACKET
 Job cpu time:  0 days  1 hours 35 minutes 10.6 seconds.
 File lengths (MBytes):  RWF=    162 Int=      0 D2E=      0 Chk=     11 Scr=      1
 Normal termination of Gaussian 09 at Sat Sep 10 14:14:29 2022.
