 Entering Gaussian System, Link 0=g09
 Input=Mol40.gjf
 Output=Mol40.log
 Initial command:
 /opt/gaussian/l1.exe /home/scr/lqcapf-6/Gau-583763.inp -scrdir=/home/scr/lqcapf-6/
 Entering Link 1 = /opt/gaussian/l1.exe PID=    583765.
  
 Copyright (c) 1988,1990,1992,1993,1995,1998,2003,2009,2011,
            Gaussian, Inc.  All Rights Reserved.
  
 This is part of the Gaussian(R) 09 program.  It is based on
 the Gaussian(R) 03 system (copyright 2003, Gaussian, Inc.),
 the Gaussian(R) 98 system (copyright 1998, Gaussian, Inc.),
 the Gaussian(R) 94 system (copyright 1995, Gaussian, Inc.),
 the Gaussian 92(TM) system (copyright 1992, Gaussian, Inc.),
 the Gaussian 90(TM) system (copyright 1990, Gaussian, Inc.),
 the Gaussian 88(TM) system (copyright 1988, Gaussian, Inc.),
 the Gaussian 86(TM) system (copyright 1986, Carnegie Mellon
 University), and the Gaussian 82(TM) system (copyright 1983,
 Carnegie Mellon University). Gaussian is a federally registered
 trademark of Gaussian, Inc.
  
 This software contains proprietary and confidential information,
 including trade secrets, belonging to Gaussian, Inc.
  
 This software is provided under written license and may be
 used, copied, transmitted, or stored only in accord with that
 written license.
  
 The following legend is applicable only to US Government
 contracts under FAR:
  
                    RESTRICTED RIGHTS LEGEND
  
 Use, reproduction and disclosure by the US Government is
 subject to restrictions as set forth in subparagraphs (a)
 and (c) of the Commercial Computer Software - Restricted
 Rights clause in FAR 52.227-19.
  
 Gaussian, Inc.
 340 Quinnipiac St., Bldg. 40, Wallingford CT 06492
  
  
 ---------------------------------------------------------------
 Warning -- This program may not be used in any manner that
 competes with the business of Gaussian, Inc. or will provide
 assistance to any competitor of Gaussian, Inc.  The licensee
 of this program is prohibited from giving any competitor of
 Gaussian, Inc. access to this program.  By using this program,
 the user acknowledges that Gaussian, Inc. is engaged in the
 business of creating and licensing software in the field of
 computational chemistry and represents and warrants to the
 licensee that it is not a competitor of Gaussian, Inc. and that
 it will not use this program in any manner prohibited above.
 ---------------------------------------------------------------
  

 Cite this work as:
 Gaussian 09, Revision C.01,
 M. J. Frisch, G. W. Trucks, H. B. Schlegel, G. E. Scuseria, 
 M. A. Robb, J. R. Cheeseman, G. Scalmani, V. Barone, B. Mennucci, 
 G. A. Petersson, H. Nakatsuji, M. Caricato, X. Li, H. P. Hratchian, 
 A. F. Izmaylov, J. Bloino, G. Zheng, J. L. Sonnenberg, M. Hada, 
 M. Ehara, K. Toyota, R. Fukuda, J. Hasegawa, M. Ishida, T. Nakajima, 
 Y. Honda, O. Kitao, H. Nakai, T. Vreven, J. A. Montgomery, Jr., 
 J. E. Peralta, F. Ogliaro, M. Bearpark, J. J. Heyd, E. Brothers, 
 K. N. Kudin, V. N. Staroverov, T. Keith, R. Kobayashi, J. Normand, 
 K. Raghavachari, A. Rendell, J. C. Burant, S. S. Iyengar, J. Tomasi, 
 M. Cossi, N. Rega, J. M. Millam, M. Klene, J. E. Knox, J. B. Cross, 
 V. Bakken, C. Adamo, J. Jaramillo, R. Gomperts, R. E. Stratmann, 
 O. Yazyev, A. J. Austin, R. Cammi, C. Pomelli, J. W. Ochterski, 
 R. L. Martin, K. Morokuma, V. G. Zakrzewski, G. A. Voth, 
 P. Salvador, J. J. Dannenberg, S. Dapprich, A. D. Daniels, 
 O. Farkas, J. B. Foresman, J. V. Ortiz, J. Cioslowski, 
 and D. J. Fox, Gaussian, Inc., Wallingford CT, 2010.
 
 ******************************************
 Gaussian 09:  EM64L-G09RevC.01 23-Sep-2011
                10-Sep-2022 
 ******************************************
 %nprocshared=8
 Will use up to    8 processors via shared memory.
 %mem=1600MB
 ---------------------------------------
 #p b3lyp/cc-pvdz pop=(chelpg,readradii)
 ---------------------------------------
 1/38=1/1;
 2/12=2,17=6,18=5,40=1/2;
 3/5=16,11=2,16=1,25=1,30=1,74=-5/1,2,3;
 4//1;
 5/5=2,38=5/2;
 6/7=2,8=2,9=2,10=2,15=8,20=103,28=1/1,2;
 99/5=1,9=1/99;
 Leave Link    1 at Sat Sep 10 14:14:29 2022, MaxMem=  209715200 cpu:       0.2
 (Enter /opt/gaussian/l101.exe)
 ---------
 Mol40.log
 ---------
 Charge =  0 Multiplicity = 1
 Symbolic Z-Matrix:
 Cl                   -3.37724   5.24162  -0.28338 
 C                    -2.11971   4.12197   0.2276 
 C                    -1.68965   4.12948   1.55484 
 C                    -0.69207   3.22853   1.93825 
 C                    -0.13496   2.33956   1.01628 
 C                    -0.57608   2.33509  -0.31535 
 C                    -1.57819   3.23515  -0.70527 
 C                     0.04129   1.41838  -1.35882 
 N                     0.36343   0.05334  -0.89658 
 C                    -0.64277  -0.88782  -0.7056 
 O                    -0.45825  -2.00275  -0.25137 
 C                    -2.06442  -0.44576  -1.10979 
 N                    -3.01993  -1.51059  -0.94964 
 N                    -3.50303  -2.14914  -2.05978 
 N                    -4.33466  -3.06502  -1.70105 
 C                    -4.42142  -3.06027  -0.32175 
 C                    -5.18943  -3.8499    0.55205 
 C                    -5.06946  -3.59991   1.91195 
 C                    -4.2036   -2.5894    2.40286 
 C                    -3.43498  -1.8021    1.55468 
 C                    -3.56408  -2.05762   0.17968 
 C                     1.73639  -0.23719  -0.61104 
 C                     2.2572   -1.54431  -0.54577 
 C                     3.61706  -1.69451  -0.30439 
 C                     4.45019  -0.57637  -0.11609 
 C                     3.8152    0.6719   -0.20118 
 N                     2.51147   0.83901  -0.44125 
 C                     5.88769  -0.69178   0.15183 
 C                     6.57431  -1.77418   0.6968 
 N                     7.88118  -1.41189   0.75269 
 N                     8.1158   -0.17214   0.28291 
 C                     6.91446   0.27026  -0.08003 
 H                    -2.12914   4.82543   2.26971 
 H                    -0.34225   3.22641   2.97296 
 H                     0.65602   1.65635   1.32513 
 H                    -1.94214   3.25136  -1.7345 
 H                    -0.61619   1.35618  -2.23723 
 H                     0.99112   1.85475  -1.68933 
 H                    -2.37571   0.43312  -0.52452 
 H                    -2.09483  -0.17022  -2.17333 
 H                    -5.85022  -4.6247    0.1605 
 H                    -5.64842  -4.19111   2.62436 
 H                    -4.13625  -2.43031   3.48142 
 H                    -2.75919  -1.03852   1.94146 
 H                     1.61355  -2.40687  -0.67971 
 H                     4.03928  -2.70181  -0.28116 
 H                     4.38647   1.59319  -0.05192 
 H                     6.23211  -2.73979   1.05903 
 H                     6.82173   1.26206  -0.51812 
 H                     8.65564  -1.96151   1.10225 
 
 NAtoms=     50 NQM=        0 NQMF=       0 NMMI=     50 NMMIF=      0
                NMic=       0 NMicF=      0.
                    Isotopes and Nuclear Properties:
 (Nuclear quadrupole moments (NQMom) in fm**2, nuclear magnetic moments (NMagM)
  in nuclear magnetons)

  Atom         1           2           3           4           5           6           7           8           9          10
 IAtWgt=          35          12          12          12          12          12          12          12          14          12
 AtmWgt=  34.9688527  12.0000000  12.0000000  12.0000000  12.0000000  12.0000000  12.0000000  12.0000000  14.0030740  12.0000000
 NucSpn=           3           0           0           0           0           0           0           0           2           0
 AtZEff=   0.0000000   0.0000000   0.0000000   0.0000000   0.0000000   0.0000000   0.0000000   0.0000000   0.0000000   0.0000000
 NQMom=   -8.1650000   0.0000000   0.0000000   0.0000000   0.0000000   0.0000000   0.0000000   0.0000000   2.0440000   0.0000000
 NMagM=    0.8218740   0.0000000   0.0000000   0.0000000   0.0000000   0.0000000   0.0000000   0.0000000   0.4037610   0.0000000

  Atom        11          12          13          14          15          16          17          18          19          20
 IAtWgt=          16          12          14          14          14          12          12          12          12          12
 AtmWgt=  15.9949146  12.0000000  14.0030740  14.0030740  14.0030740  12.0000000  12.0000000  12.0000000  12.0000000  12.0000000
 NucSpn=           0           0           2           2           2           0           0           0           0           0
 AtZEff=   0.0000000   0.0000000   0.0000000   0.0000000   0.0000000   0.0000000   0.0000000   0.0000000   0.0000000   0.0000000
 NQMom=    0.0000000   0.0000000   2.0440000   2.0440000   2.0440000   0.0000000   0.0000000   0.0000000   0.0000000   0.0000000
 NMagM=    0.0000000   0.0000000   0.4037610   0.4037610   0.4037610   0.0000000   0.0000000   0.0000000   0.0000000   0.0000000

  Atom        21          22          23          24          25          26          27          28          29          30
 IAtWgt=          12          12          12          12          12          12          14          12          12          14
 AtmWgt=  12.0000000  12.0000000  12.0000000  12.0000000  12.0000000  12.0000000  14.0030740  12.0000000  12.0000000  14.0030740
 NucSpn=           0           0           0           0           0           0           2           0           0           2
 AtZEff=   0.0000000   0.0000000   0.0000000   0.0000000   0.0000000   0.0000000   0.0000000   0.0000000   0.0000000   0.0000000
 NQMom=    0.0000000   0.0000000   0.0000000   0.0000000   0.0000000   0.0000000   2.0440000   0.0000000   0.0000000   2.0440000
 NMagM=    0.0000000   0.0000000   0.0000000   0.0000000   0.0000000   0.0000000   0.4037610   0.0000000   0.0000000   0.4037610

  Atom        31          32          33          34          35          36          37          38          39          40
 IAtWgt=          14          12           1           1           1           1           1           1           1           1
 AtmWgt=  14.0030740  12.0000000   1.0078250   1.0078250   1.0078250   1.0078250   1.0078250   1.0078250   1.0078250   1.0078250
 NucSpn=           2           0           1           1           1           1           1           1           1           1
 AtZEff=   0.0000000   0.0000000   0.0000000   0.0000000   0.0000000   0.0000000   0.0000000   0.0000000   0.0000000   0.0000000
 NQMom=    2.0440000   0.0000000   0.0000000   0.0000000   0.0000000   0.0000000   0.0000000   0.0000000   0.0000000   0.0000000
 NMagM=    0.4037610   0.0000000   2.7928460   2.7928460   2.7928460   2.7928460   2.7928460   2.7928460   2.7928460   2.7928460

  Atom        41          42          43          44          45          46          47          48          49          50
 IAtWgt=           1           1           1           1           1           1           1           1           1           1
 AtmWgt=   1.0078250   1.0078250   1.0078250   1.0078250   1.0078250   1.0078250   1.0078250   1.0078250   1.0078250   1.0078250
 NucSpn=           1           1           1           1           1           1           1           1           1           1
 AtZEff=   0.0000000   0.0000000   0.0000000   0.0000000   0.0000000   0.0000000   0.0000000   0.0000000   0.0000000   0.0000000
 NQMom=    0.0000000   0.0000000   0.0000000   0.0000000   0.0000000   0.0000000   0.0000000   0.0000000   0.0000000   0.0000000
 NMagM=    2.7928460   2.7928460   2.7928460   2.7928460   2.7928460   2.7928460   2.7928460   2.7928460   2.7928460   2.7928460
 Leave Link  101 at Sat Sep 10 14:14:29 2022, MaxMem=  209715200 cpu:       0.7
 (Enter /opt/gaussian/l202.exe)
                          Input orientation:                          
 ---------------------------------------------------------------------
 Center     Atomic      Atomic             Coordinates (Angstroms)
 Number     Number       Type             X           Y           Z
 ---------------------------------------------------------------------
      1         17           0       -3.377240    5.241620   -0.283380
      2          6           0       -2.119710    4.121970    0.227600
      3          6           0       -1.689650    4.129480    1.554840
      4          6           0       -0.692070    3.228530    1.938250
      5          6           0       -0.134960    2.339560    1.016280
      6          6           0       -0.576080    2.335090   -0.315350
      7          6           0       -1.578190    3.235150   -0.705270
      8          6           0        0.041290    1.418380   -1.358820
      9          7           0        0.363430    0.053340   -0.896580
     10          6           0       -0.642770   -0.887820   -0.705600
     11          8           0       -0.458250   -2.002750   -0.251370
     12          6           0       -2.064420   -0.445760   -1.109790
     13          7           0       -3.019930   -1.510590   -0.949640
     14          7           0       -3.503030   -2.149140   -2.059780
     15          7           0       -4.334660   -3.065020   -1.701050
     16          6           0       -4.421420   -3.060270   -0.321750
     17          6           0       -5.189430   -3.849900    0.552050
     18          6           0       -5.069460   -3.599910    1.911950
     19          6           0       -4.203600   -2.589400    2.402860
     20          6           0       -3.434980   -1.802100    1.554680
     21          6           0       -3.564080   -2.057620    0.179680
     22          6           0        1.736390   -0.237190   -0.611040
     23          6           0        2.257200   -1.544310   -0.545770
     24          6           0        3.617060   -1.694510   -0.304390
     25          6           0        4.450190   -0.576370   -0.116090
     26          6           0        3.815200    0.671900   -0.201180
     27          7           0        2.511470    0.839010   -0.441250
     28          6           0        5.887690   -0.691780    0.151830
     29          6           0        6.574310   -1.774180    0.696800
     30          7           0        7.881180   -1.411890    0.752690
     31          7           0        8.115800   -0.172140    0.282910
     32          6           0        6.914460    0.270260   -0.080030
     33          1           0       -2.129140    4.825430    2.269710
     34          1           0       -0.342250    3.226410    2.972960
     35          1           0        0.656020    1.656350    1.325130
     36          1           0       -1.942140    3.251360   -1.734500
     37          1           0       -0.616190    1.356180   -2.237230
     38          1           0        0.991120    1.854750   -1.689330
     39          1           0       -2.375710    0.433120   -0.524520
     40          1           0       -2.094830   -0.170220   -2.173330
     41          1           0       -5.850220   -4.624700    0.160500
     42          1           0       -5.648420   -4.191110    2.624360
     43          1           0       -4.136250   -2.430310    3.481420
     44          1           0       -2.759190   -1.038520    1.941460
     45          1           0        1.613550   -2.406870   -0.679710
     46          1           0        4.039280   -2.701810   -0.281160
     47          1           0        4.386470    1.593190   -0.051920
     48          1           0        6.232110   -2.739790    1.059030
     49          1           0        6.821730    1.262060   -0.518120
     50          1           0        8.655640   -1.961510    1.102250
 ---------------------------------------------------------------------
                    Distance matrix (angstroms):
                    1          2          3          4          5
     1  Cl   0.000000
     2  C    1.759573   0.000000
     3  C    2.732008   1.395197   0.000000
     4  C    4.024712   2.400565   1.397813   0.000000
     5  C    4.541305   2.781768   2.431239   1.396663   0.000000
     6  C    4.036761   2.422917   2.820901   2.427015   1.402799
     7  C    2.727727   1.396403   2.433176   2.788091   2.418414
     8  C    5.240237   3.807368   4.340004   3.832118   2.553573
     9  N    6.425486   4.897297   5.180687   4.385450   3.022289
    10  C    6.725000   5.305677   5.601682   4.892516   3.693064
    11  O    7.810405   6.364123   6.510222   5.675861   4.535097
    12  C    5.895146   4.759814   5.307874   4.967323   4.000125
    13  N    6.794403   5.824262   6.312880   6.018147   5.197264
    14  N    7.602286   6.817074   7.468259   7.266710   6.399568
    15  N    8.480962   7.763924   8.328129   8.131527   7.364160
    16  C    8.367387   7.562025   7.916859   7.652755   7.022979
    17  C    9.307938   8.548635   8.770664   8.500116   8.004536
    18  C    9.265837   8.435964   8.443584   8.111093   7.773598
    19  C    8.320074   7.356415   7.223741   6.811389   6.539960
    20  C    7.279821   6.211737   6.183027   5.742640   5.322908
    21  C    7.316299   6.346324   6.609445   6.267726   5.638613
    22  C    7.501595   5.880060   5.957902   4.940396   3.576278
    23  C    8.824093   7.201540   7.223717   6.135841   4.821501
    24  C    9.850410   8.186879   8.095478   6.916239   5.665293
    25  C    9.754263   8.084312   7.914207   6.718662   5.550541
    26  C    8.521754   6.878226   6.733635   5.606157   4.457248
    27  N    7.354237   5.716031   5.697454   4.651290   3.373372
    28  C   11.010612   9.343253   9.090053   7.864691   6.797691
    29  C   12.215382  10.515261  10.192275   8.908905   7.876498
    30  N   13.118485  11.441902  11.088328   9.820370   8.854454
    31  N   12.716896  11.099915  10.782791   9.585577   8.655721
    32  C   11.431311   9.825810   9.570637   8.407385   7.428204
    33  H    2.872148   2.159898   1.090200   2.173735   3.424528
    34  H    4.886306   3.390928   2.154550   1.092247   2.158256
    35  H    5.631044   3.871502   3.416329   2.159864   1.089869
    36  H    2.850683   2.153910   3.413884   3.879728   3.415270
    37  H    5.151463   3.998194   4.819056   4.576689   3.432775
    38  H    5.703521   4.300252   4.783886   4.228444   2.970425
    39  H    4.917609   3.773438   4.296219   4.088300   3.321075
    40  H    5.874053   4.918128   5.705335   5.515825   4.507072
    41  H   10.181205   9.509229   9.792354   9.562433   9.049722
    42  H   10.128653   9.343637   9.276203   8.949146   8.696770
    43  H    8.579529   7.588554   7.261433   6.801928   6.696185
    44  H    6.691193   5.475117   5.291655   4.741383   4.376524
    45  H    9.141360   7.575368   7.656906   6.627770   5.335004
    46  H   10.867514   9.206300   9.102640   7.904454   6.672559
    47  H    8.581364   6.985931   6.777439   5.694443   4.705470
    48  H   12.563621  10.841030  10.496999   9.183580   8.145011
    49  H   10.950388   9.417247   9.217530   8.146039   7.204924
    50  H   14.092383  12.404915  12.013743  10.724509   9.786789
                    6          7          8          9         10
     6  C    0.000000
     7  C    1.402273   0.000000
     8  C    1.519978   2.520019   0.000000
     9  N    2.535131   3.732345   1.476744   0.000000
    10  C    3.247136   4.227753   2.492628   1.390933   0.000000
    11  O    4.339912   5.375489   3.630443   2.306287   1.217966
    12  C    3.252602   3.734857   2.823305   2.487773   1.542684
    13  N    4.600433   4.965922   4.256449   3.727709   2.469471
    14  N    5.631908   5.876248   5.077475   4.599290   3.406731
    15  N    6.723710   6.948514   6.274308   5.695910   4.400133
    16  C    6.625450   6.918335   6.406996   5.737577   4.375509
    17  C    7.764630   8.051077   7.665940   6.940322   5.570253
    18  C    7.770171   8.109060   7.874067   7.123929   5.813999
    19  C    6.693143   7.104832   6.944899   6.223194   5.023685
    20  C    5.365320   5.824855   5.562772   4.886640   3.706914
    21  C    5.335644   5.721915   5.239108   4.586919   3.268976
    22  C    3.471538   4.801298   2.484643   1.432117   2.468332
    23  C    4.809398   6.130163   3.787986   2.502382   2.977642
    24  C    5.815515   7.173066   4.856752   3.740558   4.354064
    25  C    5.812030   7.156548   4.996179   4.208005   5.136416
    26  C    4.697082   5.992747   4.017432   3.575040   4.749807
    27  N    3.433230   4.747264   2.698035   2.332097   3.605697
    28  C    7.152658   8.479078   6.396502   5.672020   6.589425
    29  C    8.308948   9.670700   7.556346   6.667362   7.405309
    30  N    9.311596  10.639563   8.598417   7.834766   8.663659
    31  N    9.066030  10.322769   8.391826   7.844825   8.843184
    32  C    7.773486   9.017017   7.084769   6.605286   7.670998
    33  H    3.911052   3.418047   5.430008   6.245890   6.610824
    34  H    3.414983   3.880335   4.709606   5.053682   5.527115
    35  H    2.161003   3.406879   2.763713   2.755221   3.504785
    36  H    2.172477   1.091804   2.726710   4.030520   4.458678
    37  H    2.157196   2.608232   1.098978   2.110543   2.717008
    38  H    2.138846   3.078186   1.096281   2.065799   3.340511
    39  H    2.626768   2.918918   2.740198   2.790260   2.186493
    40  H    3.469189   3.744150   2.783897   2.779049   2.185786
    41  H    8.745380   8.987605   8.575374   7.849263   6.467761
    42  H    8.772788   9.099590   8.927760   8.158107   6.859803
    43  H    7.056863   7.494630   7.462719   6.751483   5.666993
    44  H    4.608731   5.163739   4.977037   4.358599   3.392473
    45  H    5.235783   6.482303   4.191149   2.768116   2.720140
    46  H    6.831770   8.184335   5.841339   4.634810   5.039077
    47  H    5.024611   6.220938   4.540830   4.389697   5.645880
    48  H    8.602022   9.990668   7.839810   6.787296   7.335372
    49  H    7.477974   8.630572   6.834148   6.581328   7.770193
    50  H   10.280808  11.619108   9.575362   8.764456   9.533182
                   11         12         13         14         15
    11  O    0.000000
    12  C    2.396014   0.000000
    13  N    2.700372   1.439622   0.000000
    14  N    3.544356   2.423548   1.368774   0.000000
    15  N    4.272768   3.516262   2.170112   1.288073   0.000000
    16  C    4.102441   3.607231   2.181726   2.166644   1.382034
    17  C    5.142131   4.910761   3.526212   3.543753   2.534389
    18  C    5.337989   5.301871   4.093230   4.509221   3.725561
    19  C    4.627823   4.637887   3.715395   4.538698   4.133457
    20  C    3.487549   3.288996   2.555164   3.631720   3.606129
    21  C    3.136080   2.551432   1.367737   2.242161   2.268434
    22  C    2.839544   3.839064   4.935461   5.762458   6.785454
    23  C    2.769568   4.494589   5.292669   5.986509   6.862933
    24  C    4.087294   5.872586   6.670818   7.347364   8.188944
    25  C    5.113281   6.591255   7.574316   8.336981   9.267096
    26  C    5.041691   6.053484   7.214046   8.060344   9.090346
    27  N    4.114716   4.799620   6.031208   6.908176   7.981105
    28  C    6.492470   8.055325   9.012734   9.757087  10.656541
    29  C    7.099871   8.925028   9.738053  10.454287  11.243735
    30  N    8.420412  10.164507  11.033670  11.749628  12.569026
    31  N    8.783560  10.278685  11.283400  12.016403  12.935177
    32  C    7.717045   9.066056  10.130141  10.876443  11.844598
    33  H    7.468049   6.261841   7.162602   8.323262   9.104420
    34  H    6.144418   5.754959   6.707901   8.013460   8.795897
    35  H    4.137144   4.212896   5.358796   6.575490   7.507062
    36  H    5.657497   3.751521   4.945079   5.630949   6.754401
    37  H    3.905252   2.572057   3.956542   4.544513   5.801855
    38  H    4.364483   3.868402   5.287833   6.030402   7.250394
    39  H    3.112029   1.100851   2.091352   3.208729   4.178360
    40  H    3.119373   1.099074   2.037110   2.431470   3.690495
    41  H    6.009792   5.780092   4.352084   4.070300   2.862672
    42  H    6.324287   6.388785   5.183399   5.541977   4.658671
    43  H    5.257776   5.413883   4.661153   5.584346   5.224961
    44  H    3.321531   3.184995   2.940968   4.218613   4.456084
    45  H    2.153867   4.190273   4.727083   5.305696   6.071038
    46  H    4.551631   6.559843   7.190154   7.768872   8.501228
    47  H    6.036711   6.847656   8.080477   8.959952  10.023805
    48  H    6.857207   8.876867   9.547038  10.239570  10.926136
    49  H    7.982997   9.068097  10.233869  10.982426  12.024474
    50  H    9.213956  11.050353  11.863074  12.564509  13.335071
                   16         17         18         19         20
    16  C    0.000000
    17  C    1.406016   0.000000
    18  C    2.387589   1.387882   0.000000
    19  C    2.773565   2.446675   1.418392   0.000000
    20  C    2.465166   2.876951   2.455868   1.389254   0.000000
    21  C    1.411301   2.447997   2.765065   2.373669   1.404486
    22  C    6.780272   7.897559   7.999560   7.063991   5.820855
    23  C    6.852174   7.872309   7.996613   7.178340   6.072830
    24  C    8.153696   9.106781   9.165061   8.324227   7.293763
    25  C    9.215070  10.202190  10.192079   9.235014   8.152901
    26  C    9.043536  10.104325  10.082205   9.039815   7.859315
    27  N    7.955101   9.070633   9.094617   8.058233   6.805841
    28  C   10.588285  11.525471  11.472331  10.512004   9.492785
    29  C   11.117443  11.946344  11.848513  10.942512  10.046025
    30  N   12.458954  13.297556  13.185234  12.253632  11.351252
    31  N   12.879782  13.806792  13.720585  12.732044  11.734338
    32  C   11.817488  12.801539  12.749923  11.745367  10.680724
    33  H    8.611299   9.358263   8.930836   7.700702   6.792690
    34  H    8.186396   8.912358   8.370836   7.004190   6.071442
    35  H    7.123139   8.067573   7.794469   6.542461   5.361889
    36  H    6.926714   8.136406   8.367594   7.506426   6.211661
    37  H    6.136275   7.469798   7.849212   7.068773   5.683211
    38  H    7.437962   8.704368   8.913650   7.967534   6.594431
    39  H    4.053371   5.236438   5.427523   4.587631   3.231305
    40  H    4.146536   5.526689   6.107431   5.589352   4.284518
    41  H    2.172896   1.090995   2.174249   3.447025   3.967895
    42  H    3.385837   2.149783   1.091897   2.168419   3.427959
    43  H    3.865524   3.421350   2.168428   1.092308   2.144471
    44  H    3.460145   3.967415   3.449484   2.168972   1.090571
    45  H    6.080784   7.062585   7.266544   6.585954   5.553909
    46  H    8.468387   9.337100   9.411985   8.669583   7.748829
    47  H    9.965261  11.031313  10.965386   9.864548   8.676649
    48  H   10.747417  11.486555  11.366299  10.522953   9.725100
    49  H   12.046971  13.097533  13.074570  12.038429  10.903471
    50  H   13.200172  13.984087  13.846239  12.940088  12.100132
                   21         22         23         24         25
    21  C    0.000000
    22  C    5.659875   0.000000
    23  C    5.888724   1.408569   0.000000
    24  C    7.206590   2.398903   1.389260   0.000000
    25  C    8.155373   2.779340   2.435311   1.407053   0.000000
    26  C    7.877126   2.305619   2.730878   2.376932   1.403079
    27  N    6.759314   1.337080   2.399123   2.767631   2.422326
    28  C    9.549987   4.245223   3.793931   2.523760   1.466802
    29  C   10.155526   5.241970   4.498251   3.123148   2.570491
    30  N   11.477773   6.402978   5.773446   4.402273   3.636559
    31  N   11.831538   6.442069   6.073941   4.785519   3.709353
    32  C   10.737145   5.229903   5.019925   3.844932   2.605899
    33  H    7.335098   6.990791   8.230461   9.063908   8.840762
    34  H    6.789961   5.400215   6.472895   7.115660   6.853528
    35  H    5.737148   2.915724   4.038350   4.759344   4.632265
    36  H    5.871971   5.192661   6.484288   7.577041   7.624477
    37  H    5.117181   3.273829   4.419304   5.564439   5.822559
    38  H    6.288854   2.468674   3.803196   4.627188   4.511163
    39  H    2.848141   4.167273   5.037314   6.363062   6.912221
    40  H    3.355239   4.138053   4.845332   6.200168   6.872735
    41  H    3.437543   8.797850   8.701602   9.921266  11.070859
    42  H    3.856516   8.979795   8.919311  10.032931  11.070607
    43  H    3.371611   7.486381   7.607855   8.659537   9.492425
    44  H    2.188671   5.231408   5.621949   6.791961   7.511475
    45  H    5.260074   2.174239   1.084544   2.159253   3.422707
    46  H    7.644504   3.389170   2.141409   1.092457   2.171080
    47  H    8.751760   3.268919   3.823818   3.385957   2.171444
    48  H    9.859206   5.409588   4.450221   3.128899   3.039166
    49  H   10.925761   5.302553   5.358303   4.365421   3.027483
    50  H   12.254874   7.333803   6.620427   5.238054   4.592252
                   26         27         28         29         30
    26  C    0.000000
    27  N    1.336140   0.000000
    28  C    2.505884   3.754187   0.000000
    29  C    3.795045   4.962921   1.392849   0.000000
    30  N    4.667359   5.943554   2.203087   1.357309   0.000000
    31  N    4.409298   5.740675   2.291655   2.261422   1.346373
    32  C    3.127524   4.454243   1.426021   2.213346   2.111303
    33  H    7.661089   6.691495   9.959648  11.035350  11.891678
    34  H    5.821089   5.049775   7.881823   8.833210   9.698878
    35  H    3.644061   2.689022   5.853266   6.869461   7.870497
    36  H    6.492430   5.227482   8.967320  10.183182  11.154803
    37  H    4.924526   3.643524   7.225109   8.373230   9.423754
    38  H    3.404284   2.213797   5.818168   7.073525   8.006705
    39  H    6.203945   4.904713   8.366996   9.298745  10.499482
    40  H    6.287050   5.023609   8.330607   9.271695  10.470153
    41  H   11.027472  10.006602  12.379276  12.758606  14.114680
    42  H   11.008753  10.063989  12.306118  12.607623  13.938339
    43  H    9.295741   8.382600  10.704580  11.086059  12.365346
    44  H    7.123135   6.081306   8.836942   9.444818  10.713079
    45  H    3.815112   3.376220   4.679879   5.186927   6.505762
    46  H    3.382089   3.859694   2.764836   2.871111   4.182456
    47  H    1.094259   2.058152   2.741580   4.084900   4.678771
    48  H    4.366831   5.376041   2.266270   1.086607   2.139298
    49  H    3.080254   4.331653   2.266882   3.279634   3.144424
    50  H    5.662476   6.926480   3.190150   2.128712   1.011960
                   31         32         33         34         35
    31  N    0.000000
    32  C    1.330662   0.000000
    33  H   11.570734  10.395073   0.000000
    34  H    9.503953   8.409483   2.498880   0.000000
    35  H    7.750995   6.562301   4.323473   2.485352   0.000000
    36  H   10.814456   9.490184   4.306549   4.971966   4.319239
    37  H    9.215992   7.908440   5.885340   5.542462   3.794605
    38  H    7.665447   6.339275   5.851065   5.039472   3.039510
    39  H   10.539927   9.302223   5.211613   4.916279   3.756179
    40  H   10.501909   9.259764   6.685679   6.410377   4.810692
    41  H   14.659126  13.673169  10.373050   9.994378   9.118065
    42  H   14.528877  13.603070   9.685510   9.126695   8.696364
    43  H   12.862446  11.920369   7.625123   6.830187   6.657044
    44  H   11.034800   9.968893   5.906828   5.009513   4.393842
    45  H    6.942616   5.968776   8.661003   6.992925   4.630983
    46  H    4.830675   4.140086  10.060601   8.057971   5.746318
    47  H    4.139614   2.853361   7.634823   5.846204   3.976998
    48  H    3.277724   3.289903  11.340582   9.081898   7.105606
    49  H    2.091219   1.088204  10.029341   8.207857   6.447404
    50  H    2.040733   3.067620  12.795976  10.553487   8.782511
                   36         37         38         39         40
    36  H    0.000000
    37  H    2.366979   0.000000
    38  H    3.249088   1.769806   0.000000
    39  H    3.097501   2.623228   3.835800   0.000000
    40  H    3.452984   2.126113   3.722613   1.778057   0.000000
    41  H    8.994245   8.301512   9.602556   6.174384   6.276313
    42  H    9.387573   8.929212   9.962120   6.481480   7.198152
    43  H    8.018810   7.709169   8.449161   5.229368   6.422741
    44  H    5.708180   5.271479   5.968121   2.897212   4.257560
    45  H    6.765433   4.643076   4.423591   4.899370   4.581003
    46  H    8.563283   6.478186   5.660076   7.144166   6.900475
    47  H    6.755139   5.464280   3.778614   6.877223   7.043951
    48  H   10.512661   8.633743   7.492080   9.309648   9.294556
    49  H    9.068755   7.634583   5.976540   9.234722   9.181296
    50  H   12.146362  10.398366   9.005644  11.404881  11.380279
                   41         42         43         44         45
    41  H    0.000000
    42  H    2.509847   0.000000
    43  H    4.333769   2.474192   0.000000
    44  H    5.058357   4.330453   2.490954   0.000000
    45  H    7.831512   8.175365   7.097588   5.278614   0.000000
    46  H   10.084383  10.223091   9.003889   7.343417   2.475883
    47  H   11.979028  11.887793  10.065277   7.871462   4.907513
    48  H   12.261441  12.070774  10.652072   9.193284   4.946226
    49  H   13.989024  13.968425  12.235491  10.155601   6.372778
    50  H   14.778344  14.556582  13.019703  11.482793   7.277689
                   46         47         48         49         50
    46  H    0.000000
    47  H    4.315103   0.000000
    48  H    2.570225   4.838937   0.000000
    49  H    4.848757   2.501496   4.341642   0.000000
    50  H    4.875720   5.673959   2.545798   4.047249   0.000000
 Stoichiometry    C23H18ClN7O
 Framework group  C1[X(C23H18ClN7O)]
 Deg. of freedom   144
 Full point group                 C1      NOp   1
 Largest Abelian subgroup         C1      NOp   1
 Largest concise Abelian subgroup C1      NOp   1
                         Standard orientation:                         
 ---------------------------------------------------------------------
 Center     Atomic      Atomic             Coordinates (Angstroms)
 Number     Number       Type             X           Y           Z
 ---------------------------------------------------------------------
      1         17           0       -3.377242    5.241621   -0.283381
      2          6           0       -2.119711    4.121971    0.227599
      3          6           0       -1.689651    4.129481    1.554839
      4          6           0       -0.692071    3.228531    1.938249
      5          6           0       -0.134961    2.339561    1.016279
      6          6           0       -0.576081    2.335091   -0.315351
      7          6           0       -1.578191    3.235151   -0.705271
      8          6           0        0.041289    1.418381   -1.358821
      9          7           0        0.363429    0.053341   -0.896581
     10          6           0       -0.642770   -0.887819   -0.705601
     11          8           0       -0.458250   -2.002749   -0.251371
     12          6           0       -2.064421   -0.445759   -1.109791
     13          7           0       -3.019930   -1.510589   -0.949641
     14          7           0       -3.503030   -2.149140   -2.059781
     15          7           0       -4.334660   -3.065020   -1.701051
     16          6           0       -4.421420   -3.060270   -0.321751
     17          6           0       -5.189430   -3.849900    0.552049
     18          6           0       -5.069460   -3.599910    1.911949
     19          6           0       -4.203600   -2.589400    2.402859
     20          6           0       -3.434980   -1.802099    1.554679
     21          6           0       -3.564080   -2.057620    0.179679
     22          6           0        1.736389   -0.237189   -0.611041
     23          6           0        2.257200   -1.544308   -0.545771
     24          6           0        3.617060   -1.694508   -0.304391
     25          6           0        4.450189   -0.576368   -0.116091
     26          6           0        3.815199    0.671902   -0.201181
     27          7           0        2.511469    0.839012   -0.441251
     28          6           0        5.887690   -0.691778    0.151829
     29          6           0        6.574310   -1.774178    0.696799
     30          7           0        7.881180   -1.411887    0.752689
     31          7           0        8.115799   -0.172137    0.282909
     32          6           0        6.914459    0.270262   -0.080031
     33          1           0       -2.129141    4.825431    2.269709
     34          1           0       -0.342251    3.226411    2.972959
     35          1           0        0.656019    1.656351    1.325129
     36          1           0       -1.942141    3.251361   -1.734501
     37          1           0       -0.616191    1.356181   -2.237231
     38          1           0        0.991119    1.854751   -1.689331
     39          1           0       -2.375711    0.433121   -0.524521
     40          1           0       -2.094831   -0.170219   -2.173331
     41          1           0       -5.850220   -4.624700    0.160499
     42          1           0       -5.648420   -4.191110    2.624359
     43          1           0       -4.136250   -2.430310    3.481419
     44          1           0       -2.759190   -1.038519    1.941459
     45          1           0        1.613550   -2.406869   -0.679711
     46          1           0        4.039280   -2.701808   -0.281161
     47          1           0        4.386469    1.593192   -0.051921
     48          1           0        6.232110   -2.739788    1.059029
     49          1           0        6.821729    1.262062   -0.518121
     50          1           0        8.655640   -1.961507    1.102249
 ---------------------------------------------------------------------
 Rotational constants (GHZ):      0.1453647      0.0684020      0.0512064
 Leave Link  202 at Sat Sep 10 14:14:29 2022, MaxMem=  209715200 cpu:       0.0
 (Enter /opt/gaussian/l301.exe)
 Standard basis: CC-pVDZ (5D, 7F)
 Ernie: Thresh=  0.10000D-02 Tol=  0.10000D-05 Strict=F.
 Ernie:  72 primitive shells out of 822 were deleted.
 There are   542 symmetry adapted basis functions of A   symmetry.
 Integral buffers will be    131072 words long.
 Raffenetti 2 integral format.
 Two-electron integral symmetry is turned on.
   542 basis functions,  1220 primitive gaussians,   574 cartesian basis functions
   115 alpha electrons      115 beta electrons
       nuclear repulsion energy      3043.4108297240 Hartrees.
 IExCor=  402 DFT=T Ex+Corr=B3LYP ExCW=0 ScaHFX=  0.200000
 ScaDFX=  0.800000  0.720000  1.000000  0.810000 ScalE2=  1.000000  1.000000
 IRadAn=      0 IRanWt=     -1 IRanGd=            0 ICorTp=0
 NAtoms=   50 NActive=   50 NUniq=   50 SFac= 1.00D+00 NAtFMM=   60 NAOKFM=F Big=F
 Leave Link  301 at Sat Sep 10 14:14:29 2022, MaxMem=  209715200 cpu:       0.3
 (Enter /opt/gaussian/l302.exe)
 NPDir=0 NMtPBC=     1 NCelOv=     1 NCel=       1 NClECP=     1 NCelD=      1
         NCelK=      1 NCelE2=     1 NClLst=     1 CellRange=     0.0.
 One-electron integrals computed using PRISM.
 NBasis=   542 RedAO= T  NBF=   542
 NBsUse=   542 1.00D-06 NBFU=   542
 Precomputing XC quadrature grid using
 IXCGrd= 2 IRadAn=           0 IRanWt=          -1 IRanGd=           0 AccXCQ= 0.00D+00.
 NRdTot=    3222 NPtTot=      411698 NUsed=      434915 NTot=      434947
 NSgBfM=   547   547   547   547   548 NAtAll=    50    50.
 Leave Link  302 at Sat Sep 10 14:14:30 2022, MaxMem=  209715200 cpu:       8.4
 (Enter /opt/gaussian/l303.exe)
 DipDrv:  MaxL=1.
 Leave Link  303 at Sat Sep 10 14:14:30 2022, MaxMem=  209715200 cpu:       1.2
 (Enter /opt/gaussian/l401.exe)
 Harris functional with IExCor=  402 diagonalized for initial guess.
 ExpMin= 1.22D-01 ExpMax= 1.28D+05 ExpMxC= 1.24D+03 IAcc=2 IRadAn=         4 AccDes= 0.00D+00
 HarFok:  IExCor=  402 AccDes= 0.00D+00 IRadAn=         4 IDoV= 1
 ScaDFX=  1.000000  1.000000  1.000000  1.000000
 FoFCou: FMM=F IPFlag=           0 FMFlag=      100000 FMFlg1=           0
         NFxFlg=           0 DoJE=T BraDBF=F KetDBF=T FulRan=T
         Omega=  0.000000  0.000000  1.000000  0.000000  0.000000 ICntrl=     500 IOpCl=  0
         NMat0=    1 NMatS0=    1 NMatT0=    0 NMatD0=    1 NMtDS0=    0 NMtDT0=    0
         I1Cent=           4 NGrid=           0.
 Petite list used in FoFCou.
 Harris En= -1805.72093852813    
 Initial guess orbital symmetries:
       Occupied  (A) (A) (A) (A) (A) (A) (A) (A) (A) (A) (A) (A)
                 (A) (A) (A) (A) (A) (A) (A) (A) (A) (A) (A) (A)
                 (A) (A) (A) (A) (A) (A) (A) (A) (A) (A) (A) (A)
                 (A) (A) (A) (A) (A) (A) (A) (A) (A) (A) (A) (A)
                 (A) (A) (A) (A) (A) (A) (A) (A) (A) (A) (A) (A)
                 (A) (A) (A) (A) (A) (A) (A) (A) (A) (A) (A) (A)
                 (A) (A) (A) (A) (A) (A) (A) (A) (A) (A) (A) (A)
                 (A) (A) (A) (A) (A) (A) (A) (A) (A) (A) (A) (A)
                 (A) (A) (A) (A) (A) (A) (A) (A) (A) (A) (A) (A)
                 (A) (A) (A) (A) (A) (A) (A)
       Virtual   (A) (A) (A) (A) (A) (A) (A) (A) (A) (A) (A) (A)
                 (A) (A) (A) (A) (A) (A) (A) (A) (A) (A) (A) (A)
                 (A) (A) (A) (A) (A) (A) (A) (A) (A) (A) (A) (A)
                 (A) (A) (A) (A) (A) (A) (A) (A) (A) (A) (A) (A)
                 (A) (A) (A) (A) (A) (A) (A) (A) (A) (A) (A) (A)
                 (A) (A) (A) (A) (A) (A) (A) (A) (A) (A) (A) (A)
                 (A) (A) (A) (A) (A) (A) (A) (A) (A) (A) (A) (A)
                 (A) (A) (A) (A) (A) (A) (A) (A) (A) (A) (A) (A)
                 (A) (A) (A) (A) (A) (A) (A) (A) (A) (A) (A) (A)
                 (A) (A) (A) (A) (A) (A) (A) (A) (A) (A) (A) (A)
                 (A) (A) (A) (A) (A) (A) (A) (A) (A) (A) (A) (A)
                 (A) (A) (A) (A) (A) (A) (A) (A) (A) (A) (A) (A)
                 (A) (A) (A) (A) (A) (A) (A) (A) (A) (A) (A) (A)
                 (A) (A) (A) (A) (A) (A) (A) (A) (A) (A) (A) (A)
                 (A) (A) (A) (A) (A) (A) (A) (A) (A) (A) (A) (A)
                 (A) (A) (A) (A) (A) (A) (A) (A) (A) (A) (A) (A)
                 (A) (A) (A) (A) (A) (A) (A) (A) (A) (A) (A) (A)
                 (A) (A) (A) (A) (A) (A) (A) (A) (A) (A) (A) (A)
                 (A) (A) (A) (A) (A) (A) (A) (A) (A) (A) (A) (A)
                 (A) (A) (A) (A) (A) (A) (A) (A) (A) (A) (A) (A)
                 (A) (A) (A) (A) (A) (A) (A) (A) (A) (A) (A) (A)
                 (A) (A) (A) (A) (A) (A) (A) (A) (A) (A) (A) (A)
                 (A) (A) (A) (A) (A) (A) (A) (A) (A) (A) (A) (A)
                 (A) (A) (A) (A) (A) (A) (A) (A) (A) (A) (A) (A)
                 (A) (A) (A) (A) (A) (A) (A) (A) (A) (A) (A) (A)
                 (A) (A) (A) (A) (A) (A) (A) (A) (A) (A) (A) (A)
                 (A) (A) (A) (A) (A) (A) (A) (A) (A) (A) (A) (A)
                 (A) (A) (A) (A) (A) (A) (A) (A) (A) (A) (A) (A)
                 (A) (A) (A) (A) (A) (A) (A) (A) (A) (A) (A) (A)
                 (A) (A) (A) (A) (A) (A) (A) (A) (A) (A) (A) (A)
                 (A) (A) (A) (A) (A) (A) (A) (A) (A) (A) (A) (A)
                 (A) (A) (A) (A) (A) (A) (A) (A) (A) (A) (A) (A)
                 (A) (A) (A) (A) (A) (A) (A) (A) (A) (A) (A) (A)
                 (A) (A) (A) (A) (A) (A) (A) (A) (A) (A) (A) (A)
                 (A) (A) (A) (A) (A) (A) (A) (A) (A) (A) (A) (A)
                 (A) (A) (A) (A) (A) (A) (A)
 The electronic state of the initial guess is 1-A.
 Leave Link  401 at Sat Sep 10 14:14:34 2022, MaxMem=  209715200 cpu:      24.9
 (Enter /opt/gaussian/l502.exe)
 Closed shell SCF:
 Requested convergence on RMS density matrix=1.00D-08 within 128 cycles.
 Requested convergence on MAX density matrix=1.00D-06.
 Requested convergence on             energy=1.00D-06.
 No special actions if energy rises.
 Using DIIS extrapolation, IDIIS=  1040.
 Integral symmetry usage will be decided dynamically.
       434452 words used for storage of precomputed grid.
 IEnd=     1449952 IEndB=     1449952 NGot=   209715200 MDV=   208611939
 LenX=   208611939 LenY=   208281889
 Fock matrices will be formed incrementally for  20 cycles.
 Integral accuracy reduced to 1.0D-05 until final iterations.

 Cycle   1  Pass 0  IDiag  1:
 FoFCou: FMM=F IPFlag=           0 FMFlag=      100000 FMFlg1=           0
         NFxFlg=           0 DoJE=F BraDBF=F KetDBF=F FulRan=T
         Omega=  0.000000  0.000000  1.000000  0.000000  0.000000 ICntrl=       0 IOpCl=  0
         NMat0=    1 NMatS0=    1 NMatT0=    0 NMatD0=    1 NMtDS0=    0 NMtDT0=    0
         I1Cent=           0 NGrid=           0.
 Symmetry not used in FoFCou.
 E= -1805.47156581593    
 DIIS: error= 1.53D-02 at cycle   1 NSaved=   1.
 NSaved= 1 IEnMin= 1 EnMin= -1805.47156581593     IErMin= 1 ErrMin= 1.53D-02
 ErrMax= 1.53D-02 EMaxC= 1.00D-01 BMatC= 5.24D-01 BMatP= 5.24D-01
 IDIUse=3 WtCom= 8.47D-01 WtEn= 1.53D-01
 Coeff-Com:  0.100D+01
 Coeff-En:   0.100D+01
 Coeff:      0.100D+01
 Gap=     0.330 Goal=   None    Shift=    0.000
 GapD=    0.330 DampG=1.000 DampE=0.500 DampFc=0.5000 IDamp=-1.
 Damping current iteration by 5.00D-01
 RMSDP=3.84D-03 MaxDP=2.10D-01              OVMax= 2.93D-01

 Cycle   2  Pass 0  IDiag  1:
 RMSU=  1.34D-03    CP:  9.80D-01
 E= -1805.60519093798     Delta-E=       -0.133625122051 Rises=F Damp=T
 DIIS: error= 9.86D-03 at cycle   2 NSaved=   2.
 NSaved= 2 IEnMin= 2 EnMin= -1805.60519093798     IErMin= 2 ErrMin= 9.86D-03
 ErrMax= 9.86D-03 EMaxC= 1.00D-01 BMatC= 1.12D-01 BMatP= 5.24D-01
 IDIUse=3 WtCom= 9.01D-01 WtEn= 9.86D-02
 Coeff-Com:  0.248D+00 0.752D+00
 Coeff-En:   0.370D+00 0.630D+00
 Coeff:      0.260D+00 0.740D+00
 Gap=     0.221 Goal=   None    Shift=    0.000
 RMSDP=1.34D-03 MaxDP=6.97D-02 DE=-1.34D-01 OVMax= 3.30D-01

 Cycle   3  Pass 0  IDiag  1:
 RMSU=  9.08D-04    CP:  9.68D-01  8.28D-01
 E= -1805.94639122569     Delta-E=       -0.341200287704 Rises=F Damp=F
 DIIS: error= 1.10D-02 at cycle   3 NSaved=   3.
 NSaved= 3 IEnMin= 3 EnMin= -1805.94639122569     IErMin= 2 ErrMin= 9.86D-03
 ErrMax= 1.10D-02 EMaxC= 1.00D-01 BMatC= 9.80D-02 BMatP= 1.12D-01
 IDIUse=3 WtCom= 8.90D-01 WtEn= 1.10D-01
 Coeff-Com:  0.666D-01 0.472D+00 0.462D+00
 Coeff-En:   0.000D+00 0.000D+00 0.100D+01
 Coeff:      0.593D-01 0.420D+00 0.521D+00
 Gap=     0.183 Goal=   None    Shift=    0.000
 RMSDP=8.02D-04 MaxDP=5.91D-02 DE=-3.41D-01 OVMax= 8.15D-02

 Cycle   4  Pass 0  IDiag  1:
 RMSU=  3.90D-04    CP:  9.71D-01  9.08D-01  5.64D-01
 E= -1806.02066973206     Delta-E=       -0.074278506371 Rises=F Damp=F
 DIIS: error= 4.27D-03 at cycle   4 NSaved=   4.
 NSaved= 4 IEnMin= 4 EnMin= -1806.02066973206     IErMin= 4 ErrMin= 4.27D-03
 ErrMax= 4.27D-03 EMaxC= 1.00D-01 BMatC= 2.05D-02 BMatP= 9.80D-02
 IDIUse=3 WtCom= 9.57D-01 WtEn= 4.27D-02
 Coeff-Com:  0.158D-01 0.128D+00 0.328D+00 0.528D+00
 Coeff-En:   0.000D+00 0.000D+00 0.203D+00 0.797D+00
 Coeff:      0.152D-01 0.122D+00 0.323D+00 0.540D+00
 Gap=     0.179 Goal=   None    Shift=    0.000
 RMSDP=3.13D-04 MaxDP=1.93D-02 DE=-7.43D-02 OVMax= 3.18D-02

 Cycle   5  Pass 0  IDiag  1:
 RMSU=  1.24D-04    CP:  9.70D-01  8.78D-01  6.74D-01  6.19D-01
 E= -1806.03778354334     Delta-E=       -0.017113811278 Rises=F Damp=F
 DIIS: error= 1.15D-03 at cycle   5 NSaved=   5.
 NSaved= 5 IEnMin= 5 EnMin= -1806.03778354334     IErMin= 5 ErrMin= 1.15D-03
 ErrMax= 1.15D-03 EMaxC= 1.00D-01 BMatC= 1.64D-03 BMatP= 2.05D-02
 IDIUse=3 WtCom= 9.88D-01 WtEn= 1.15D-02
 Coeff-Com:  0.297D-02 0.253D-01 0.146D+00 0.331D+00 0.495D+00
 Coeff-En:   0.000D+00 0.000D+00 0.000D+00 0.282D-01 0.972D+00
 Coeff:      0.293D-02 0.250D-01 0.144D+00 0.328D+00 0.500D+00
 Gap=     0.178 Goal=   None    Shift=    0.000
 RMSDP=1.05D-04 MaxDP=5.03D-03 DE=-1.71D-02 OVMax= 1.41D-02

 Cycle   6  Pass 0  IDiag  1:
 RMSU=  4.08D-05    CP:  9.70D-01  8.81D-01  6.77D-01  6.77D-01  5.33D-01
 E= -1806.03932004644     Delta-E=       -0.001536503100 Rises=F Damp=F
 DIIS: error= 4.71D-04 at cycle   6 NSaved=   6.
 NSaved= 6 IEnMin= 6 EnMin= -1806.03932004644     IErMin= 6 ErrMin= 4.71D-04
 ErrMax= 4.71D-04 EMaxC= 1.00D-01 BMatC= 1.90D-04 BMatP= 1.64D-03
 IDIUse=3 WtCom= 9.95D-01 WtEn= 4.71D-03
 Coeff-Com:  0.127D-03-0.161D-02 0.448D-01 0.127D+00 0.305D+00 0.525D+00
 Coeff-En:   0.000D+00 0.000D+00 0.000D+00 0.000D+00 0.916D-01 0.908D+00
 Coeff:      0.126D-03-0.160D-02 0.446D-01 0.127D+00 0.304D+00 0.526D+00
 Gap=     0.178 Goal=   None    Shift=    0.000
 RMSDP=3.39D-05 MaxDP=1.44D-03 DE=-1.54D-03 OVMax= 4.03D-03

 Cycle   7  Pass 0  IDiag  1:
 RMSU=  1.39D-05    CP:  9.70D-01  8.81D-01  6.79D-01  6.75D-01  6.04D-01
                    CP:  5.76D-01
 E= -1806.03951303135     Delta-E=       -0.000192984916 Rises=F Damp=F
 DIIS: error= 8.41D-05 at cycle   7 NSaved=   7.
 NSaved= 7 IEnMin= 7 EnMin= -1806.03951303135     IErMin= 7 ErrMin= 8.41D-05
 ErrMax= 8.41D-05 EMaxC= 1.00D-01 BMatC= 1.66D-05 BMatP= 1.90D-04
 IDIUse=1 WtCom= 1.00D+00 WtEn= 0.00D+00
 Coeff-Com: -0.305D-04-0.335D-02 0.116D-01 0.396D-01 0.123D+00 0.302D+00
 Coeff-Com:  0.526D+00
 Coeff:     -0.305D-04-0.335D-02 0.116D-01 0.396D-01 0.123D+00 0.302D+00
 Coeff:      0.526D+00
 Gap=     0.178 Goal=   None    Shift=    0.000
 RMSDP=9.09D-06 MaxDP=4.80D-04 DE=-1.93D-04 OVMax= 1.14D-03

 Initial convergence to 1.0D-05 achieved.  Increase integral accuracy.
 Cycle   8  Pass 1  IDiag  1:
 E= -1806.03958989052     Delta-E=       -0.000076859173 Rises=F Damp=F
 DIIS: error= 2.03D-04 at cycle   1 NSaved=   1.
 NSaved= 1 IEnMin= 1 EnMin= -1806.03958989052     IErMin= 1 ErrMin= 2.03D-04
 ErrMax= 2.03D-04 EMaxC= 1.00D-01 BMatC= 1.16D-05 BMatP= 1.16D-05
 IDIUse=3 WtCom= 9.98D-01 WtEn= 2.03D-03
 Coeff-Com:  0.100D+01
 Coeff-En:   0.100D+01
 Coeff:      0.100D+01
 Gap=     0.178 Goal=   None    Shift=    0.000
 RMSDP=9.09D-06 MaxDP=4.80D-04 DE=-7.69D-05 OVMax= 8.49D-04

 Cycle   9  Pass 1  IDiag  1:
 RMSU=  8.40D-05    CP:  1.00D+00
 E= -1806.03959734579     Delta-E=       -0.000007455261 Rises=F Damp=F
 DIIS: error= 5.04D-05 at cycle   2 NSaved=   2.
 NSaved= 2 IEnMin= 2 EnMin= -1806.03959734579     IErMin= 2 ErrMin= 5.04D-05
 ErrMax= 5.04D-05 EMaxC= 1.00D-01 BMatC= 4.07D-06 BMatP= 1.16D-05
 IDIUse=1 WtCom= 1.00D+00 WtEn= 0.00D+00
 Coeff-Com:  0.308D+00 0.692D+00
 Coeff:      0.308D+00 0.692D+00
 Gap=     0.178 Goal=   None    Shift=    0.000
 RMSDP=7.87D-06 MaxDP=4.63D-04 DE=-7.46D-06 OVMax= 1.17D-03

 Cycle  10  Pass 1  IDiag  1:
 RMSU=  5.53D-06    CP:  1.00D+00  1.01D+00
 E= -1806.03959615863     Delta-E=        0.000001187154 Rises=F Damp=F
 DIIS: error= 6.10D-05 at cycle   3 NSaved=   3.
 NSaved= 3 IEnMin= 2 EnMin= -1806.03959734579     IErMin= 2 ErrMin= 5.04D-05
 ErrMax= 6.10D-05 EMaxC= 1.00D-01 BMatC= 5.20D-06 BMatP= 4.07D-06
 IDIUse=1 WtCom= 1.00D+00 WtEn= 0.00D+00
 Coeff-Com:  0.424D-02 0.530D+00 0.466D+00
 Coeff:      0.424D-02 0.530D+00 0.466D+00
 Gap=     0.178 Goal=   None    Shift=    0.000
 RMSDP=4.47D-06 MaxDP=2.52D-04 DE= 1.19D-06 OVMax= 6.84D-04

 Cycle  11  Pass 1  IDiag  1:
 RMSU=  9.07D-07    CP:  1.00D+00  1.01D+00  4.57D-01
 E= -1806.03960138509     Delta-E=       -0.000005226461 Rises=F Damp=F
 DIIS: error= 1.43D-05 at cycle   4 NSaved=   4.
 NSaved= 4 IEnMin= 4 EnMin= -1806.03960138509     IErMin= 4 ErrMin= 1.43D-05
 ErrMax= 1.43D-05 EMaxC= 1.00D-01 BMatC= 1.78D-07 BMatP= 4.07D-06
 IDIUse=1 WtCom= 1.00D+00 WtEn= 0.00D+00
 Coeff-Com: -0.376D-02 0.343D+00 0.314D+00 0.346D+00
 Coeff:     -0.376D-02 0.343D+00 0.314D+00 0.346D+00
 Gap=     0.178 Goal=   None    Shift=    0.000
 RMSDP=8.42D-07 MaxDP=6.20D-05 DE=-5.23D-06 OVMax= 1.00D-04

 Cycle  12  Pass 1  IDiag  1:
 RMSU=  2.10D-07    CP:  1.00D+00  1.01D+00  4.77D-01  4.00D-01
 E= -1806.03960154954     Delta-E=       -0.000000164450 Rises=F Damp=F
 DIIS: error= 1.63D-06 at cycle   5 NSaved=   5.
 NSaved= 5 IEnMin= 5 EnMin= -1806.03960154954     IErMin= 5 ErrMin= 1.63D-06
 ErrMax= 1.63D-06 EMaxC= 1.00D-01 BMatC= 3.26D-09 BMatP= 1.78D-07
 IDIUse=1 WtCom= 1.00D+00 WtEn= 0.00D+00
 Coeff-Com: -0.240D-02 0.186D+00 0.171D+00 0.207D+00 0.439D+00
 Coeff:     -0.240D-02 0.186D+00 0.171D+00 0.207D+00 0.439D+00
 Gap=     0.178 Goal=   None    Shift=    0.000
 RMSDP=1.26D-07 MaxDP=6.91D-06 DE=-1.64D-07 OVMax= 1.30D-05

 Cycle  13  Pass 1  IDiag  1:
 RMSU=  7.32D-08    CP:  1.00D+00  1.01D+00  4.77D-01  4.13D-01  7.68D-01
 E= -1806.03960155243     Delta-E=       -0.000000002889 Rises=F Damp=F
 DIIS: error= 5.52D-07 at cycle   6 NSaved=   6.
 NSaved= 6 IEnMin= 6 EnMin= -1806.03960155243     IErMin= 6 ErrMin= 5.52D-07
 ErrMax= 5.52D-07 EMaxC= 1.00D-01 BMatC= 2.57D-10 BMatP= 3.26D-09
 IDIUse=1 WtCom= 1.00D+00 WtEn= 0.00D+00
 Coeff-Com: -0.948D-03 0.680D-01 0.623D-01 0.790D-01 0.255D+00 0.537D+00
 Coeff:     -0.948D-03 0.680D-01 0.623D-01 0.790D-01 0.255D+00 0.537D+00
 Gap=     0.178 Goal=   None    Shift=    0.000
 RMSDP=3.44D-08 MaxDP=2.22D-06 DE=-2.89D-09 OVMax= 4.06D-06

 Cycle  14  Pass 1  IDiag  1:
 RMSU=  1.96D-08    CP:  1.00D+00  1.01D+00  4.76D-01  4.16D-01  7.95D-01
                    CP:  8.25D-01
 E= -1806.03960155259     Delta-E=       -0.000000000160 Rises=F Damp=F
 DIIS: error= 1.67D-07 at cycle   7 NSaved=   7.
 NSaved= 7 IEnMin= 7 EnMin= -1806.03960155259     IErMin= 7 ErrMin= 1.67D-07
 ErrMax= 1.67D-07 EMaxC= 1.00D-01 BMatC= 2.74D-11 BMatP= 2.57D-10
 IDIUse=1 WtCom= 1.00D+00 WtEn= 0.00D+00
 Coeff-Com: -0.201D-03 0.124D-01 0.113D-01 0.158D-01 0.809D-01 0.297D+00
 Coeff-Com:  0.583D+00
 Coeff:     -0.201D-03 0.124D-01 0.113D-01 0.158D-01 0.809D-01 0.297D+00
 Coeff:      0.583D+00
 Gap=     0.178 Goal=   None    Shift=    0.000
 RMSDP=1.31D-08 MaxDP=7.65D-07 DE=-1.60D-10 OVMax= 1.60D-06

 Cycle  15  Pass 1  IDiag  1:
 RMSU=  6.58D-09    CP:  1.00D+00  1.01D+00  4.77D-01  4.15D-01  8.07D-01
                    CP:  8.52D-01  7.19D-01
 E= -1806.03960155267     Delta-E=       -0.000000000075 Rises=F Damp=F
 DIIS: error= 4.47D-08 at cycle   8 NSaved=   8.
 NSaved= 8 IEnMin= 8 EnMin= -1806.03960155267     IErMin= 8 ErrMin= 4.47D-08
 ErrMax= 4.47D-08 EMaxC= 1.00D-01 BMatC= 4.95D-12 BMatP= 2.74D-11
 IDIUse=1 WtCom= 1.00D+00 WtEn= 0.00D+00
 Coeff-Com:  0.185D-04-0.252D-02-0.235D-02-0.203D-02 0.109D-01 0.103D+00
 Coeff-Com:  0.352D+00 0.541D+00
 Coeff:      0.185D-04-0.252D-02-0.235D-02-0.203D-02 0.109D-01 0.103D+00
 Coeff:      0.352D+00 0.541D+00
 Gap=     0.178 Goal=   None    Shift=    0.000
 RMSDP=5.29D-09 MaxDP=3.00D-07 DE=-7.46D-11 OVMax= 7.84D-07

 SCF Done:  E(RB3LYP) =  -1806.03960155     A.U. after   15 cycles
             Convg  =    0.5292D-08             -V/T =  2.0055
 KE= 1.796242458145D+03 PE=-1.030916259682D+04 EE= 3.663469707397D+03
 Leave Link  502 at Sat Sep 10 14:27:12 2022, MaxMem=  209715200 cpu:    5551.4
 (Enter /opt/gaussian/l601.exe)
 Copying SCF densities to generalized density rwf, IOpCl= 0 IROHF=0.

 **********************************************************************

            Population analysis using the SCF density.

 **********************************************************************

 Orbital symmetries:
       Occupied  (A) (A) (A) (A) (A) (A) (A) (A) (A) (A) (A) (A)
                 (A) (A) (A) (A) (A) (A) (A) (A) (A) (A) (A) (A)
                 (A) (A) (A) (A) (A) (A) (A) (A) (A) (A) (A) (A)
                 (A) (A) (A) (A) (A) (A) (A) (A) (A) (A) (A) (A)
                 (A) (A) (A) (A) (A) (A) (A) (A) (A) (A) (A) (A)
                 (A) (A) (A) (A) (A) (A) (A) (A) (A) (A) (A) (A)
                 (A) (A) (A) (A) (A) (A) (A) (A) (A) (A) (A) (A)
                 (A) (A) (A) (A) (A) (A) (A) (A) (A) (A) (A) (A)
                 (A) (A) (A) (A) (A) (A) (A) (A) (A) (A) (A) (A)
                 (A) (A) (A) (A) (A) (A) (A)
       Virtual   (A) (A) (A) (A) (A) (A) (A) (A) (A) (A) (A) (A)
                 (A) (A) (A) (A) (A) (A) (A) (A) (A) (A) (A) (A)
                 (A) (A) (A) (A) (A) (A) (A) (A) (A) (A) (A) (A)
                 (A) (A) (A) (A) (A) (A) (A) (A) (A) (A) (A) (A)
                 (A) (A) (A) (A) (A) (A) (A) (A) (A) (A) (A) (A)
                 (A) (A) (A) (A) (A) (A) (A) (A) (A) (A) (A) (A)
                 (A) (A) (A) (A) (A) (A) (A) (A) (A) (A) (A) (A)
                 (A) (A) (A) (A) (A) (A) (A) (A) (A) (A) (A) (A)
                 (A) (A) (A) (A) (A) (A) (A) (A) (A) (A) (A) (A)
                 (A) (A) (A) (A) (A) (A) (A) (A) (A) (A) (A) (A)
                 (A) (A) (A) (A) (A) (A) (A) (A) (A) (A) (A) (A)
                 (A) (A) (A) (A) (A) (A) (A) (A) (A) (A) (A) (A)
                 (A) (A) (A) (A) (A) (A) (A) (A) (A) (A) (A) (A)
                 (A) (A) (A) (A) (A) (A) (A) (A) (A) (A) (A) (A)
                 (A) (A) (A) (A) (A) (A) (A) (A) (A) (A) (A) (A)
                 (A) (A) (A) (A) (A) (A) (A) (A) (A) (A) (A) (A)
                 (A) (A) (A) (A) (A) (A) (A) (A) (A) (A) (A) (A)
                 (A) (A) (A) (A) (A) (A) (A) (A) (A) (A) (A) (A)
                 (A) (A) (A) (A) (A) (A) (A) (A) (A) (A) (A) (A)
                 (A) (A) (A) (A) (A) (A) (A) (A) (A) (A) (A) (A)
                 (A) (A) (A) (A) (A) (A) (A) (A) (A) (A) (A) (A)
                 (A) (A) (A) (A) (A) (A) (A) (A) (A) (A) (A) (A)
                 (A) (A) (A) (A) (A) (A) (A) (A) (A) (A) (A) (A)
                 (A) (A) (A) (A) (A) (A) (A) (A) (A) (A) (A) (A)
                 (A) (A) (A) (A) (A) (A) (A) (A) (A) (A) (A) (A)
                 (A) (A) (A) (A) (A) (A) (A) (A) (A) (A) (A) (A)
                 (A) (A) (A) (A) (A) (A) (A) (A) (A) (A) (A) (A)
                 (A) (A) (A) (A) (A) (A) (A) (A) (A) (A) (A) (A)
                 (A) (A) (A) (A) (A) (A) (A) (A) (A) (A) (A) (A)
                 (A) (A) (A) (A) (A) (A) (A) (A) (A) (A) (A) (A)
                 (A) (A) (A) (A) (A) (A) (A) (A) (A) (A) (A) (A)
                 (A) (A) (A) (A) (A) (A) (A) (A) (A) (A) (A) (A)
                 (A) (A) (A) (A) (A) (A) (A) (A) (A) (A) (A) (A)
                 (A) (A) (A) (A) (A) (A) (A) (A) (A) (A) (A) (A)
                 (A) (A) (A) (A) (A) (A) (A) (A) (A) (A) (A) (A)
                 (A) (A) (A) (A) (A) (A) (A)
 The electronic state is 1-A.
 Alpha  occ. eigenvalues -- -101.55083 -19.13462 -14.41885 -14.41113 -14.39436
 Alpha  occ. eigenvalues --  -14.38939 -14.35717 -14.34727 -14.34321 -10.31451
 Alpha  occ. eigenvalues --  -10.27803 -10.26193 -10.25860 -10.24963 -10.23900
 Alpha  occ. eigenvalues --  -10.23650 -10.23130 -10.22344 -10.21870 -10.21725
 Alpha  occ. eigenvalues --  -10.21630 -10.21564 -10.21390 -10.21337 -10.21051
 Alpha  occ. eigenvalues --  -10.20735 -10.20640 -10.20517 -10.20384 -10.20031
 Alpha  occ. eigenvalues --  -10.19851 -10.19440  -9.46898  -7.23156  -7.22186
 Alpha  occ. eigenvalues --   -7.22148  -1.09418  -1.06616  -1.06027  -0.99114
 Alpha  occ. eigenvalues --   -0.93811  -0.92465  -0.90151  -0.86400  -0.85015
 Alpha  occ. eigenvalues --   -0.83868  -0.83052  -0.80242  -0.78866  -0.78194
 Alpha  occ. eigenvalues --   -0.77194  -0.76033  -0.74953  -0.74172  -0.71549
 Alpha  occ. eigenvalues --   -0.67825  -0.64985  -0.64865  -0.62699  -0.62509
 Alpha  occ. eigenvalues --   -0.61952  -0.61505  -0.60171  -0.59206  -0.57360
 Alpha  occ. eigenvalues --   -0.56133  -0.53632  -0.53200  -0.52704  -0.52499
 Alpha  occ. eigenvalues --   -0.51872  -0.49871  -0.49354  -0.48289  -0.47730
 Alpha  occ. eigenvalues --   -0.46855  -0.46642  -0.46082  -0.45888  -0.45392
 Alpha  occ. eigenvalues --   -0.45078  -0.44688  -0.44489  -0.44083  -0.43534
 Alpha  occ. eigenvalues --   -0.43250  -0.42620  -0.42267  -0.41368  -0.40651
 Alpha  occ. eigenvalues --   -0.40078  -0.39424  -0.39222  -0.37697  -0.37511
 Alpha  occ. eigenvalues --   -0.37014  -0.36663  -0.35563  -0.34004  -0.33321
 Alpha  occ. eigenvalues --   -0.32988  -0.31951  -0.31188  -0.30252  -0.29974
 Alpha  occ. eigenvalues --   -0.28443  -0.27875  -0.27685  -0.27037  -0.26939
 Alpha  occ. eigenvalues --   -0.26533  -0.25694  -0.24920  -0.23500  -0.22612
 Alpha virt. eigenvalues --   -0.04790  -0.04178  -0.03764  -0.03086  -0.02974
 Alpha virt. eigenvalues --    0.00026   0.00723   0.01060   0.02137   0.03576
 Alpha virt. eigenvalues --    0.04242   0.04505   0.06187   0.06368   0.06743
 Alpha virt. eigenvalues --    0.07305   0.07861   0.08557   0.09554   0.10454
 Alpha virt. eigenvalues --    0.10583   0.10763   0.11173   0.12501   0.12959
 Alpha virt. eigenvalues --    0.13382   0.13938   0.14153   0.14480   0.14800
 Alpha virt. eigenvalues --    0.15977   0.16309   0.16743   0.18177   0.19290
 Alpha virt. eigenvalues --    0.19690   0.19922   0.20882   0.20906   0.23348
 Alpha virt. eigenvalues --    0.23944   0.24205   0.24477   0.24968   0.25714
 Alpha virt. eigenvalues --    0.26225   0.26942   0.27541   0.28517   0.29426
 Alpha virt. eigenvalues --    0.30061   0.30297   0.31005   0.31442   0.32371
 Alpha virt. eigenvalues --    0.33246   0.35163   0.35985   0.36407   0.37314
 Alpha virt. eigenvalues --    0.38423   0.38985   0.39930   0.40824   0.41003
 Alpha virt. eigenvalues --    0.41666   0.41932   0.42992   0.43582   0.44109
 Alpha virt. eigenvalues --    0.45175   0.45294   0.45713   0.45794   0.46174
 Alpha virt. eigenvalues --    0.46634   0.47110   0.47388   0.47847   0.48105
 Alpha virt. eigenvalues --    0.48486   0.48693   0.49086   0.49567   0.49717
 Alpha virt. eigenvalues --    0.50024   0.50199   0.50345   0.50696   0.51059
 Alpha virt. eigenvalues --    0.51439   0.51687   0.52109   0.52345   0.52561
 Alpha virt. eigenvalues --    0.53317   0.53710   0.54031   0.54667   0.54729
 Alpha virt. eigenvalues --    0.55227   0.55596   0.55854   0.56236   0.56970
 Alpha virt. eigenvalues --    0.57718   0.58418   0.58555   0.59138   0.59468
 Alpha virt. eigenvalues --    0.60035   0.60752   0.60922   0.61287   0.61469
 Alpha virt. eigenvalues --    0.62133   0.62701   0.63019   0.63888   0.64006
 Alpha virt. eigenvalues --    0.64480   0.65128   0.65496   0.65925   0.66147
 Alpha virt. eigenvalues --    0.66390   0.66946   0.67579   0.67699   0.67828
 Alpha virt. eigenvalues --    0.68794   0.69235   0.69795   0.70371   0.70957
 Alpha virt. eigenvalues --    0.71133   0.71836   0.72054   0.72799   0.73597
 Alpha virt. eigenvalues --    0.74048   0.74410   0.74969   0.75141   0.76632
 Alpha virt. eigenvalues --    0.77745   0.77880   0.79432   0.79558   0.80937
 Alpha virt. eigenvalues --    0.81194   0.81611   0.82588   0.82799   0.83157
 Alpha virt. eigenvalues --    0.84554   0.85103   0.86150   0.86534   0.87381
 Alpha virt. eigenvalues --    0.87834   0.88348   0.88493   0.88615   0.89326
 Alpha virt. eigenvalues --    0.90091   0.90547   0.91182   0.91392   0.91982
 Alpha virt. eigenvalues --    0.92400   0.92687   0.93326   0.93694   0.94787
 Alpha virt. eigenvalues --    0.95350   0.96037   0.96331   0.97192   0.98182
 Alpha virt. eigenvalues --    0.98957   0.99047   0.99330   1.00286   1.00453
 Alpha virt. eigenvalues --    1.00856   1.02014   1.02240   1.02684   1.02968
 Alpha virt. eigenvalues --    1.03428   1.03715   1.03945   1.04568   1.04996
 Alpha virt. eigenvalues --    1.06437   1.06746   1.07155   1.07623   1.08298
 Alpha virt. eigenvalues --    1.09057   1.10049   1.10685   1.11107   1.12074
 Alpha virt. eigenvalues --    1.12428   1.13085   1.13682   1.15285   1.15799
 Alpha virt. eigenvalues --    1.18027   1.18360   1.18836   1.20138   1.21266
 Alpha virt. eigenvalues --    1.21897   1.23403   1.23462   1.24250   1.24574
 Alpha virt. eigenvalues --    1.25239   1.27345   1.27887   1.28488   1.29530
 Alpha virt. eigenvalues --    1.30802   1.31211   1.32265   1.32872   1.35122
 Alpha virt. eigenvalues --    1.35823   1.37015   1.37328   1.38698   1.40897
 Alpha virt. eigenvalues --    1.41316   1.42956   1.43564   1.43850   1.44909
 Alpha virt. eigenvalues --    1.46065   1.46142   1.46999   1.47732   1.48072
 Alpha virt. eigenvalues --    1.48707   1.48905   1.49487   1.50317   1.51092
 Alpha virt. eigenvalues --    1.51400   1.51906   1.52630   1.53095   1.53296
 Alpha virt. eigenvalues --    1.54027   1.54892   1.55915   1.56578   1.56993
 Alpha virt. eigenvalues --    1.57732   1.58068   1.58851   1.59371   1.59721
 Alpha virt. eigenvalues --    1.59845   1.61345   1.61530   1.62024   1.62572
 Alpha virt. eigenvalues --    1.63105   1.63832   1.63987   1.64623   1.65045
 Alpha virt. eigenvalues --    1.65574   1.65826   1.66518   1.66691   1.67900
 Alpha virt. eigenvalues --    1.68229   1.68622   1.69265   1.69846   1.70291
 Alpha virt. eigenvalues --    1.71156   1.71972   1.72626   1.73196   1.73393
 Alpha virt. eigenvalues --    1.74305   1.74484   1.75052   1.75448   1.75686
 Alpha virt. eigenvalues --    1.76780   1.76875   1.77325   1.78477   1.78811
 Alpha virt. eigenvalues --    1.79235   1.79497   1.80628   1.81140   1.81700
 Alpha virt. eigenvalues --    1.82373   1.83017   1.83147   1.83605   1.84397
 Alpha virt. eigenvalues --    1.84475   1.84888   1.85167   1.85705   1.86066
 Alpha virt. eigenvalues --    1.86406   1.88174   1.88516   1.89106   1.90499
 Alpha virt. eigenvalues --    1.91301   1.91779   1.92295   1.92909   1.94256
 Alpha virt. eigenvalues --    1.94697   1.94935   1.95799   1.96685   1.97023
 Alpha virt. eigenvalues --    1.98265   1.99215   2.00226   2.00885   2.01489
 Alpha virt. eigenvalues --    2.02139   2.02579   2.03499   2.04128   2.04962
 Alpha virt. eigenvalues --    2.05546   2.06424   2.06763   2.08797   2.10011
 Alpha virt. eigenvalues --    2.11470   2.12459   2.12677   2.14153   2.15849
 Alpha virt. eigenvalues --    2.16024   2.17538   2.18394   2.20227   2.22220
 Alpha virt. eigenvalues --    2.22742   2.23984   2.24744   2.25299   2.27768
 Alpha virt. eigenvalues --    2.29211   2.29546   2.31107   2.31651   2.31982
 Alpha virt. eigenvalues --    2.33246   2.34603   2.35713   2.37200   2.37949
 Alpha virt. eigenvalues --    2.39091   2.39652   2.40340   2.40692   2.41225
 Alpha virt. eigenvalues --    2.42030   2.43646   2.44191   2.44924   2.46446
 Alpha virt. eigenvalues --    2.47031   2.48843   2.49552   2.50990   2.51497
 Alpha virt. eigenvalues --    2.52171   2.53988   2.56276   2.56523   2.57397
 Alpha virt. eigenvalues --    2.58494   2.59809   2.61191   2.62523   2.63747
 Alpha virt. eigenvalues --    2.65503   2.68724   2.70276   2.70760   2.71533
 Alpha virt. eigenvalues --    2.72865   2.73663   2.75072   2.76029   2.77403
 Alpha virt. eigenvalues --    2.78567   2.79665   2.80127   2.82197   2.83805
 Alpha virt. eigenvalues --    2.87862   2.90782   2.93436   2.96351   2.96565
 Alpha virt. eigenvalues --    2.97982   3.01609   3.07076   3.08449   3.10479
 Alpha virt. eigenvalues --    3.14244   3.29185   3.40561   3.41280   3.45933
 Alpha virt. eigenvalues --    3.49569   3.53679
          Condensed to atoms (all electrons):
              1          2          3          4          5          6
     1  Cl  16.949383   0.290710  -0.079053   0.006733  -0.000203   0.006822
     2  C    0.290710   5.133489   0.422494   0.033338  -0.083576   0.040795
     3  C   -0.079053   0.422494   4.766087   0.454212   0.017224  -0.085614
     4  C    0.006733   0.033338   0.454212   4.756620   0.461136   0.034928
     5  C   -0.000203  -0.083576   0.017224   0.461136   4.834271   0.453744
     6  C    0.006822   0.040795  -0.085614   0.034928   0.453744   5.002977
     7  C   -0.081677   0.393210   0.021755  -0.087817  -0.021259   0.415852
     8  C   -0.000150   0.008086   0.000051   0.008078  -0.074450   0.393776
     9  N    0.000000  -0.000089  -0.000015   0.000101  -0.002365  -0.037059
    10  C    0.000000  -0.000022   0.000002  -0.000109   0.000761  -0.000501
    11  O    0.000000   0.000000   0.000000  -0.000001  -0.000032  -0.000263
    12  C   -0.000003   0.000007   0.000044  -0.000038  -0.000997  -0.009190
    13  N    0.000000   0.000002   0.000000   0.000000  -0.000002   0.000080
    14  N    0.000000   0.000000   0.000000   0.000000   0.000000  -0.000001
    15  N    0.000000   0.000000   0.000000   0.000000   0.000000   0.000000
    16  C    0.000000   0.000000   0.000000   0.000000   0.000000   0.000000
    17  C    0.000000   0.000000   0.000000   0.000000   0.000000   0.000000
    18  C    0.000000   0.000000   0.000000   0.000000   0.000000   0.000000
    19  C    0.000000   0.000000   0.000000   0.000000   0.000000   0.000000
    20  C    0.000000   0.000002  -0.000001  -0.000028  -0.000086  -0.000019
    21  C    0.000000   0.000001   0.000000  -0.000001  -0.000015  -0.000030
    22  C    0.000000   0.000000   0.000000  -0.000154   0.000043  -0.000849
    23  C    0.000000   0.000000   0.000000  -0.000004  -0.000078  -0.000182
    24  C    0.000000   0.000000   0.000000   0.000000   0.000011  -0.000025
    25  C    0.000000   0.000000   0.000000   0.000000   0.000022  -0.000013
    26  C    0.000000   0.000000   0.000000   0.000010  -0.000183  -0.000110
    27  N    0.000000   0.000001   0.000000   0.000124   0.000615  -0.011333
    28  C    0.000000   0.000000   0.000000   0.000000   0.000000   0.000000
    29  C    0.000000   0.000000   0.000000   0.000000   0.000000   0.000000
    30  N    0.000000   0.000000   0.000000   0.000000   0.000000   0.000000
    31  N    0.000000   0.000000   0.000000   0.000000   0.000000   0.000000
    32  C    0.000000   0.000000   0.000000   0.000000   0.000000   0.000000
    33  H   -0.004566  -0.053500   0.392847  -0.047423   0.010684  -0.000861
    34  H   -0.000192   0.009957  -0.048794   0.386156  -0.044752   0.009737
    35  H    0.000015  -0.001053   0.010964  -0.052939   0.387434  -0.038620
    36  H   -0.003812  -0.055363   0.012301  -0.001537   0.012820  -0.049288
    37  H   -0.000031   0.000710  -0.000054  -0.000159   0.009841  -0.020270
    38  H    0.000005  -0.000377   0.000033   0.000147  -0.007052  -0.003487
    39  H    0.000007  -0.000403  -0.000061  -0.000333  -0.000172   0.003879
    40  H    0.000001  -0.000014  -0.000002   0.000006   0.000124  -0.001232
    41  H    0.000000   0.000000   0.000000   0.000000   0.000000   0.000000
    42  H    0.000000   0.000000   0.000000   0.000000   0.000000   0.000000
    43  H    0.000000   0.000000   0.000000   0.000000   0.000000   0.000000
    44  H    0.000000  -0.000022   0.000006   0.000203   0.000605   0.000155
    45  H    0.000000   0.000000   0.000000  -0.000001  -0.000008   0.000038
    46  H    0.000000   0.000000   0.000000   0.000000   0.000000   0.000000
    47  H    0.000000   0.000000   0.000000  -0.000007   0.000006   0.000072
    48  H    0.000000   0.000000   0.000000   0.000000   0.000000   0.000000
    49  H    0.000000   0.000000   0.000000   0.000000   0.000000   0.000000
    50  H    0.000000   0.000000   0.000000   0.000000   0.000000   0.000000
              7          8          9         10         11         12
     1  Cl  -0.081677  -0.000150   0.000000   0.000000   0.000000  -0.000003
     2  C    0.393210   0.008086  -0.000089  -0.000022   0.000000   0.000007
     3  C    0.021755   0.000051  -0.000015   0.000002   0.000000   0.000044
     4  C   -0.087817   0.008078   0.000101  -0.000109  -0.000001  -0.000038
     5  C   -0.021259  -0.074450  -0.002365   0.000761  -0.000032  -0.000997
     6  C    0.415852   0.393776  -0.037059  -0.000501  -0.000263  -0.009190
     7  C    4.917072  -0.082717   0.003033   0.000254  -0.000008  -0.003012
     8  C   -0.082717   4.657922   0.346746  -0.055256   0.002992   0.008159
     9  N    0.003033   0.346746   6.526003   0.377027  -0.063233  -0.072425
    10  C    0.000254  -0.055256   0.377027   4.617104   0.740890   0.304704
    11  O   -0.000008   0.002992  -0.063233   0.740890   7.619813  -0.085879
    12  C   -0.003012   0.008159  -0.072425   0.304704  -0.085879   4.766694
    13  N    0.000018   0.000208   0.001580  -0.042117  -0.003999   0.367621
    14  N    0.000000   0.000027  -0.000018  -0.000848   0.000036  -0.047779
    15  N    0.000000   0.000000   0.000000  -0.000305   0.000006   0.006719
    16  C    0.000000   0.000001  -0.000010  -0.001003  -0.001011   0.010745
    17  C    0.000000   0.000000   0.000000   0.000023  -0.000019  -0.000475
    18  C    0.000000   0.000000   0.000000  -0.000002   0.000013   0.000042
    19  C    0.000000   0.000000  -0.000001   0.000069  -0.000009  -0.000335
    20  C    0.000004   0.000004  -0.000037   0.001845   0.003520  -0.005138
    21  C   -0.000005   0.000008   0.000408   0.001300   0.011329  -0.075554
    22  C    0.000083  -0.051184   0.348365  -0.056620  -0.014862   0.005391
    23  C    0.000015   0.002928  -0.051977  -0.006187  -0.000061   0.000703
    24  C    0.000000   0.000138   0.001320   0.000753   0.001232   0.000016
    25  C    0.000000  -0.000051   0.001055  -0.000045  -0.000028   0.000000
    26  C    0.000002  -0.000011   0.000662   0.000028   0.000011   0.000004
    27  N   -0.000096  -0.006381  -0.058844   0.000195  -0.000042  -0.000172
    28  C    0.000000  -0.000001   0.000006   0.000001   0.000000   0.000000
    29  C    0.000000   0.000000   0.000000   0.000000   0.000000   0.000000
    30  N    0.000000   0.000000   0.000000   0.000000   0.000000   0.000000
    31  N    0.000000   0.000000   0.000000   0.000000   0.000000   0.000000
    32  C    0.000000   0.000000   0.000000   0.000000   0.000000   0.000000
    33  H    0.012063   0.000033   0.000000   0.000000   0.000000   0.000000
    34  H    0.000648  -0.000360   0.000018   0.000002   0.000000  -0.000001
    35  H    0.013479  -0.019662  -0.000535   0.000322   0.000034  -0.000076
    36  H    0.390417  -0.017885   0.000327   0.000023   0.000000  -0.000242
    37  H   -0.015648   0.353908  -0.021033  -0.014848   0.000268   0.011131
    38  H    0.002249   0.337564  -0.012619   0.004494  -0.000170  -0.000773
    39  H    0.005749   0.000071  -0.001102  -0.017047   0.000853   0.355464
    40  H    0.000068   0.000093  -0.000904  -0.007235   0.000932   0.337154
    41  H    0.000000   0.000000   0.000000   0.000000   0.000000   0.000003
    42  H    0.000000   0.000000   0.000000   0.000000   0.000000  -0.000001
    43  H    0.000000   0.000000   0.000000   0.000000  -0.000002  -0.000014
    44  H   -0.000031  -0.000051  -0.000024   0.000110   0.001790   0.002206
    45  H    0.000001  -0.000826  -0.008429  -0.003245   0.027667   0.001084
    46  H    0.000000   0.000009  -0.000133   0.000002  -0.000020   0.000000
    47  H    0.000000   0.000044  -0.000255   0.000004   0.000000   0.000000
    48  H    0.000000   0.000000   0.000000   0.000000   0.000000   0.000000
    49  H    0.000000   0.000000   0.000000   0.000000   0.000000   0.000000
    50  H    0.000000   0.000000   0.000000   0.000000   0.000000   0.000000
             13         14         15         16         17         18
     1  Cl   0.000000   0.000000   0.000000   0.000000   0.000000   0.000000
     2  C    0.000002   0.000000   0.000000   0.000000   0.000000   0.000000
     3  C    0.000000   0.000000   0.000000   0.000000   0.000000   0.000000
     4  C    0.000000   0.000000   0.000000   0.000000   0.000000   0.000000
     5  C   -0.000002   0.000000   0.000000   0.000000   0.000000   0.000000
     6  C    0.000080  -0.000001   0.000000   0.000000   0.000000   0.000000
     7  C    0.000018   0.000000   0.000000   0.000000   0.000000   0.000000
     8  C    0.000208   0.000027   0.000000   0.000001   0.000000   0.000000
     9  N    0.001580  -0.000018   0.000000  -0.000010   0.000000   0.000000
    10  C   -0.042117  -0.000848  -0.000305  -0.001003   0.000023  -0.000002
    11  O   -0.003999   0.000036   0.000006  -0.001011  -0.000019   0.000013
    12  C    0.367621  -0.047779   0.006719   0.010745  -0.000475   0.000042
    13  N    6.506124   0.291175  -0.113352  -0.004550   0.007198   0.000522
    14  N    0.291175   6.546781   0.460885  -0.125776   0.000572   0.000115
    15  N   -0.113352   0.460885   6.428673   0.509530  -0.050772   0.004327
    16  C   -0.004550  -0.125776   0.509530   4.979899   0.427619   0.028462
    17  C    0.007198   0.000572  -0.050772   0.427619   4.778126   0.497425
    18  C    0.000522   0.000115   0.004327   0.028462   0.497425   4.759710
    19  C    0.002511  -0.000116  -0.000705  -0.078285   0.013972   0.464791
    20  C   -0.059996   0.003395   0.011555  -0.016691  -0.071848   0.006852
    21  C    0.321760  -0.091445  -0.073081   0.281285   0.013794  -0.089181
    22  C   -0.000037   0.000000   0.000000   0.000000   0.000000   0.000000
    23  C   -0.000010  -0.000001   0.000000   0.000000   0.000000   0.000000
    24  C    0.000000   0.000000   0.000000   0.000000   0.000000   0.000000
    25  C    0.000000   0.000000   0.000000   0.000000   0.000000   0.000000
    26  C    0.000000   0.000000   0.000000   0.000000   0.000000   0.000000
    27  N    0.000000   0.000000   0.000000   0.000000   0.000000   0.000000
    28  C    0.000000   0.000000   0.000000   0.000000   0.000000   0.000000
    29  C    0.000000   0.000000   0.000000   0.000000   0.000000   0.000000
    30  N    0.000000   0.000000   0.000000   0.000000   0.000000   0.000000
    31  N    0.000000   0.000000   0.000000   0.000000   0.000000   0.000000
    32  C    0.000000   0.000000   0.000000   0.000000   0.000000   0.000000
    33  H    0.000000   0.000000   0.000000   0.000000   0.000000   0.000000
    34  H    0.000000   0.000000   0.000000   0.000000   0.000000   0.000000
    35  H    0.000001   0.000000   0.000000   0.000000   0.000000   0.000000
    36  H   -0.000011   0.000001   0.000000   0.000000   0.000000   0.000000
    37  H    0.000452  -0.000190   0.000002  -0.000001   0.000000   0.000000
    38  H   -0.000007   0.000000   0.000000   0.000000   0.000000   0.000000
    39  H   -0.019303   0.002139  -0.000377   0.000828   0.000032  -0.000020
    40  H   -0.021617   0.022060   0.000187  -0.000703  -0.000020   0.000003
    41  H   -0.000012  -0.000553  -0.000924  -0.041097   0.377040  -0.058584
    42  H    0.000003   0.000008  -0.000096   0.010751  -0.048260   0.389428
    43  H   -0.000135   0.000005  -0.000008  -0.000722   0.010952  -0.050008
    44  H   -0.006341  -0.000270  -0.000233   0.009428  -0.000019   0.008655
    45  H   -0.000043  -0.000002   0.000000  -0.000001   0.000000   0.000000
    46  H    0.000000   0.000000   0.000000   0.000000   0.000000   0.000000
    47  H    0.000000   0.000000   0.000000   0.000000   0.000000   0.000000
    48  H    0.000000   0.000000   0.000000   0.000000   0.000000   0.000000
    49  H    0.000000   0.000000   0.000000   0.000000   0.000000   0.000000
    50  H    0.000000   0.000000   0.000000   0.000000   0.000000   0.000000
             19         20         21         22         23         24
     1  Cl   0.000000   0.000000   0.000000   0.000000   0.000000   0.000000
     2  C    0.000000   0.000002   0.000001   0.000000   0.000000   0.000000
     3  C    0.000000  -0.000001   0.000000   0.000000   0.000000   0.000000
     4  C    0.000000  -0.000028  -0.000001  -0.000154  -0.000004   0.000000
     5  C    0.000000  -0.000086  -0.000015   0.000043  -0.000078   0.000011
     6  C    0.000000  -0.000019  -0.000030  -0.000849  -0.000182  -0.000025
     7  C    0.000000   0.000004  -0.000005   0.000083   0.000015   0.000000
     8  C    0.000000   0.000004   0.000008  -0.051184   0.002928   0.000138
     9  N   -0.000001  -0.000037   0.000408   0.348365  -0.051977   0.001320
    10  C    0.000069   0.001845   0.001300  -0.056620  -0.006187   0.000753
    11  O   -0.000009   0.003520   0.011329  -0.014862  -0.000061   0.001232
    12  C   -0.000335  -0.005138  -0.075554   0.005391   0.000703   0.000016
    13  N    0.002511  -0.059996   0.321760  -0.000037  -0.000010   0.000000
    14  N   -0.000116   0.003395  -0.091445   0.000000  -0.000001   0.000000
    15  N   -0.000705   0.011555  -0.073081   0.000000   0.000000   0.000000
    16  C   -0.078285  -0.016691   0.281285   0.000000   0.000000   0.000000
    17  C    0.013972  -0.071848   0.013794   0.000000   0.000000   0.000000
    18  C    0.464791   0.006852  -0.089181   0.000000   0.000000   0.000000
    19  C    4.716854   0.513025   0.027686   0.000000   0.000000   0.000000
    20  C    0.513025   4.859845   0.393548   0.000000   0.000000   0.000000
    21  C    0.027686   0.393548   5.060055   0.000007  -0.000006   0.000000
    22  C    0.000000   0.000000   0.000007   4.797882   0.480694  -0.019311
    23  C    0.000000   0.000000  -0.000006   0.480694   4.753182   0.502254
[...]
     8  C    0.000000  -0.000051  -0.000826   0.000009   0.000044   0.000000
     9  N    0.000000  -0.000024  -0.008429  -0.000133  -0.000255   0.000000
    10  C    0.000000   0.000110  -0.003245   0.000002   0.000004   0.000000
    11  O   -0.000002   0.001790   0.027667  -0.000020   0.000000   0.000000
    12  C   -0.000014   0.002206   0.001084   0.000000   0.000000   0.000000
    13  N   -0.000135  -0.006341  -0.000043   0.000000   0.000000   0.000000
    14  N    0.000005  -0.000270  -0.000002   0.000000   0.000000   0.000000
    15  N   -0.000008  -0.000233   0.000000   0.000000   0.000000   0.000000
    16  C   -0.000722   0.009428  -0.000001   0.000000   0.000000   0.000000
    17  C    0.010952  -0.000019   0.000000   0.000000   0.000000   0.000000
    18  C   -0.050008   0.008655   0.000000   0.000000   0.000000   0.000000
    19  C    0.386030  -0.044378   0.000000   0.000000   0.000000   0.000000
    20  C   -0.046974   0.367335   0.000002   0.000000   0.000000   0.000000
    21  C    0.010684  -0.029685   0.000017   0.000000   0.000000   0.000000
    22  C    0.000000   0.000016  -0.038943   0.011186   0.002875  -0.000007
    23  C    0.000000  -0.000003   0.375779  -0.047396   0.001022   0.000239
    24  C    0.000000   0.000000  -0.034230   0.395577   0.007915   0.003928
    25  C    0.000000   0.000000   0.009959  -0.049968  -0.042204  -0.012878
    26  C    0.000000   0.000000   0.000985   0.012038   0.383574  -0.000252
    27  N    0.000000   0.000000   0.004882  -0.000872  -0.030308   0.000002
    28  C    0.000000   0.000000  -0.000155  -0.028037  -0.017465  -0.023127
    29  C    0.000000   0.000000  -0.000004   0.005948  -0.000123   0.386792
    30  N    0.000000   0.000000   0.000000   0.000021  -0.000017  -0.029361
    31  N    0.000000   0.000000   0.000000   0.000000  -0.000002   0.003865
    32  C    0.000000   0.000000   0.000002  -0.000170   0.005535   0.007266
    33  H    0.000000   0.000000   0.000000   0.000000   0.000000   0.000000
    34  H    0.000000   0.000001   0.000000   0.000000   0.000000   0.000000
    35  H    0.000000   0.000043  -0.000036   0.000003  -0.000233   0.000000
    36  H    0.000000   0.000000   0.000000   0.000000   0.000000   0.000000
    37  H    0.000000  -0.000005  -0.000039   0.000000  -0.000005   0.000000
    38  H    0.000000   0.000000  -0.000134   0.000009  -0.000553   0.000000
    39  H    0.000007   0.000697  -0.000018   0.000000   0.000000   0.000000
    40  H   -0.000001  -0.000039  -0.000072   0.000000   0.000000   0.000000
    41  H   -0.000161   0.000060   0.000000   0.000000   0.000000   0.000000
    42  H   -0.015837  -0.000221   0.000000   0.000000   0.000000   0.000000
    43  H    0.746553  -0.015008   0.000000   0.000000   0.000000   0.000000
    44  H   -0.015008   0.733210   0.000004   0.000000   0.000000   0.000000
    45  H    0.000000   0.000004   0.681464  -0.016396   0.000097   0.000010
    46  H    0.000000   0.000000  -0.016396   0.752199  -0.000290   0.000060
    47  H    0.000000   0.000000   0.000097  -0.000290   0.701563  -0.000008
    48  H    0.000000   0.000000   0.000010   0.000060  -0.000008   0.667208
    49  H    0.000000   0.000000   0.000000  -0.000022   0.001272  -0.000181
    50  H    0.000000   0.000000   0.000000   0.000014   0.000000  -0.004671
             49         50
     1  Cl   0.000000   0.000000
     2  C    0.000000   0.000000
     3  C    0.000000   0.000000
     4  C    0.000000   0.000000
     5  C    0.000000   0.000000
     6  C    0.000000   0.000000
     7  C    0.000000   0.000000
     8  C    0.000000   0.000000
     9  N    0.000000   0.000000
    10  C    0.000000   0.000000
    11  O    0.000000   0.000000
    12  C    0.000000   0.000000
    13  N    0.000000   0.000000
    14  N    0.000000   0.000000
    15  N    0.000000   0.000000
    16  C    0.000000   0.000000
    17  C    0.000000   0.000000
    18  C    0.000000   0.000000
    19  C    0.000000   0.000000
    20  C    0.000000   0.000000
    21  C    0.000000   0.000000
    22  C    0.000000   0.000000
    23  C    0.000009   0.000000
    24  C   -0.000389   0.000012
    25  C   -0.017844  -0.000369
    26  C    0.003866   0.000003
    27  N    0.000042   0.000000
    28  C   -0.036937   0.008448
    29  C    0.015501  -0.037597
    30  N    0.003437   0.383425
    31  N   -0.028335  -0.029909
    32  C    0.390252   0.007175
    33  H    0.000000   0.000000
    34  H    0.000000   0.000000
    35  H    0.000000   0.000000
    36  H    0.000000   0.000000
    37  H    0.000000   0.000000
    38  H   -0.000001   0.000000
    39  H    0.000000   0.000000
    40  H    0.000000   0.000000
    41  H    0.000000   0.000000
    42  H    0.000000   0.000000
    43  H    0.000000   0.000000
    44  H    0.000000   0.000000
    45  H    0.000000   0.000000
    46  H   -0.000022   0.000014
    47  H    0.001272   0.000000
    48  H   -0.000181  -0.004671
    49  H    0.683903  -0.000452
    50  H   -0.000452   0.570247
 Mulliken atomic charges:
              1
     1  Cl  -0.083990
     2  C   -0.138381
     3  C    0.115573
     4  C    0.048760
     5  C    0.045890
     6  C   -0.103908
     7  C    0.116298
     8  C    0.188137
     9  N   -0.275546
    10  C    0.155476
    11  O   -0.241748
    12  C    0.124211
    13  N   -0.227724
    14  N   -0.060202
    15  N   -0.182032
    16  C    0.011304
    17  C    0.044658
    18  C    0.037451
    19  C    0.039804
    20  C    0.027716
    21  C    0.213087
    22  C    0.195099
    23  C    0.042965
    24  C    0.064972
    25  C   -0.015967
    26  C    0.083200
    27  N   -0.229579
    28  C   -0.064517
    29  C    0.090714
    30  N    0.004422
    31  N   -0.168032
    32  C    0.089387
    33  H   -0.018142
    34  H   -0.016498
    35  H   -0.027063
    36  H   -0.031851
    37  H    0.015109
    38  H    0.060020
    39  H    0.066851
    40  H    0.062009
    41  H   -0.022139
    42  H   -0.027226
    43  H   -0.025361
    44  H   -0.028194
    45  H    0.000591
    46  H   -0.033762
    47  H   -0.012511
    48  H    0.001117
    49  H   -0.014122
    50  H    0.103674
 Sum of Mulliken atomic charges =   0.00000
 Mulliken charges with hydrogens summed into heavy atoms:
              1
     1  Cl  -0.083990
     2  C   -0.138381
     3  C    0.097431
     4  C    0.032262
     5  C    0.018827
     6  C   -0.103908
     7  C    0.084447
     8  C    0.263266
     9  N   -0.275546
    10  C    0.155476
    11  O   -0.241748
    12  C    0.253071
    13  N   -0.227724
    14  N   -0.060202
    15  N   -0.182032
    16  C    0.011304
    17  C    0.022520
    18  C    0.010225
    19  C    0.014443
    20  C   -0.000478
    21  C    0.213087
    22  C    0.195099
    23  C    0.043557
    24  C    0.031210
    25  C   -0.015967
    26  C    0.070689
    27  N   -0.229579
    28  C   -0.064517
    29  C    0.091830
    30  N    0.108096
    31  N   -0.168032
    32  C    0.075265
 Sum of Mulliken charges with hydrogens summed into heavy atoms =   0.00000
 Electronic spatial extent (au):  <R**2>=          19739.9960
 Charge=              0.0000 electrons
 Dipole moment (field-independent basis, Debye):
    X=              4.2795    Y=              0.2185    Z=              3.3197  Tot=              5.4205
 Quadrupole moment (field-independent basis, Debye-Ang):
   XX=           -188.2028   YY=           -193.5084   ZZ=           -184.9577
   XY=            -23.6963   XZ=             -4.7645   YZ=            -10.8332
 Traceless Quadrupole moment (field-independent basis, Debye-Ang):
   XX=              0.6868   YY=             -4.6187   ZZ=              3.9319
   XY=            -23.6963   XZ=             -4.7645   YZ=            -10.8332
 Octapole moment (field-independent basis, Debye-Ang**2):
  XXX=            127.8089  YYY=            -38.6393  ZZZ=             28.6118  XYY=             93.2372
  XXY=           -174.7605  XXZ=            127.9472  XZZ=             10.5513  YZZ=             34.0527
  YYZ=             51.0325  XYZ=              9.8937
 Hexadecapole moment (field-independent basis, Debye-Ang**3):
 XXXX=         -17404.2643 YYYY=          -7794.6855 ZZZZ=          -1495.8581 XXXY=          -1411.5252
 XXXZ=            433.5081 YYYX=           -117.6891 YYYZ=            -24.0972 ZZZX=            -72.8797
 ZZZY=            -59.3618 XXYY=          -3693.5000 XXZZ=          -3215.8964 YYZZ=          -1482.2829
 XXYZ=           -491.0582 YYXZ=            -98.8370 ZZXY=           -123.4233
 N-N= 3.043410829724D+03 E-N=-1.030916258041D+04  KE= 1.796242458145D+03
 No NMR shielding tensors so no spin-rotation constants.
 Leave Link  601 at Sat Sep 10 14:27:13 2022, MaxMem=  209715200 cpu:       3.9
 (Enter /opt/gaussian/l602.exe)
 Breneman (CHELPG) radii used.
 Read replacement radii for each type of atom:
 Rad(35) =   1.900000000000D+00
 Atom Element Radius
    1    17    2.00
    2     6    1.50
    3     6    1.50
    4     6    1.50
    5     6    1.50
    6     6    1.50
    7     6    1.50
    8     6    1.50
    9     7    1.70
   10     6    1.50
   11     8    1.70
   12     6    1.50
   13     7    1.70
   14     7    1.70
   15     7    1.70
   16     6    1.50
   17     6    1.50
   18     6    1.50
   19     6    1.50
   20     6    1.50
   21     6    1.50
   22     6    1.50
   23     6    1.50
   24     6    1.50
   25     6    1.50
   26     6    1.50
   27     7    1.70
   28     6    1.50
   29     6    1.50
   30     7    1.70
   31     7    1.70
   32     6    1.50
   33     1    1.45
   34     1    1.45
   35     1    1.45
   36     1    1.45
   37     1    1.45
   38     1    1.45
   39     1    1.45
   40     1    1.45
   41     1    1.45
   42     1    1.45
   43     1    1.45
   44     1    1.45
   45     1    1.45
   46     1    1.45
   47     1    1.45
   48     1    1.45
   49     1    1.45
   50     1    1.45
 Generate Potential Derived Charges using the Breneman model, NDens= 1.
 Grid spacing= 0.300 Box extension= 2.800
 NStep X,Y,Z=   69     53     39   Total possible points=      142623
 Number of Points to Fit=   28035

 **********************************************************************

            Electrostatic Properties Using The SCF Density

 **********************************************************************

       Atomic Center    1 is at  -3.377242  5.241621 -0.283381
       Atomic Center    2 is at  -2.119711  4.121971  0.227599
       Atomic Center    3 is at  -1.689651  4.129481  1.554839
       Atomic Center    4 is at  -0.692071  3.228531  1.938249
       Atomic Center    5 is at  -0.134961  2.339561  1.016279
       Atomic Center    6 is at  -0.576081  2.335091 -0.315351
       Atomic Center    7 is at  -1.578191  3.235151 -0.705271
       Atomic Center    8 is at   0.041289  1.418381 -1.358821
       Atomic Center    9 is at   0.363429  0.053341 -0.896581
       Atomic Center   10 is at  -0.642770 -0.887819 -0.705601
       Atomic Center   11 is at  -0.458250 -2.002749 -0.251371
       Atomic Center   12 is at  -2.064421 -0.445759 -1.109791
       Atomic Center   13 is at  -3.019930 -1.510589 -0.949641
       Atomic Center   14 is at  -3.503030 -2.149140 -2.059781
       Atomic Center   15 is at  -4.334660 -3.065020 -1.701051
       Atomic Center   16 is at  -4.421420 -3.060270 -0.321751
       Atomic Center   17 is at  -5.189430 -3.849900  0.552049
       Atomic Center   18 is at  -5.069460 -3.599910  1.911949
       Atomic Center   19 is at  -4.203600 -2.589400  2.402859
       Atomic Center   20 is at  -3.434980 -1.802099  1.554679
       Atomic Center   21 is at  -3.564080 -2.057620  0.179679
       Atomic Center   22 is at   1.736389 -0.237189 -0.611041
       Atomic Center   23 is at   2.257200 -1.544308 -0.545771
       Atomic Center   24 is at   3.617060 -1.694508 -0.304391
       Atomic Center   25 is at   4.450189 -0.576368 -0.116091
       Atomic Center   26 is at   3.815199  0.671902 -0.201181
       Atomic Center   27 is at   2.511469  0.839012 -0.441251
       Atomic Center   28 is at   5.887690 -0.691778  0.151829
       Atomic Center   29 is at   6.574310 -1.774178  0.696799
       Atomic Center   30 is at   7.881180 -1.411887  0.752689
       Atomic Center   31 is at   8.115799 -0.172137  0.282909
       Atomic Center   32 is at   6.914459  0.270262 -0.080031
       Atomic Center   33 is at  -2.129141  4.825431  2.269709
       Atomic Center   34 is at  -0.342251  3.226411  2.972959
       Atomic Center   35 is at   0.656019  1.656351  1.325129
       Atomic Center   36 is at  -1.942141  3.251361 -1.734501
       Atomic Center   37 is at  -0.616191  1.356181 -2.237231
       Atomic Center   38 is at   0.991119  1.854751 -1.689331
       Atomic Center   39 is at  -2.375711  0.433121 -0.524521
       Atomic Center   40 is at  -2.094831 -0.170219 -2.173331
       Atomic Center   41 is at  -5.850220 -4.624700  0.160499
       Atomic Center   42 is at  -5.648420 -4.191110  2.624359
       Atomic Center   43 is at  -4.136250 -2.430310  3.481419
       Atomic Center   44 is at  -2.759190 -1.038519  1.941459
       Atomic Center   45 is at   1.613550 -2.406869 -0.679711
       Atomic Center   46 is at   4.039280 -2.701808 -0.281161
       Atomic Center   47 is at   4.386469  1.593192 -0.051921
       Atomic Center   48 is at   6.232110 -2.739788  1.059029
       Atomic Center   49 is at   6.821729  1.262062 -0.518121
       Atomic Center   50 is at   8.655640 -1.961507  1.102249
   28035 points will be used for fitting atomic charges
 Fitting point charges to electrostatic potential
 Charges from ESP fit, RMS=   0.00417 RRMS=   0.25410:
 Charge=   0.00000 Dipole=     4.3745     0.0854     3.2074 Tot=     5.4250
              1
     1  Cl  -0.127108
     2  C    0.087396
     3  C   -0.107434
     4  C   -0.068779
     5  C   -0.129629
     6  C    0.121474
     7  C   -0.122830
     8  C   -0.030586
     9  N   -0.453070
    10  C    0.609019
    11  O   -0.503703
    12  C    0.014073
    13  N    0.257821
    14  N   -0.213233
    15  N   -0.345301
    16  C    0.420917
    17  C   -0.265591
    18  C   -0.045286
    19  C   -0.118862
    20  C   -0.121697
    21  C   -0.068563
    22  C    0.615261
    23  C   -0.411398
    24  C    0.104571
    25  C   -0.126469
    26  C    0.167927
    27  N   -0.434207
    28  C   -0.009060
    29  C   -0.158549
    30  N    0.053027
    31  N   -0.424407
    32  C    0.106140
    33  H    0.103634
    34  H    0.099594
    35  H    0.086665
    36  H    0.085492
    37  H    0.122009
    38  H    0.041798
    39  H   -0.003031
    40  H    0.001577
    41  H    0.129985
    42  H    0.085513
    43  H    0.099611
    44  H    0.092329
    45  H    0.186760
    46  H    0.068131
    47  H    0.044140
    48  H    0.133244
    49  H    0.093310
    50  H    0.257374
 Charges from ESP fit with hydrogens summed into heavy atoms:
              1
     1  Cl  -0.127108
     2  C    0.087396
     3  C   -0.003800
     4  C    0.030816
     5  C   -0.042964
     6  C    0.121474
     7  C   -0.037338
     8  C    0.133221
     9  N   -0.453070
    10  C    0.609019
    11  O   -0.503703
    12  C    0.012619
    13  N    0.257821
    14  N   -0.213233
    15  N   -0.345301
    16  C    0.420917
    17  C   -0.135606
    18  C    0.040227
    19  C   -0.019250
    20  C   -0.029368
    21  C   -0.068563
    22  C    0.615261
    23  C   -0.224639
    24  C    0.172702
    25  C   -0.126469
    26  C    0.212067
    27  N   -0.434207
    28  C   -0.009060
    29  C   -0.025304
    30  N    0.310401
    31  N   -0.424407
    32  C    0.199450
    33  H    0.000000
    34  H    0.000000
    35  H    0.000000
    36  H    0.000000
    37  H    0.000000
    38  H    0.000000
    39  H    0.000000
    40  H    0.000000
    41  H    0.000000
    42  H    0.000000
    43  H    0.000000
    44  H    0.000000
    45  H    0.000000
    46  H    0.000000
    47  H    0.000000
    48  H    0.000000
    49  H    0.000000
    50  H    0.000000
 -----------------------------------------------------------------

              Electrostatic Properties (Atomic Units)

 -----------------------------------------------------------------
    Center     Electric         -------- Electric Field --------
               Potential          X             Y             Z
 -----------------------------------------------------------------
    1 Atom    -64.404030
    2 Atom    -14.684906
    3 Atom    -14.733498
    4 Atom    -14.733000
    5 Atom    -14.739558
    6 Atom    -14.723473
    7 Atom    -14.731655
    8 Atom    -14.689693
    9 Atom    -18.308229
   10 Atom    -14.628182
   11 Atom    -22.355545
   12 Atom    -14.681270
   13 Atom    -18.293481
   14 Atom    -18.331100
   15 Atom    -18.369471
   16 Atom    -14.737481
   17 Atom    -14.748040
   18 Atom    -14.751426
   19 Atom    -14.745773
   20 Atom    -14.741576
   21 Atom    -14.714667
   22 Atom    -14.663516
   23 Atom    -14.741054
   24 Atom    -14.730366
   25 Atom    -14.727638
   26 Atom    -14.708459
   27 Atom    -18.369491
   28 Atom    -14.740545
   29 Atom    -14.705580
   30 Atom    -18.283668
   31 Atom    -18.358960
   32 Atom    -14.729233
   33 Atom     -1.072784
   34 Atom     -1.077464
   35 Atom     -1.082299
   36 Atom     -1.068112
   37 Atom     -1.071402
   38 Atom     -1.073886
   39 Atom     -1.056364
   40 Atom     -1.052743
   41 Atom     -1.089401
   42 Atom     -1.095229
   43 Atom     -1.091690
   44 Atom     -1.080776
   45 Atom     -1.084239
   46 Atom     -1.074142
   47 Atom     -1.083237
   48 Atom     -1.044964
   49 Atom     -1.076030
   50 Atom     -0.968464
 -----------------------------------------------------------------
 Leave Link  602 at Sat Sep 10 14:27:27 2022, MaxMem=  209715200 cpu:     105.4
 (Enter /opt/gaussian/l9999.exe)
 1\1\GINC-LQCAPF-6\SP\RB3LYP\CC-pVDZ\C23H18Cl1N7O1\LQCAPF-6\10-Sep-2022
 \0\\#p b3lyp/cc-pvdz pop=(chelpg,readradii)\\Mol40.log\\0,1\Cl,0,-3.37
 724,5.24162,-0.28338\C,0,-2.11971,4.12197,0.2276\C,0,-1.68965,4.12948,
 1.55484\C,0,-0.69207,3.22853,1.93825\C,0,-0.13496,2.33956,1.01628\C,0,
 -0.57608,2.33509,-0.31535\C,0,-1.57819,3.23515,-0.70527\C,0,0.04129,1.
 41838,-1.35882\N,0,0.36343,0.05334,-0.89658\C,0,-0.64277,-0.88782,-0.7
 056\O,0,-0.45825,-2.00275,-0.25137\C,0,-2.06442,-0.44576,-1.10979\N,0,
 -3.01993,-1.51059,-0.94964\N,0,-3.50303,-2.14914,-2.05978\N,0,-4.33466
 ,-3.06502,-1.70105\C,0,-4.42142,-3.06027,-0.32175\C,0,-5.18943,-3.8499
 ,0.55205\C,0,-5.06946,-3.59991,1.91195\C,0,-4.2036,-2.5894,2.40286\C,0
 ,-3.43498,-1.8021,1.55468\C,0,-3.56408,-2.05762,0.17968\C,0,1.73639,-0
 .23719,-0.61104\C,0,2.2572,-1.54431,-0.54577\C,0,3.61706,-1.69451,-0.3
 0439\C,0,4.45019,-0.57637,-0.11609\C,0,3.8152,0.6719,-0.20118\N,0,2.51
 147,0.83901,-0.44125\C,0,5.88769,-0.69178,0.15183\C,0,6.57431,-1.77418
 ,0.6968\N,0,7.88118,-1.41189,0.75269\N,0,8.1158,-0.17214,0.28291\C,0,6
 .91446,0.27026,-0.08003\H,0,-2.12914,4.82543,2.26971\H,0,-0.34225,3.22
 641,2.97296\H,0,0.65602,1.65635,1.32513\H,0,-1.94214,3.25136,-1.7345\H
 ,0,-0.61619,1.35618,-2.23723\H,0,0.99112,1.85475,-1.68933\H,0,-2.37571
 ,0.43312,-0.52452\H,0,-2.09483,-0.17022,-2.17333\H,0,-5.85022,-4.6247,
 0.1605\H,0,-5.64842,-4.19111,2.62436\H,0,-4.13625,-2.43031,3.48142\H,0
 ,-2.75919,-1.03852,1.94146\H,0,1.61355,-2.40687,-0.67971\H,0,4.03928,-
 2.70181,-0.28116\H,0,4.38647,1.59319,-0.05192\H,0,6.23211,-2.73979,1.0
 5903\H,0,6.82173,1.26206,-0.51812\H,0,8.65564,-1.96151,1.10225\\Versio
 n=EM64L-G09RevC.01\State=1-A\HF=-1806.0396016\RMSD=5.292e-09\Dipole=1.
 6836678,0.0859744,1.3060887\Quadrupole=0.5106137,-3.4339116,2.9232978,
 -17.6176096,-3.5422791,-8.0542311\PG=C01 [X(C23H18Cl1N7O1)]\\@


 IT'S WHAT YOU LEARN AFTER YOU KNOW IT ALL
 THAT COUNTS.
 Job cpu time:  0 days  1 hours 34 minutes 56.9 seconds.
 File lengths (MBytes):  RWF=    162 Int=      0 D2E=      0 Chk=     11 Scr=      1
 Normal termination of Gaussian 09 at Sat Sep 10 14:27:27 2022.
