 Entering Gaussian System, Link 0=g09
 Input=Mol09.gjf
 Output=Mol09.log
 Initial command:
 /opt/gaussian/l1.exe /home/scr/lqcapf-6/Gau-223265.inp -scrdir=/home/scr/lqcapf-6/
 Entering Link 1 = /opt/gaussian/l1.exe PID=    223267.
  
 Copyright (c) 1988,1990,1992,1993,1995,1998,2003,2009,2011,
            Gaussian, Inc.  All Rights Reserved.
  
 This is part of the Gaussian(R) 09 program.  It is based on
 the Gaussian(R) 03 system (copyright 2003, Gaussian, Inc.),
 the Gaussian(R) 98 system (copyright 1998, Gaussian, Inc.),
 the Gaussian(R) 94 system (copyright 1995, Gaussian, Inc.),
 the Gaussian 92(TM) system (copyright 1992, Gaussian, Inc.),
 the Gaussian 90(TM) system (copyright 1990, Gaussian, Inc.),
 the Gaussian 88(TM) system (copyright 1988, Gaussian, Inc.),
 the Gaussian 86(TM) system (copyright 1986, Carnegie Mellon
 University), and the Gaussian 82(TM) system (copyright 1983,
 Carnegie Mellon University). Gaussian is a federally registered
 trademark of Gaussian, Inc.
  
 This software contains proprietary and confidential information,
 including trade secrets, belonging to Gaussian, Inc.
  
 This software is provided under written license and may be
 used, copied, transmitted, or stored only in accord with that
 written license.
  
 The following legend is applicable only to US Government
 contracts under FAR:
  
                    RESTRICTED RIGHTS LEGEND
  
 Use, reproduction and disclosure by the US Government is
 subject to restrictions as set forth in subparagraphs (a)
 and (c) of the Commercial Computer Software - Restricted
 Rights clause in FAR 52.227-19.
  
 Gaussian, Inc.
 340 Quinnipiac St., Bldg. 40, Wallingford CT 06492
  
  
 ---------------------------------------------------------------
 Warning -- This program may not be used in any manner that
 competes with the business of Gaussian, Inc. or will provide
 assistance to any competitor of Gaussian, Inc.  The licensee
 of this program is prohibited from giving any competitor of
 Gaussian, Inc. access to this program.  By using this program,
 the user acknowledges that Gaussian, Inc. is engaged in the
 business of creating and licensing software in the field of
 computational chemistry and represents and warrants to the
 licensee that it is not a competitor of Gaussian, Inc. and that
 it will not use this program in any manner prohibited above.
 ---------------------------------------------------------------
  

 Cite this work as:
 Gaussian 09, Revision C.01,
 M. J. Frisch, G. W. Trucks, H. B. Schlegel, G. E. Scuseria, 
 M. A. Robb, J. R. Cheeseman, G. Scalmani, V. Barone, B. Mennucci, 
 G. A. Petersson, H. Nakatsuji, M. Caricato, X. Li, H. P. Hratchian, 
 A. F. Izmaylov, J. Bloino, G. Zheng, J. L. Sonnenberg, M. Hada, 
 M. Ehara, K. Toyota, R. Fukuda, J. Hasegawa, M. Ishida, T. Nakajima, 
 Y. Honda, O. Kitao, H. Nakai, T. Vreven, J. A. Montgomery, Jr., 
 J. E. Peralta, F. Ogliaro, M. Bearpark, J. J. Heyd, E. Brothers, 
 K. N. Kudin, V. N. Staroverov, T. Keith, R. Kobayashi, J. Normand, 
 K. Raghavachari, A. Rendell, J. C. Burant, S. S. Iyengar, J. Tomasi, 
 M. Cossi, N. Rega, J. M. Millam, M. Klene, J. E. Knox, J. B. Cross, 
 V. Bakken, C. Adamo, J. Jaramillo, R. Gomperts, R. E. Stratmann, 
 O. Yazyev, A. J. Austin, R. Cammi, C. Pomelli, J. W. Ochterski, 
 R. L. Martin, K. Morokuma, V. G. Zakrzewski, G. A. Voth, 
 P. Salvador, J. J. Dannenberg, S. Dapprich, A. D. Daniels, 
 O. Farkas, J. B. Foresman, J. V. Ortiz, J. Cioslowski, 
 and D. J. Fox, Gaussian, Inc., Wallingford CT, 2010.
 
 ******************************************
 Gaussian 09:  EM64L-G09RevC.01 23-Sep-2011
                26-Aug-2022 
 ******************************************
 %nprocshared=8
 Will use up to    8 processors via shared memory.
 %mem=1600MB
 ---------------
 #p opt hf/6-31G
 ---------------
 1/18=20,19=15,38=1/1,3;
 2/9=110,12=2,17=6,18=5,40=1/2;
 3/5=1,6=6,11=9,16=1,25=1,30=1,71=1/1,2,3;
 4//1;
 5/5=2,38=5/2;
 6/7=2,8=2,9=2,10=2,28=1/1;
 7//1,2,3,16;
 1/18=20,19=15/3(2);
 2/9=110/2;
 99//99;
 2/9=110/2;
 3/5=1,6=6,11=9,16=1,25=1,30=1,71=1/1,2,3;
 4/5=5,16=3/1;
 5/5=2,38=5/2;
 7//1,2,3,16;
 1/18=20,19=15/3(-5);
 2/9=110/2;
 6/7=2,8=2,9=2,10=2,19=2,28=1/1;
 99/9=1/99;
 Leave Link    1 at Fri Aug 26 14:42:12 2022, MaxMem=  209715200 cpu:       0.1
 (Enter /opt/gaussian/l101.exe)
 ---------
 Mol09.out
 ---------
 Charge =  0 Multiplicity = 1
 Symbolic Z-Matrix:
 O                     21.9183  -8.9459   -2.4839 
 C                     20.8031  -8.7074   -1.9781 
 C                     20.0297  -7.4603   -2.4473 
 N                     20.1267  -6.3605   -1.526 
 N                     19.081   -5.7895   -0.8569 
 N                     19.4551  -4.8398   -0.1198 
 C                     20.8715  -4.6859   -0.2249 
 C                     21.7918  -3.8117    0.3591 
 C                     23.1278  -3.9628    0.0118 
 C                     23.5556  -4.9563   -0.8889 
 C                     22.6699  -5.842    -1.4879 
 C                     21.3187  -5.7003   -1.1564 
 N                     20.273   -9.5137   -0.988 
 C                     21.0191  -10.6678  -0.5133 
 C                     20.8441  -11.9109  -1.3122 
 C                     20.1311  -13.0632  -0.8437 
 C                     20.1607  -14.0826  -1.7681 
 S                     21.0129  -13.6458  -3.1398 
 C                     21.3709  -12.1208  -2.5717 
 C                     18.9269  -9.3852   -0.5434 
 C                     18.6658  -8.9943    0.7866 
 C                     17.3529  -8.8952    1.2397 
 C                     16.2867  -9.1845    0.3898 
 C                     16.5362  -9.572    -0.9257 
 C                     17.8424  -9.6764   -1.3967 
 H                     20.4986  -7.1452   -3.4257 
 H                     18.9472  -7.7211   -2.6226 
 H                     21.4624  -3.0379    1.0668 
 H                     23.8789  -3.29      0.4533 
 H                     24.6291  -5.0343   -1.1227 
 H                     23.0059  -6.6311   -2.1776 
 H                     22.1145  -10.3877  -0.5224 
 H                     20.7034  -10.8612   0.5524 
 H                     19.6326  -13.1033   0.1266 
 H                     19.6969  -15.0594  -1.6464 
 H                     21.9514  -11.3809  -3.1274 
 H                     19.4968  -8.7614    1.4704 
 H                     17.1606  -8.5781    2.276 
 H                     15.2523  -9.1071    0.7551 
 H                     15.6972  -9.8015   -1.5996 
 H                     18.0203  -9.9956   -2.4351 
 
 NAtoms=     41 NQM=        0 NQMF=       0 NMMI=     41 NMMIF=      0
                NMic=       0 NMicF=      0.
                    Isotopes and Nuclear Properties:
 (Nuclear quadrupole moments (NQMom) in fm**2, nuclear magnetic moments (NMagM)
  in nuclear magnetons)

  Atom         1           2           3           4           5           6           7           8           9          10
 IAtWgt=          16          12          12          14          14          14          12          12          12          12
 AtmWgt=  15.9949146  12.0000000  12.0000000  14.0030740  14.0030740  14.0030740  12.0000000  12.0000000  12.0000000  12.0000000
 NucSpn=           0           0           0           2           2           2           0           0           0           0
 AtZEff=   0.0000000   0.0000000   0.0000000   0.0000000   0.0000000   0.0000000   0.0000000   0.0000000   0.0000000   0.0000000
 NQMom=    0.0000000   0.0000000   0.0000000   2.0440000   2.0440000   2.0440000   0.0000000   0.0000000   0.0000000   0.0000000
 NMagM=    0.0000000   0.0000000   0.0000000   0.4037610   0.4037610   0.4037610   0.0000000   0.0000000   0.0000000   0.0000000

  Atom        11          12          13          14          15          16          17          18          19          20
 IAtWgt=          12          12          14          12          12          12          12          32          12          12
 AtmWgt=  12.0000000  12.0000000  14.0030740  12.0000000  12.0000000  12.0000000  12.0000000  31.9720718  12.0000000  12.0000000
 NucSpn=           0           0           2           0           0           0           0           0           0           0
 AtZEff=   0.0000000   0.0000000   0.0000000   0.0000000   0.0000000   0.0000000   0.0000000   0.0000000   0.0000000   0.0000000
 NQMom=    0.0000000   0.0000000   2.0440000   0.0000000   0.0000000   0.0000000   0.0000000   0.0000000   0.0000000   0.0000000
 NMagM=    0.0000000   0.0000000   0.4037610   0.0000000   0.0000000   0.0000000   0.0000000   0.0000000   0.0000000   0.0000000

  Atom        21          22          23          24          25          26          27          28          29          30
 IAtWgt=          12          12          12          12          12           1           1           1           1           1
 AtmWgt=  12.0000000  12.0000000  12.0000000  12.0000000  12.0000000   1.0078250   1.0078250   1.0078250   1.0078250   1.0078250
 NucSpn=           0           0           0           0           0           1           1           1           1           1
 AtZEff=   0.0000000   0.0000000   0.0000000   0.0000000   0.0000000   0.0000000   0.0000000   0.0000000   0.0000000   0.0000000
 NQMom=    0.0000000   0.0000000   0.0000000   0.0000000   0.0000000   0.0000000   0.0000000   0.0000000   0.0000000   0.0000000
 NMagM=    0.0000000   0.0000000   0.0000000   0.0000000   0.0000000   2.7928460   2.7928460   2.7928460   2.7928460   2.7928460

  Atom        31          32          33          34          35          36          37          38          39          40
 IAtWgt=           1           1           1           1           1           1           1           1           1           1
 AtmWgt=   1.0078250   1.0078250   1.0078250   1.0078250   1.0078250   1.0078250   1.0078250   1.0078250   1.0078250   1.0078250
 NucSpn=           1           1           1           1           1           1           1           1           1           1
 AtZEff=   0.0000000   0.0000000   0.0000000   0.0000000   0.0000000   0.0000000   0.0000000   0.0000000   0.0000000   0.0000000
 NQMom=    0.0000000   0.0000000   0.0000000   0.0000000   0.0000000   0.0000000   0.0000000   0.0000000   0.0000000   0.0000000
 NMagM=    2.7928460   2.7928460   2.7928460   2.7928460   2.7928460   2.7928460   2.7928460   2.7928460   2.7928460   2.7928460

  Atom        41
 IAtWgt=           1
 AtmWgt=   1.0078250
 NucSpn=           1
 AtZEff=   0.0000000
 NQMom=    0.0000000
 NMagM=    2.7928460
 Leave Link  101 at Fri Aug 26 14:42:12 2022, MaxMem=  209715200 cpu:       0.7
 (Enter /opt/gaussian/l103.exe)

 GradGradGradGradGradGradGradGradGradGradGradGradGradGradGradGradGradGrad
 Berny optimization.
 Initialization pass.
                           ----------------------------
                           !    Initial Parameters    !
                           ! (Angstroms and Degrees)  !
 --------------------------                            --------------------------
 ! Name  Definition              Value          Derivative Info.                !
 --------------------------------------------------------------------------------
 ! R1    R(1,2)                  1.2476         estimate D2E/DX2                !
 ! R2    R(2,3)                  1.5406         estimate D2E/DX2                !
 ! R3    R(2,13)                 1.3825         estimate D2E/DX2                !
 ! R4    R(3,4)                  1.438          estimate D2E/DX2                !
 ! R5    R(3,26)                 1.1298         estimate D2E/DX2                !
 ! R6    R(3,27)                 1.1272         estimate D2E/DX2                !
 ! R7    R(4,5)                  1.3665         estimate D2E/DX2                !
 ! R8    R(4,12)                 1.4119         estimate D2E/DX2                !
 ! R9    R(5,6)                  1.259          estimate D2E/DX2                !
 ! R10   R(6,7)                  1.4286         estimate D2E/DX2                !
 ! R11   R(7,8)                  1.3972         estimate D2E/DX2                !
 ! R12   R(7,12)                 1.448          estimate D2E/DX2                !
 ! R13   R(8,9)                  1.3886         estimate D2E/DX2                !
 ! R14   R(8,28)                 1.0991         estimate D2E/DX2                !
 ! R15   R(9,10)                 1.4076         estimate D2E/DX2                !
 ! R16   R(9,29)                 1.1008         estimate D2E/DX2                !
 ! R17   R(10,11)                1.3884         estimate D2E/DX2                !
 ! R18   R(10,30)                1.1014         estimate D2E/DX2                !
 ! R19   R(11,12)                1.3985         estimate D2E/DX2                !
 ! R20   R(11,31)                1.1006         estimate D2E/DX2                !
 ! R21   R(13,14)                1.4539         estimate D2E/DX2                !
 ! R22   R(13,20)                1.4234         estimate D2E/DX2                !
 ! R23   R(14,15)                1.488          estimate D2E/DX2                !
 ! R24   R(14,32)                1.1307         estimate D2E/DX2                !
 ! R25   R(14,33)                1.1282         estimate D2E/DX2                !
 ! R26   R(15,16)                1.4338         estimate D2E/DX2                !
 ! R27   R(15,19)                1.3813         estimate D2E/DX2                !
 ! R28   R(16,17)                1.3764         estimate D2E/DX2                !
 ! R29   R(16,34)                1.0916         estimate D2E/DX2                !
 ! R30   R(17,18)                1.6729         estimate D2E/DX2                !
 ! R31   R(17,35)                1.0881         estimate D2E/DX2                !
 ! R32   R(18,19)                1.6663         estimate D2E/DX2                !
 ! R33   R(19,36)                1.0924         estimate D2E/DX2                !
 ! R34   R(20,21)                1.4106         estimate D2E/DX2                !
 ! R35   R(20,25)                1.4103         estimate D2E/DX2                !
 ! R36   R(21,22)                1.3924         estimate D2E/DX2                !
 ! R37   R(21,37)                1.1011         estimate D2E/DX2                !
 ! R38   R(22,23)                1.3938         estimate D2E/DX2                !
 ! R39   R(22,38)                1.1007         estimate D2E/DX2                !
 ! R40   R(23,24)                1.3939         estimate D2E/DX2                !
 ! R41   R(23,39)                1.0997         estimate D2E/DX2                !
 ! R42   R(24,25)                1.3924         estimate D2E/DX2                !
 ! R43   R(24,40)                1.1003         estimate D2E/DX2                !
 ! R44   R(25,41)                1.1008         estimate D2E/DX2                !
 ! A1    A(1,2,3)              118.6867         estimate D2E/DX2                !
 ! A2    A(1,2,13)             121.4398         estimate D2E/DX2                !
 ! A3    A(3,2,13)             119.8484         estimate D2E/DX2                !
 ! A4    A(2,3,4)              112.9619         estimate D2E/DX2                !
 ! A5    A(2,3,26)             106.3293         estimate D2E/DX2                !
 ! A6    A(2,3,27)             110.0093         estimate D2E/DX2                !
 ! A7    A(4,3,26)             108.2724         estimate D2E/DX2                !
 ! A8    A(4,3,27)             109.9611         estimate D2E/DX2                !
 ! A9    A(26,3,27)            109.1734         estimate D2E/DX2                !
 ! A10   A(3,4,5)              125.5699         estimate D2E/DX2                !
 ! A11   A(3,4,12)             125.6137         estimate D2E/DX2                !
 ! A12   A(5,4,12)             108.8148         estimate D2E/DX2                !
 ! A13   A(4,5,6)              111.9924         estimate D2E/DX2                !
 ! A14   A(5,6,7)              109.4376         estimate D2E/DX2                !
 ! A15   A(6,7,8)              133.6054         estimate D2E/DX2                !
 ! A16   A(6,7,12)             106.1444         estimate D2E/DX2                !
 ! A17   A(8,7,12)             120.2502         estimate D2E/DX2                !
 ! A18   A(7,8,9)              117.4566         estimate D2E/DX2                !
 ! A19   A(7,8,28)             120.8104         estimate D2E/DX2                !
 ! A20   A(9,8,28)             121.7329         estimate D2E/DX2                !
 ! A21   A(8,9,10)             121.9539         estimate D2E/DX2                !
 ! A22   A(8,9,29)             119.3173         estimate D2E/DX2                !
 ! A23   A(10,9,29)            118.7286         estimate D2E/DX2                !
 ! A24   A(9,10,11)            122.1702         estimate D2E/DX2                !
 ! A25   A(9,10,30)            118.818          estimate D2E/DX2                !
 ! A26   A(11,10,30)           119.0116         estimate D2E/DX2                !
 ! A27   A(10,11,12)           116.7085         estimate D2E/DX2                !
 ! A28   A(10,11,31)           122.2076         estimate D2E/DX2                !
 ! A29   A(12,11,31)           121.0761         estimate D2E/DX2                !
 ! A30   A(4,12,7)             103.6061         estimate D2E/DX2                !
 ! A31   A(4,12,11)            134.9353         estimate D2E/DX2                !
 ! A32   A(7,12,11)            121.4583         estimate D2E/DX2                !
 ! A33   A(2,13,14)            119.9992         estimate D2E/DX2                !
 ! A34   A(2,13,20)            122.2509         estimate D2E/DX2                !
 ! A35   A(14,13,20)           117.0621         estimate D2E/DX2                !
 ! A36   A(13,14,15)           115.3081         estimate D2E/DX2                !
 ! A37   A(13,14,32)           107.3302         estimate D2E/DX2                !
 ! A38   A(13,14,33)           107.5109         estimate D2E/DX2                !
 ! A39   A(15,14,32)           108.4556         estimate D2E/DX2                !
 ! A40   A(15,14,33)           109.3318         estimate D2E/DX2                !
 ! A41   A(32,14,33)           108.7337         estimate D2E/DX2                !
 ! A42   A(14,15,16)           123.6738         estimate D2E/DX2                !
 ! A43   A(14,15,19)           124.8658         estimate D2E/DX2                !
 ! A44   A(16,15,19)           111.4376         estimate D2E/DX2                !
 ! A45   A(15,16,17)           111.4123         estimate D2E/DX2                !
 ! A46   A(15,16,34)           123.1667         estimate D2E/DX2                !
 ! A47   A(17,16,34)           125.4208         estimate D2E/DX2                !
 ! A48   A(16,17,18)           111.6079         estimate D2E/DX2                !
 ! A49   A(16,17,35)           125.4891         estimate D2E/DX2                !
 ! A50   A(18,17,35)           122.903          estimate D2E/DX2                !
 ! A51   A(17,18,19)            93.9484         estimate D2E/DX2                !
 ! A52   A(15,19,18)           111.5933         estimate D2E/DX2                !
 ! A53   A(15,19,36)           124.3063         estimate D2E/DX2                !
 ! A54   A(18,19,36)           124.1004         estimate D2E/DX2                !
 ! A55   A(13,20,21)           119.6397         estimate D2E/DX2                !
 ! A56   A(13,20,25)           121.3034         estimate D2E/DX2                !
 ! A57   A(21,20,25)           119.0344         estimate D2E/DX2                !
 ! A58   A(20,21,22)           120.0696         estimate D2E/DX2                !
 ! A59   A(20,21,37)           120.2948         estimate D2E/DX2                !
 ! A60   A(22,21,37)           119.635          estimate D2E/DX2                !
 ! A61   A(21,22,23)           120.5348         estimate D2E/DX2                !
 ! A62   A(21,22,38)           119.447          estimate D2E/DX2                !
 ! A63   A(23,22,38)           120.0166         estimate D2E/DX2                !
 ! A64   A(22,23,24)           119.7515         estimate D2E/DX2                !
 ! A65   A(22,23,39)           120.1549         estimate D2E/DX2                !
 ! A66   A(24,23,39)           120.0936         estimate D2E/DX2                !
 ! A67   A(23,24,25)           120.5295         estimate D2E/DX2                !
 ! A68   A(23,24,40)           119.9673         estimate D2E/DX2                !
 ! A69   A(25,24,40)           119.5029         estimate D2E/DX2                !
 ! A70   A(20,25,24)           120.0795         estimate D2E/DX2                !
 ! A71   A(20,25,41)           120.4193         estimate D2E/DX2                !
 ! A72   A(24,25,41)           119.4992         estimate D2E/DX2                !
 ! D1    D(1,2,3,4)           -101.3097         estimate D2E/DX2                !
 ! D2    D(1,2,3,26)            17.3077         estimate D2E/DX2                !
 ! D3    D(1,2,3,27)           135.401          estimate D2E/DX2                !
 ! D4    D(13,2,3,4)            76.8945         estimate D2E/DX2                !
 ! D5    D(13,2,3,26)         -164.488          estimate D2E/DX2                !
 ! D6    D(13,2,3,27)          -46.3948         estimate D2E/DX2                !
 ! D7    D(1,2,13,14)            0.0759         estimate D2E/DX2                !
 ! D8    D(1,2,13,20)         -170.1379         estimate D2E/DX2                !
 ! D9    D(3,2,13,14)         -178.0777         estimate D2E/DX2                !
 ! D10   D(3,2,13,20)           11.7085         estimate D2E/DX2                !
 ! D11   D(2,3,4,5)           -117.5455         estimate D2E/DX2                !
 ! D12   D(2,3,4,12)            61.9316         estimate D2E/DX2                !
 ! D13   D(26,3,4,5)           124.973          estimate D2E/DX2                !
 ! D14   D(26,3,4,12)          -55.5499         estimate D2E/DX2                !
 ! D15   D(27,3,4,5)             5.7705         estimate D2E/DX2                !
 ! D16   D(27,3,4,12)         -174.7524         estimate D2E/DX2                !
 ! D17   D(3,4,5,6)           -179.7066         estimate D2E/DX2                !
 ! D18   D(12,4,5,6)             0.7426         estimate D2E/DX2                !
 ! D19   D(3,4,12,7)           179.8433         estimate D2E/DX2                !
 ! D20   D(3,4,12,11)           -0.3434         estimate D2E/DX2                !
 ! D21   D(5,4,12,7)            -0.6061         estimate D2E/DX2                !
 ! D22   D(5,4,12,11)          179.2073         estimate D2E/DX2                !
 ! D23   D(4,5,6,7)             -0.5314         estimate D2E/DX2                !
 ! D24   D(5,6,7,8)           -179.9618         estimate D2E/DX2                !
 ! D25   D(5,6,7,12)             0.1231         estimate D2E/DX2                !
 ! D26   D(6,7,8,9)            179.949          estimate D2E/DX2                !
 ! D27   D(6,7,8,28)             0.0532         estimate D2E/DX2                !
 ! D28   D(12,7,8,9)            -0.1454         estimate D2E/DX2                !
 ! D29   D(12,7,8,28)          179.9587         estimate D2E/DX2                !
 ! D30   D(6,7,12,4)             0.303          estimate D2E/DX2                !
 ! D31   D(6,7,12,11)         -179.5421         estimate D2E/DX2                !
 ! D32   D(8,7,12,4)          -179.6258         estimate D2E/DX2                !
 ! D33   D(8,7,12,11)            0.5291         estimate D2E/DX2                !
 ! D34   D(7,8,9,10)            -0.2125         estimate D2E/DX2                !
 ! D35   D(7,8,9,29)           179.9592         estimate D2E/DX2                !
 ! D36   D(28,8,9,10)          179.6824         estimate D2E/DX2                !
 ! D37   D(28,8,9,29)           -0.146          estimate D2E/DX2                !
 ! D38   D(8,9,10,11)            0.2118         estimate D2E/DX2                !
 ! D39   D(8,9,10,30)         -179.5932         estimate D2E/DX2                !
 ! D40   D(29,9,10,11)        -179.9588         estimate D2E/DX2                !
 ! D41   D(29,9,10,30)           0.2361         estimate D2E/DX2                !
 ! D42   D(9,10,11,12)           0.1624         estimate D2E/DX2                !
 ! D43   D(9,10,11,31)        -178.8255         estimate D2E/DX2                !
 ! D44   D(30,10,11,12)        179.9671         estimate D2E/DX2                !
 ! D45   D(30,10,11,31)          0.9792         estimate D2E/DX2                !
 ! D46   D(10,11,12,4)         179.6917         estimate D2E/DX2                !
 ! D47   D(10,11,12,7)          -0.521          estimate D2E/DX2                !
 ! D48   D(31,11,12,4)          -1.3082         estimate D2E/DX2                !
 ! D49   D(31,11,12,7)         178.4792         estimate D2E/DX2                !
 ! D50   D(2,13,14,15)         -85.1698         estimate D2E/DX2                !
 ! D51   D(2,13,14,32)          35.7868         estimate D2E/DX2                !
 ! D52   D(2,13,14,33)         152.6102         estimate D2E/DX2                !
 ! D53   D(20,13,14,15)         85.5406         estimate D2E/DX2                !
 ! D54   D(20,13,14,32)       -153.5028         estimate D2E/DX2                !
 ! D55   D(20,13,14,33)        -36.6793         estimate D2E/DX2                !
 ! D56   D(2,13,20,21)        -115.8646         estimate D2E/DX2                !
 ! D57   D(2,13,20,25)          65.8802         estimate D2E/DX2                !
 ! D58   D(14,13,20,21)         73.6501         estimate D2E/DX2                !
 ! D59   D(14,13,20,25)       -104.6051         estimate D2E/DX2                !
 ! D60   D(13,14,15,16)       -109.6039         estimate D2E/DX2                !
 ! D61   D(13,14,15,19)         72.281          estimate D2E/DX2                !
 ! D62   D(32,14,15,16)        130.0527         estimate D2E/DX2                !
 ! D63   D(32,14,15,19)        -48.0624         estimate D2E/DX2                !
 ! D64   D(33,14,15,16)         11.6352         estimate D2E/DX2                !
 ! D65   D(33,14,15,19)       -166.48           estimate D2E/DX2                !
 ! D66   D(14,15,16,17)       -178.0903         estimate D2E/DX2                !
 ! D67   D(14,15,16,34)          2.0755         estimate D2E/DX2                !
 ! D68   D(19,15,16,17)          0.2483         estimate D2E/DX2                !
 ! D69   D(19,15,16,34)       -179.5859         estimate D2E/DX2                !
 ! D70   D(14,15,19,18)        178.1453         estimate D2E/DX2                !
 ! D71   D(14,15,19,36)         -1.7799         estimate D2E/DX2                !
 ! D72   D(16,15,19,18)         -0.1696         estimate D2E/DX2                !
 ! D73   D(16,15,19,36)        179.9052         estimate D2E/DX2                !
 ! D74   D(15,16,17,18)         -0.2179         estimate D2E/DX2                !
 ! D75   D(15,16,17,35)        179.7421         estimate D2E/DX2                !
 ! D76   D(34,16,17,18)        179.6118         estimate D2E/DX2                !
 ! D77   D(34,16,17,35)         -0.4283         estimate D2E/DX2                !
 ! D78   D(16,17,18,19)          0.106          estimate D2E/DX2                !
 ! D79   D(35,17,18,19)       -179.8551         estimate D2E/DX2                !
 ! D80   D(17,18,19,15)          0.0401         estimate D2E/DX2                !
 ! D81   D(17,18,19,36)        179.9654         estimate D2E/DX2                !
 ! D82   D(13,20,21,22)       -178.5421         estimate D2E/DX2                !
 ! D83   D(13,20,21,37)          1.7497         estimate D2E/DX2                !
 ! D84   D(25,20,21,22)         -0.2472         estimate D2E/DX2                !
 ! D85   D(25,20,21,37)       -179.9554         estimate D2E/DX2                !
 ! D86   D(13,20,25,24)        178.4995         estimate D2E/DX2                !
 ! D87   D(13,20,25,41)         -0.9737         estimate D2E/DX2                !
 ! D88   D(21,20,25,24)          0.234          estimate D2E/DX2                !
 ! D89   D(21,20,25,41)       -179.2392         estimate D2E/DX2                !
 ! D90   D(20,21,22,23)          0.2368         estimate D2E/DX2                !
 ! D91   D(20,21,22,38)       -179.3009         estimate D2E/DX2                !
 ! D92   D(37,21,22,23)        179.947          estimate D2E/DX2                !
 ! D93   D(37,21,22,38)          0.4092         estimate D2E/DX2                !
 ! D94   D(21,22,23,24)         -0.2089         estimate D2E/DX2                !
 ! D95   D(21,22,23,39)        179.8154         estimate D2E/DX2                !
 ! D96   D(38,22,23,24)        179.3262         estimate D2E/DX2                !
 ! D97   D(38,22,23,39)         -0.6494         estimate D2E/DX2                !
 ! D98   D(22,23,24,25)          0.1955         estimate D2E/DX2                !
 ! D99   D(22,23,24,40)        179.982          estimate D2E/DX2                !
 ! D100  D(39,23,24,25)       -179.8288         estimate D2E/DX2                !
 ! D101  D(39,23,24,40)         -0.0423         estimate D2E/DX2                !
 ! D102  D(23,24,25,20)         -0.2102         estimate D2E/DX2                !
 ! D103  D(23,24,25,41)        179.2678         estimate D2E/DX2                !
 ! D104  D(40,24,25,20)       -179.9977         estimate D2E/DX2                !
 ! D105  D(40,24,25,41)         -0.5197         estimate D2E/DX2                !
 --------------------------------------------------------------------------------
 Trust Radius=3.00D-01 FncErr=1.00D-07 GrdErr=1.00D-07
 Number of steps in this run=    231 maximum allowed number of steps=    246.
 GradGradGradGradGradGradGradGradGradGradGradGradGradGradGradGradGradGrad

 Leave Link  103 at Fri Aug 26 14:42:12 2022, MaxMem=  209715200 cpu:       0.1
 (Enter /opt/gaussian/l202.exe)
                          Input orientation:                          
 ---------------------------------------------------------------------
 Center     Atomic      Atomic             Coordinates (Angstroms)
 Number     Number       Type             X           Y           Z
 ---------------------------------------------------------------------
      1          8           0       21.918300   -8.945900   -2.483900
      2          6           0       20.803100   -8.707400   -1.978100
      3          6           0       20.029700   -7.460300   -2.447300
      4          7           0       20.126700   -6.360500   -1.526000
      5          7           0       19.081000   -5.789500   -0.856900
      6          7           0       19.455100   -4.839800   -0.119800
      7          6           0       20.871500   -4.685900   -0.224900
      8          6           0       21.791800   -3.811700    0.359100
      9          6           0       23.127800   -3.962800    0.011800
     10          6           0       23.555600   -4.956300   -0.888900
     11          6           0       22.669900   -5.842000   -1.487900
     12          6           0       21.318700   -5.700300   -1.156400
     13          7           0       20.273000   -9.513700   -0.988000
     14          6           0       21.019100  -10.667800   -0.513300
     15          6           0       20.844100  -11.910900   -1.312200
     16          6           0       20.131100  -13.063200   -0.843700
     17          6           0       20.160700  -14.082600   -1.768100
     18         16           0       21.012900  -13.645800   -3.139800
     19          6           0       21.370900  -12.120800   -2.571700
     20          6           0       18.926900   -9.385200   -0.543400
     21          6           0       18.665800   -8.994300    0.786600
     22          6           0       17.352900   -8.895200    1.239700
     23          6           0       16.286700   -9.184500    0.389800
     24          6           0       16.536200   -9.572000   -0.925700
     25          6           0       17.842400   -9.676400   -1.396700
     26          1           0       20.498600   -7.145200   -3.425700
     27          1           0       18.947200   -7.721100   -2.622600
     28          1           0       21.462400   -3.037900    1.066800
     29          1           0       23.878900   -3.290000    0.453300
     30          1           0       24.629100   -5.034300   -1.122700
     31          1           0       23.005900   -6.631100   -2.177600
     32          1           0       22.114500  -10.387700   -0.522400
     33          1           0       20.703400  -10.861200    0.552400
     34          1           0       19.632600  -13.103300    0.126600
     35          1           0       19.696900  -15.059400   -1.646400
     36          1           0       21.951400  -11.380900   -3.127400
     37          1           0       19.496800   -8.761400    1.470400
     38          1           0       17.160600   -8.578100    2.276000
     39          1           0       15.252300   -9.107100    0.755100
     40          1           0       15.697200   -9.801500   -1.599600
     41          1           0       18.020300   -9.995600   -2.435100
 ---------------------------------------------------------------------
                    Distance matrix (angstroms):
                    1          2          3          4          5
     1  O    0.000000
     2  C    1.247552   0.000000
     3  C    2.403156   1.540634   0.000000
     4  N    3.288114   2.483918   1.437972   0.000000
     5  N    4.545356   3.568874   2.494189   1.366464   0.000000
     6  N    5.340073   4.497634   3.551682   2.177378   1.259046
     7  C    4.934214   4.387579   3.653079   2.247637   2.196189
     8  C    5.870150   5.514337   4.928809   3.580858   3.569144
     9  C    5.702867   5.645809   5.279953   4.137680   4.524164
    10  C    4.598009   4.778427   4.596803   3.759658   4.551625
    11  C    3.345312   3.454816   3.241913   2.595797   3.644327
    12  C    3.557484   3.159697   2.534866   1.411854   2.259415
    13  N    2.295022   1.382542   2.530850   3.202111   3.912508
    14  C    2.767086   2.456718   3.873929   4.513842   5.260428
    15  C    3.364225   3.272234   4.664712   5.600653   6.386498
    16  C    4.778755   4.550982   5.828748   6.737339   7.349122
    17  C    5.476058   5.417523   6.658328   7.725969   8.412583
    18  S    4.831047   5.077535   6.301321   7.514339   8.406267
    19  C    3.222941   3.510849   4.851242   5.985197   6.947628
    20  C    3.592631   2.457215   2.923396   3.399093   3.612629
    21  C    4.612729   3.506270   3.830338   3.797269   3.625497
    22  C    5.891574   4.721587   4.776836   4.665594   4.126431
    23  C    6.326927   5.121762   5.003204   5.137204   4.570383
    24  C    5.637995   4.479008   4.356499   4.854460   4.559391
    25  C    4.281191   3.169027   3.286205   4.028640   4.115034
    26  H    2.478922   2.151449   1.129788   2.088761   3.232065
    27  H    3.216645   2.198302   1.127188   2.108313   2.620435
    28  H    6.907950   6.469105   5.827448   4.421128   4.116186
    29  H    6.667856   6.687337   6.373478   5.236851   5.566325
    30  H    4.949941   5.372304   5.366053   4.710951   5.605568
    31  H    2.575848   3.033669   3.101302   2.964389   4.225799
    32  H    2.442287   2.581132   4.076923   4.601837   5.518827
    33  H    3.789917   3.324489   4.584560   4.990855   5.508217
    34  H    5.415082   5.012362   6.214990   6.959926   7.400217
    35  H    6.558270   6.456129   7.648432   8.710344   9.323824
    36  H    2.518812   3.128432   4.418888   5.576596   6.682673
    37  H    4.640495   3.688020   4.162357   3.890952   3.797552
    38  H    6.740003   5.601954   5.638331   5.307608   4.612948
    39  H    7.413006   6.200123   5.982547   6.042103   5.316386
    40  H    6.341618   5.235507   4.997036   5.609489   5.300740
    41  H    4.037159   3.100368   3.235055   4.298527   4.615959
                    6          7          8          9         10
     6  N    0.000000
     7  C    1.428608   0.000000
     8  C    2.597403   1.397224   0.000000
     9  C    3.778250   2.381132   1.388648   0.000000
    10  C    4.173630   2.778202   2.445118   1.407592   0.000000
    11  C    3.634700   2.483139   2.881768   2.447481   1.388427
    12  C    2.299566   1.447994   2.467260   2.767027   2.372512
    13  N    4.823699   4.924244   6.052622   6.321548   5.617400
    14  C    6.047026   5.990667   6.954441   7.048359   6.260682
    15  C    7.304218   7.306408   8.323967   8.374996   7.476488
    16  C    8.282833   8.432690   9.476017   9.619219   8.800629
    17  C    9.415100   9.549067  10.614935  10.694956   9.776896
    18  S    9.438897   9.423187  10.467020  10.400282   9.329485
    19  C    7.918021   7.812465   8.820878   8.735796   7.676900
    20  C    4.595551   5.095717   6.331355   6.881732   6.415558
    21  C    4.324861   4.944750   6.067452   6.769472   6.559184
    22  C    4.765895   5.678363   6.805973   7.693229   7.649795
    23  C    5.401377   6.452569   7.692467   8.614504   8.505860
    24  C    5.618111   6.569621   7.902727   8.705815   8.401072
    25  C    5.255851   5.954297   7.285280   7.909776   7.428180
    26  H    4.163260   4.053681   5.206659   5.371850   4.535624
    27  H    3.850177   4.320224   5.680290   6.208244   5.646874
    28  H    2.946882   2.175674   1.099141   2.177618   3.447681
    29  H    4.722323   3.384220   2.153377   1.100788   2.163927
    30  H    5.273890   3.879044   3.426478   2.165434   1.101430
    31  H    4.477888   3.486044   3.982198   3.453716   2.183546
    32  H    6.165524   5.843293   6.642662   6.526215   5.631270
    33  H    6.186062   6.226298   7.135645   7.331977   6.714182
    34  H    8.269078   8.515342   9.542014   9.786641   9.099164
    35  H   10.335821  10.536121  11.615567  11.732657  10.841402
    36  H    7.619919   7.376565   8.335103   8.140436   6.989980
    37  H    4.231952   4.623153   5.567903   6.191788   6.043090
    38  H    4.997947   5.930809   6.916725   7.876235   8.001878
    39  H    6.053001   7.216843   8.423962   9.436091   9.427442
    40  H    6.397663   7.404900   8.766890   9.586493   9.259347
    41  H    5.831084   6.419287   7.763529   8.274573   7.643613
                   11         12         13         14         15
    11  C    0.000000
    12  C    1.398468   0.000000
    13  N    4.413209   3.957760   0.000000
    14  C    5.192623   5.017907   1.453944   0.000000
    15  C    6.340029   6.230656   2.485524   1.488007   0.000000
    16  C    7.681551   7.464615   3.555265   2.575975   1.433756
    17  C    8.618706   8.483990   4.636379   3.737945   2.321887
    18  S    8.147007   8.195020   4.717197   3.970771   2.525568
    19  C    6.502719   6.574847   3.241984   2.544009   1.381274
    20  C    5.239885   4.435647   1.423435   2.454235   3.262801
    21  C    5.580606   4.654413   2.449913   3.166759   4.201965
    22  C    6.710613   5.628166   3.724537   4.433525   5.272108
    23  C    7.446026   6.312797   4.230519   5.040970   5.576733
    24  C    7.200781   6.157564   3.737774   4.633276   4.917096
    25  C    6.165687   5.286944   2.470086   3.443064   3.743038
    26  H    3.188721   2.812476   3.406328   4.600185   5.224763
    27  H    4.321696   3.443456   2.764612   4.174321   4.782238
    28  H    3.980895   3.471547   6.897308   7.804397   9.207175
    29  H    3.426754   3.867209   7.335823   7.971493   9.308433
    30  H    2.150399   3.376898   6.249702   6.718615   7.851736
    31  H    1.100573   2.180798   4.146477   4.797105   5.770493
    32  H    4.680176   4.796558   2.090881   1.130681   2.134909
    33  H    5.763880   5.471150   2.091371   1.128178   2.144388
    34  H    8.034817   7.700223   3.812830   2.874633   2.227037
    35  H    9.686295   9.511209   5.614283   4.724223   3.367612
    36  H    5.820963   6.046021   3.298559   2.865522   2.191338
    37  H    5.229053   4.426029   2.685549   3.144332   4.413324
    38  H    7.211489   6.111702   4.606091   5.199525   6.127880
    39  H    8.409085   7.215354   5.330211   6.107422   6.588114
    40  H    8.019268   6.972627   4.625454   5.500286   5.569807
    41  H    6.306216   5.564541   2.720475   3.624634   3.592092
                   16         17         18         19         20
    16  C    0.000000
    17  C    1.376433   0.000000
    18  S    2.527661   1.672902   0.000000
    19  C    2.326200   2.441110   1.666291   0.000000
    20  C    3.881747   5.008764   5.407902   4.191735   0.000000
    21  C    4.621789   5.886596   6.523952   5.326420   1.410630
    22  C    5.425051   6.621157   7.425889   6.409024   2.428378
    23  C    5.598683   6.607253   7.395826   6.575822   2.807454
    24  C    5.011837   5.847405   6.445070   5.707891   2.428270
    25  C    4.124848   4.992700   5.370903   4.450396   1.410340
    26  H    6.467187   7.140682   6.527177   5.123165   3.974355
    27  H    5.753619   6.532338   6.295767   5.023373   2.663215
    28  H   10.292182  11.476780  11.420380   9.784995   7.022088
    29  H   10.547211  11.629267  11.329912   9.665595   7.916260
    30  H    9.207230  10.112115   9.555288   7.933092   7.195902
    31  H    7.170472   7.986721   7.355535   5.741546   5.185935
    32  H    3.345954   4.361352   4.321981   2.784997   3.341593
    33  H    2.669349   4.007076   4.634882   3.433970   2.556424
    34  H    1.091601   2.197227   3.587325   3.356757   3.843329
    35  H    2.194919   1.088145   2.441386   3.506255   5.831471
    36  H    3.370298   3.514753   2.451675   1.092353   4.450559
    37  H    4.925736   6.264488   6.885482   5.579999   2.183873
    38  H    6.218723   7.460219   8.357792   7.333317   3.423484
    39  H    6.481480   7.430648   8.303888   7.588626   3.907189
    40  H    5.556036   6.187006   6.738511   6.206046   3.423423
    41  H    4.049469   4.661520   4.772443   3.970095   2.184729
                   21         22         23         24         25
    21  C    0.000000
    22  C    1.392418   0.000000
    23  C    2.419451   1.393846   0.000000
    24  C    2.793010   2.411227   1.393896   0.000000
    25  C    2.431059   2.792935   2.419452   1.392443   0.000000
    26  H    4.951949   5.892698   6.037954   5.276360   4.192757
    27  H    3.650051   4.340238   4.277190   3.481124   2.558635
    28  H    6.586212   7.157223   8.063925   8.422112   7.952541
    29  H    7.734762   8.638598   9.612006   9.761168   8.980420
    30  H    7.408642   8.569164   9.439674   9.280332   8.226996
    31  H    5.762609   6.982872   7.632761   7.216174   6.045278
    32  H    3.943168   5.292012   6.020220   5.652030   4.418279
    33  H    2.773442   3.945046   4.727050   4.605689   3.658970
    34  H    4.272491   4.913668   5.159585   4.813014   4.155587
    35  H    6.615746   7.198699   7.091546   6.373460   5.698966
    36  H    5.640073   6.811495   7.020235   6.119150   4.773314
    37  H    1.101084   2.160424   3.413422   3.894036   3.434316
    38  H    2.158046   1.100659   2.165450   3.410073   3.893564
    39  H    3.415509   2.166162   1.099736   2.165553   3.415108
    40  H    3.893342   3.409450   2.164697   1.100333   2.158403
    41  H    3.434912   3.893643   3.412230   2.158768   1.100823
                   26         27         28         29         30
    26  H    0.000000
    27  H    1.839422   0.000000
    28  H    6.162904   6.470724   0.000000
    29  H    6.429280   7.308726   2.505875   0.000000
    30  H    5.178874   6.461624   4.336763   2.467622   0.000000
    31  H    2.847561   4.226011   5.081300   4.341280   2.509455
    32  H    4.642638   4.642562   7.547871   7.378512   5.944953
    33  H    5.447557   4.798447   7.876847   8.210767   7.222870
    34  H    6.990547   6.082430  10.273481  10.697600   9.572592
    35  H    8.151269   7.440811  12.449695  12.665569  11.184967
    36  H    4.487846   4.761741   9.350726   9.055348   7.174136
    37  H    5.252380   4.258748   6.065058   7.083326   6.852441
    38  H    6.760535   5.284191   7.117687   8.741956   8.938018
    39  H    6.989407   5.194433   8.688941  10.409033  10.394143
    40  H    5.783080   3.992129   9.278659  10.656183  10.135703
    41  H    3.904874   2.463260   8.515923   9.361149   8.367385
                   31         32         33         34         35
    31  H    0.000000
    32  H    4.200753   0.000000
    33  H    5.536077   1.835920   0.000000
    34  H    7.653618   3.735708   2.520899   0.000000
    35  H    9.070165   5.378935   4.844858   2.640831   0.000000
    36  H    4.957287   2.792682   3.920270   4.351093   4.561523
    37  H    5.491800   3.669940   2.589936   4.547124   7.029885
    38  H    7.602164   5.970496   4.553545   5.586425   7.989073
    39  H    8.651567   7.096600   5.729960   5.962521   7.807147
    40  H    7.987654   6.533432   5.551226   5.419319   6.606459
    41  H    6.020164   4.535927   4.107730   4.338158   5.392134
                   36         37         38         39         40
    36  H    0.000000
    37  H    5.833233   0.000000
    38  H    7.746237   2.477987   0.000000
    39  H    8.069815   4.318211   2.496915   0.000000
    40  H    6.629004   4.994364   4.319551   2.494943   0.000000
    41  H    4.225149   4.353876   4.994282   4.316090   2.476394
                   41
    41  H    0.000000
 Stoichiometry    C19H16N4OS
 Framework group  C1[X(C19H16N4OS)]
 Deg. of freedom   117
 Full point group                 C1      NOp   1
 Largest Abelian subgroup         C1      NOp   1
 Largest concise Abelian subgroup C1      NOp   1
                         Standard orientation:                         
 ---------------------------------------------------------------------
 Center     Atomic      Atomic             Coordinates (Angstroms)
 Number     Number       Type             X           Y           Z
 ---------------------------------------------------------------------
      1          8           0       -0.164817   -2.082332   -0.629754
      2          6           0       -0.029362   -0.842192   -0.620126
      3          6           0        0.970637   -0.199853   -1.600411
      4          7           0        2.215531    0.159373   -0.976746
      5          7           0        2.713806    1.427171   -0.868885
      6          7           0        3.826628    1.447917   -0.280331
      7          6           0        4.192103    0.118132    0.092523
      8          6           0        5.295260   -0.428759    0.752968
      9          6           0        5.308969   -1.803865    0.945943
     10          6           0        4.257749   -2.628734    0.503400
     11          6           0        3.146531   -2.120416   -0.155794
     12          6           0        3.118413   -0.738182   -0.366393
     13          7           0       -0.726107   -0.047561    0.271238
     14          6           0       -1.639406   -0.654493    1.225948
     15          6           0       -3.014833   -0.907853    0.717843
     16          6           0       -4.169080   -0.174482    1.148583
     17          6           0       -5.315527   -0.644295    0.548997
     18         16           0       -4.990929   -1.913470   -0.491402
     19          6           0       -3.352070   -1.891753   -0.191074
     20          6           0       -0.746367    1.371985    0.168054
     21          6           0       -0.177117    2.154261    1.194638
     22          6           0       -0.218922    3.543914    1.117552
     23          6           0       -0.825203    4.175066    0.032712
     24          6           0       -1.390533    3.409297   -0.985594
     25          6           0       -1.358118    2.018510   -0.925941
     26          1           0        1.182592   -0.976962   -2.392622
     27          1           0        0.507558    0.706279   -2.085216
     28          1           0        6.115728    0.212565    1.104602
     29          1           0        6.163675   -2.267199    1.462211
     30          1           0        4.318829   -3.712559    0.689791
     31          1           0        2.315463   -2.762290   -0.485316
     32          1           0       -1.187781   -1.641174    1.543651
     33          1           0       -1.692582    0.025694    2.124449
     34          1           0       -4.120471    0.650987    1.861206
     35          1           0       -6.318973   -0.257119    0.714070
     36          1           0       -2.635280   -2.572808   -0.655412
     37          1           0        0.306368    1.671153    2.057908
     38          1           0        0.238619    4.144293    1.918583
     39          1           0       -0.857342    5.273052   -0.020324
     40          1           0       -1.870308    3.903843   -1.843482
     41          1           0       -1.820449    1.430394   -1.733518
 ---------------------------------------------------------------------
 Rotational constants (GHZ):      0.3442775      0.1318983      0.1047126
 Leave Link  202 at Fri Aug 26 14:42:12 2022, MaxMem=  209715200 cpu:       0.0
 (Enter /opt/gaussian/l301.exe)
 Standard basis: 6-31G (6D, 7F)
 Ernie: Thresh=  0.10000D-02 Tol=  0.10000D-05 Strict=F.
 There are   261 symmetry adapted basis functions of A   symmetry.
 Integral buffers will be    131072 words long.
 Raffenetti 1 integral format.
 Two-electron integral symmetry is turned on.
   261 basis functions,   638 primitive gaussians,   261 cartesian basis functions
    91 alpha electrons       91 beta electrons
       nuclear repulsion energy      2209.8474054172 Hartrees.



 Warning!  S  atom   18 may be hypervalent but has no d functions.



 IExCor=    0 DFT=F Ex=HF Corr=None ExCW=0 ScaHFX=  1.000000
 ScaDFX=  1.000000  1.000000  1.000000  1.000000 ScalE2=  1.000000  1.000000
 IRadAn=      0 IRanWt=     -1 IRanGd=            0 ICorTp=0
 NAtoms=   41 NActive=   41 NUniq=   41 SFac= 1.00D+00 NAtFMM=   60 NAOKFM=F Big=F
 Leave Link  301 at Fri Aug 26 14:42:12 2022, MaxMem=  209715200 cpu:       0.2
 (Enter /opt/gaussian/l302.exe)
 NPDir=0 NMtPBC=     1 NCelOv=     1 NCel=       1 NClECP=     1 NCelD=      1
         NCelK=      1 NCelE2=     1 NClLst=     1 CellRange=     0.0.
 One-electron integrals computed using PRISM.
 NBasis=   261 RedAO= T  NBF=   261
 NBsUse=   261 1.00D-06 NBFU=   261
 Leave Link  302 at Fri Aug 26 14:42:13 2022, MaxMem=  209715200 cpu:       1.5
 (Enter /opt/gaussian/l303.exe)
 DipDrv:  MaxL=1.
 Leave Link  303 at Fri Aug 26 14:42:13 2022, MaxMem=  209715200 cpu:       0.4
 (Enter /opt/gaussian/l401.exe)
 Harris functional with IExCor=  205 diagonalized for initial guess.
 ExpMin= 1.17D-01 ExpMax= 2.19D+04 ExpMxC= 3.30D+03 IAcc=1 IRadAn=         1 AccDes= 0.00D+00
 HarFok:  IExCor=  205 AccDes= 0.00D+00 IRadAn=         1 IDoV= 1
 ScaDFX=  1.000000  1.000000  1.000000  1.000000
 FoFCou: FMM=F IPFlag=           0 FMFlag=      100000 FMFlg1=           0
         NFxFlg=           0 DoJE=T BraDBF=F KetDBF=T FulRan=T
         Omega=  0.000000  0.000000  1.000000  0.000000  0.000000 ICntrl=     500 IOpCl=  0
         NMat0=    1 NMatS0=    1 NMatT0=    0 NMatD0=    1 NMtDS0=    0 NMtDT0=    0
         I1Cent=           4 NGrid=           0.
 Petite list used in FoFCou.
 Harris En= -1419.29765395917    
 Initial guess orbital symmetries:
       Occupied  (A) (A) (A) (A) (A) (A) (A) (A) (A) (A) (A) (A)
                 (A) (A) (A) (A) (A) (A) (A) (A) (A) (A) (A) (A)
                 (A) (A) (A) (A) (A) (A) (A) (A) (A) (A) (A) (A)
                 (A) (A) (A) (A) (A) (A) (A) (A) (A) (A) (A) (A)
                 (A) (A) (A) (A) (A) (A) (A) (A) (A) (A) (A) (A)
                 (A) (A) (A) (A) (A) (A) (A) (A) (A) (A) (A) (A)
                 (A) (A) (A) (A) (A) (A) (A) (A) (A) (A) (A) (A)
                 (A) (A) (A) (A) (A) (A) (A)
       Virtual   (A) (A) (A) (A) (A) (A) (A) (A) (A) (A) (A) (A)
                 (A) (A) (A) (A) (A) (A) (A) (A) (A) (A) (A) (A)
                 (A) (A) (A) (A) (A) (A) (A) (A) (A) (A) (A) (A)
                 (A) (A) (A) (A) (A) (A) (A) (A) (A) (A) (A) (A)
                 (A) (A) (A) (A) (A) (A) (A) (A) (A) (A) (A) (A)
                 (A) (A) (A) (A) (A) (A) (A) (A) (A) (A) (A) (A)
                 (A) (A) (A) (A) (A) (A) (A) (A) (A) (A) (A) (A)
                 (A) (A) (A) (A) (A) (A) (A) (A) (A) (A) (A) (A)
                 (A) (A) (A) (A) (A) (A) (A) (A) (A) (A) (A) (A)
                 (A) (A) (A) (A) (A) (A) (A) (A) (A) (A) (A) (A)
                 (A) (A) (A) (A) (A) (A) (A) (A) (A) (A) (A) (A)
                 (A) (A) (A) (A) (A) (A) (A) (A) (A) (A) (A) (A)
                 (A) (A) (A) (A) (A) (A) (A) (A) (A) (A) (A) (A)
                 (A) (A) (A) (A) (A) (A) (A) (A) (A) (A) (A) (A)
                 (A) (A)
 The electronic state of the initial guess is 1-A.
 Leave Link  401 at Fri Aug 26 14:42:13 2022, MaxMem=  209715200 cpu:       3.4
 (Enter /opt/gaussian/l502.exe)
 Closed shell SCF:
 Requested convergence on RMS density matrix=1.00D-08 within 128 cycles.
 Requested convergence on MAX density matrix=1.00D-06.
 Requested convergence on             energy=1.00D-06.
 No special actions if energy rises.
 Using DIIS extrapolation, IDIIS=  1040.
 Integral symmetry usage will be decided dynamically.
 IEnd=      226614 IEndB=      226614 NGot=   209715200 MDV=   209573609
 LenX=   209573609 LenY=   209505047
 Fock matrices will be formed incrementally for  20 cycles.
 Integral accuracy reduced to 1.0D-05 until final iterations.

 Cycle   1  Pass 0  IDiag  1:
 FoFCou: FMM=F IPFlag=           0 FMFlag=      100000 FMFlg1=           0
         NFxFlg=           0 DoJE=F BraDBF=F KetDBF=F FulRan=T
         Omega=  0.000000  0.000000  1.000000  0.000000  0.000000 ICntrl=       0 IOpCl=  0
         NMat0=    1 NMatS0=    1 NMatT0=    0 NMatD0=    1 NMtDS0=    0 NMtDT0=    0
         I1Cent=           0 NGrid=           0.
 Symmetry not used in FoFCou.
 E= -1417.60135052793    
 DIIS: error= 3.86D-02 at cycle   1 NSaved=   1.
 NSaved= 1 IEnMin= 1 EnMin= -1417.60135052793     IErMin= 1 ErrMin= 3.86D-02
 ErrMax= 3.86D-02 EMaxC= 1.00D-01 BMatC= 9.33D-01 BMatP= 9.33D-01
 IDIUse=3 WtCom= 6.14D-01 WtEn= 3.86D-01
 Coeff-Com:  0.100D+01
 Coeff-En:   0.100D+01
 Coeff:      0.100D+01
 Gap=     0.514 Goal=   None    Shift=    0.000
 GapD=    0.514 DampG=2.000 DampE=0.500 DampFc=1.0000 IDamp=-1.
 RMSDP=6.84D-03 MaxDP=1.51D-01              OVMax= 1.94D-01

 Cycle   2  Pass 0  IDiag  1:
 RMSU=  4.81D-03    CP:  9.75D-01
 E= -1418.21639625029     Delta-E=       -0.615045722365 Rises=F Damp=F
 DIIS: error= 2.37D-02 at cycle   2 NSaved=   2.
 NSaved= 2 IEnMin= 2 EnMin= -1418.21639625029     IErMin= 2 ErrMin= 2.37D-02
 ErrMax= 2.37D-02 EMaxC= 1.00D-01 BMatC= 2.01D-01 BMatP= 9.33D-01
 IDIUse=3 WtCom= 7.63D-01 WtEn= 2.37D-01
 Coeff-Com:  0.275D+00 0.725D+00
 Coeff-En:   0.000D+00 0.100D+01
 Coeff:      0.210D+00 0.790D+00
 Gap=     0.476 Goal=   None    Shift=    0.000
 RMSDP=3.31D-03 MaxDP=8.41D-02 DE=-6.15D-01 OVMax= 9.80D-02

 Cycle   3  Pass 0  IDiag  1:
 RMSU=  1.96D-03    CP:  9.75D-01  7.34D-01
 E= -1418.38938836132     Delta-E=       -0.172992111025 Rises=F Damp=F
 DIIS: error= 1.17D-02 at cycle   3 NSaved=   3.
 NSaved= 3 IEnMin= 3 EnMin= -1418.38938836132     IErMin= 3 ErrMin= 1.17D-02
 ErrMax= 1.17D-02 EMaxC= 1.00D-01 BMatC= 2.91D-02 BMatP= 2.01D-01
 IDIUse=3 WtCom= 8.83D-01 WtEn= 1.17D-01
 Coeff-Com:  0.623D-02 0.262D+00 0.731D+00
 Coeff-En:   0.000D+00 0.000D+00 0.100D+01
 Coeff:      0.550D-02 0.232D+00 0.763D+00
 Gap=     0.429 Goal=   None    Shift=    0.000
 RMSDP=1.03D-03 MaxDP=2.75D-02 DE=-1.73D-01 OVMax= 3.62D-02

 Cycle   4  Pass 0  IDiag  1:
 RMSU=  4.31D-04    CP:  9.76D-01  8.40D-01  8.54D-01
 E= -1418.41661705780     Delta-E=       -0.027228696480 Rises=F Damp=F
 DIIS: error= 2.67D-03 at cycle   4 NSaved=   4.
 NSaved= 4 IEnMin= 4 EnMin= -1418.41661705780     IErMin= 4 ErrMin= 2.67D-03
 ErrMax= 2.67D-03 EMaxC= 1.00D-01 BMatC= 2.95D-03 BMatP= 2.91D-02
 IDIUse=3 WtCom= 9.73D-01 WtEn= 2.67D-02
 Coeff-Com: -0.152D-01 0.270D-01 0.290D+00 0.698D+00
 Coeff-En:   0.000D+00 0.000D+00 0.000D+00 0.100D+01
 Coeff:     -0.148D-01 0.262D-01 0.283D+00 0.706D+00
 Gap=     0.414 Goal=   None    Shift=    0.000
 RMSDP=3.23D-04 MaxDP=9.85D-03 DE=-2.72D-02 OVMax= 9.19D-03

 Cycle   5  Pass 0  IDiag  1:
 RMSU=  1.54D-04    CP:  9.75D-01  8.32D-01  9.16D-01  7.52D-01
 E= -1418.41955735613     Delta-E=       -0.002940298328 Rises=F Damp=F
 DIIS: error= 9.64D-04 at cycle   5 NSaved=   5.
 NSaved= 5 IEnMin= 5 EnMin= -1418.41955735613     IErMin= 5 ErrMin= 9.64D-04
 ErrMax= 9.64D-04 EMaxC= 1.00D-01 BMatC= 1.30D-04 BMatP= 2.95D-03
 IDIUse=3 WtCom= 9.90D-01 WtEn= 9.64D-03
 Coeff-Com: -0.216D-02-0.163D-01-0.745D-02 0.994D-01 0.927D+00
 Coeff-En:   0.000D+00 0.000D+00 0.000D+00 0.000D+00 0.100D+01
 Coeff:     -0.214D-02-0.161D-01-0.738D-02 0.984D-01 0.927D+00
 Gap=     0.415 Goal=   None    Shift=    0.000
 RMSDP=1.14D-04 MaxDP=4.87D-03 DE=-2.94D-03 OVMax= 4.97D-03

 Cycle   6  Pass 0  IDiag  1:
 RMSU=  5.49D-05    CP:  9.75D-01  8.31D-01  9.39D-01  8.25D-01  1.13D+00
 E= -1418.41990461910     Delta-E=       -0.000347262973 Rises=F Damp=F
 DIIS: error= 4.45D-04 at cycle   6 NSaved=   6.
 NSaved= 6 IEnMin= 6 EnMin= -1418.41990461910     IErMin= 6 ErrMin= 4.45D-04
 ErrMax= 4.45D-04 EMaxC= 1.00D-01 BMatC= 3.35D-05 BMatP= 1.30D-04
 IDIUse=3 WtCom= 9.96D-01 WtEn= 4.45D-03
 Coeff-Com:  0.300D-02-0.103D-01-0.637D-01-0.154D+00 0.137D+00 0.109D+01
 Coeff-En:   0.000D+00 0.000D+00 0.000D+00 0.000D+00 0.000D+00 0.100D+01
 Coeff:      0.298D-02-0.102D-01-0.634D-01-0.154D+00 0.136D+00 0.109D+01
 Gap=     0.415 Goal=   None    Shift=    0.000
 RMSDP=7.80D-05 MaxDP=2.62D-03 DE=-3.47D-04 OVMax= 5.16D-03

 Cycle   7  Pass 0  IDiag  1:
 RMSU=  2.19D-05    CP:  9.75D-01  8.30D-01  9.50D-01  8.46D-01  1.39D+00
                    CP:  1.35D+00
 E= -1418.42002601361     Delta-E=       -0.000121394513 Rises=F Damp=F
 DIIS: error= 2.34D-04 at cycle   7 NSaved=   7.
 NSaved= 7 IEnMin= 7 EnMin= -1418.42002601361     IErMin= 7 ErrMin= 2.34D-04
 ErrMax= 2.34D-04 EMaxC= 1.00D-01 BMatC= 3.86D-06 BMatP= 3.35D-05
 IDIUse=3 WtCom= 9.98D-01 WtEn= 2.34D-03
 Coeff-Com:  0.223D-03 0.194D-02 0.379D-02-0.161D-01-0.109D+00-0.101D-01
 Coeff-Com:  0.113D+01
 Coeff-En:   0.000D+00 0.000D+00 0.000D+00 0.000D+00 0.000D+00 0.000D+00
 Coeff-En:   0.100D+01
 Coeff:      0.223D-03 0.194D-02 0.378D-02-0.161D-01-0.109D+00-0.100D-01
 Coeff:      0.113D+01
 Gap=     0.415 Goal=   None    Shift=    0.000
 RMSDP=2.72D-05 MaxDP=9.15D-04 DE=-1.21D-04 OVMax= 1.51D-03

 Cycle   8  Pass 0  IDiag  1:
 RMSU=  7.48D-06    CP:  9.75D-01  8.29D-01  9.52D-01  8.51D-01  1.45D+00
                    CP:  1.56D+00  1.36D+00
 E= -1418.42004155870     Delta-E=       -0.000015545092 Rises=F Damp=F
 DIIS: error= 6.76D-05 at cycle   8 NSaved=   8.
 NSaved= 8 IEnMin= 8 EnMin= -1418.42004155870     IErMin= 8 ErrMin= 6.76D-05
 ErrMax= 6.76D-05 EMaxC= 1.00D-01 BMatC= 6.80D-07 BMatP= 3.86D-06
 IDIUse=1 WtCom= 1.00D+00 WtEn= 0.00D+00
 Coeff-Com: -0.537D-03 0.232D-02 0.138D-01 0.251D-01-0.378D-01-0.223D+00
 Coeff-Com:  0.164D+00 0.106D+01
 Coeff:     -0.537D-03 0.232D-02 0.138D-01 0.251D-01-0.378D-01-0.223D+00
 Coeff:      0.164D+00 0.106D+01
 Gap=     0.415 Goal=   None    Shift=    0.000
 RMSDP=1.19D-05 MaxDP=4.15D-04 DE=-1.55D-05 OVMax= 6.31D-04

 Cycle   9  Pass 0  IDiag  1:
 RMSU=  2.97D-06    CP:  9.75D-01  8.29D-01  9.52D-01  8.50D-01  1.48D+00
                    CP:  1.63D+00  1.59D+00  1.24D+00
 E= -1418.42004397225     Delta-E=       -0.000002413543 Rises=F Damp=F
 DIIS: error= 2.43D-05 at cycle   9 NSaved=   9.
 NSaved= 9 IEnMin= 9 EnMin= -1418.42004397225     IErMin= 9 ErrMin= 2.43D-05
 ErrMax= 2.43D-05 EMaxC= 1.00D-01 BMatC= 6.16D-08 BMatP= 6.80D-07
 IDIUse=1 WtCom= 1.00D+00 WtEn= 0.00D+00
 Coeff-Com: -0.142D-04-0.117D-03-0.933D-04 0.792D-03 0.107D-01-0.273D-02
 Coeff-Com: -0.823D-01-0.411D-02 0.108D+01
 Coeff:     -0.142D-04-0.117D-03-0.933D-04 0.792D-03 0.107D-01-0.273D-02
 Coeff:     -0.823D-01-0.411D-02 0.108D+01
 Gap=     0.415 Goal=   None    Shift=    0.000
 RMSDP=2.64D-06 MaxDP=5.89D-05 DE=-2.41D-06 OVMax= 2.09D-04

 Initial convergence to 1.0D-05 achieved.  Increase integral accuracy.
 Cycle  10  Pass 1  IDiag  1:
 E= -1418.42005674420     Delta-E=       -0.000012771951 Rises=F Damp=F
 DIIS: error= 7.66D-05 at cycle   1 NSaved=   1.
 NSaved= 1 IEnMin= 1 EnMin= -1418.42005674420     IErMin= 1 ErrMin= 7.66D-05
 ErrMax= 7.66D-05 EMaxC= 1.00D-01 BMatC= 6.89D-07 BMatP= 6.89D-07
 IDIUse=1 WtCom= 1.00D+00 WtEn= 0.00D+00
 Coeff-Com:  0.100D+01
 Coeff:      0.100D+01
 Gap=     0.415 Goal=   None    Shift=    0.000
 RMSDP=2.64D-06 MaxDP=5.89D-05 DE=-1.28D-05 OVMax= 1.22D-04

 Cycle  11  Pass 1  IDiag  1:
 RMSU=  3.17D-05    CP:  1.00D+00
 E= -1418.42005741879     Delta-E=       -0.000000674595 Rises=F Damp=F
 DIIS: error= 8.66D-06 at cycle   2 NSaved=   2.
 NSaved= 2 IEnMin= 2 EnMin= -1418.42005741879     IErMin= 2 ErrMin= 8.66D-06
 ErrMax= 8.66D-06 EMaxC= 1.00D-01 BMatC= 8.38D-09 BMatP= 6.89D-07
 IDIUse=1 WtCom= 1.00D+00 WtEn= 0.00D+00
 Coeff-Com: -0.352D-01 0.104D+01
 Coeff:     -0.352D-01 0.104D+01
 Gap=     0.415 Goal=   None    Shift=    0.000
 RMSDP=2.60D-06 MaxDP=4.64D-05 DE=-6.75D-07 OVMax= 6.29D-05

 Cycle  12  Pass 1  IDiag  1:
 RMSU=  6.33D-07    CP:  1.00D+00  1.05D+00
 E= -1418.42005744342     Delta-E=       -0.000000024624 Rises=F Damp=F
 DIIS: error= 7.08D-06 at cycle   3 NSaved=   3.
 NSaved= 3 IEnMin= 3 EnMin= -1418.42005744342     IErMin= 3 ErrMin= 7.08D-06
 ErrMax= 7.08D-06 EMaxC= 1.00D-01 BMatC= 3.78D-09 BMatP= 8.38D-09
 IDIUse=1 WtCom= 1.00D+00 WtEn= 0.00D+00
 Coeff-Com: -0.182D-01 0.316D+00 0.703D+00
 Coeff:     -0.182D-01 0.316D+00 0.703D+00
 Gap=     0.415 Goal=   None    Shift=    0.000
 RMSDP=3.88D-07 MaxDP=6.76D-06 DE=-2.46D-08 OVMax= 2.65D-05

 Cycle  13  Pass 1  IDiag  1:
 RMSU=  2.65D-07    CP:  1.00D+00  1.06D+00  1.07D+00
 E= -1418.42005745147     Delta-E=       -0.000000008048 Rises=F Damp=F
 DIIS: error= 4.29D-06 at cycle   4 NSaved=   4.
 NSaved= 4 IEnMin= 4 EnMin= -1418.42005745147     IErMin= 4 ErrMin= 4.29D-06
 ErrMax= 4.29D-06 EMaxC= 1.00D-01 BMatC= 1.12D-09 BMatP= 3.78D-09
 IDIUse=1 WtCom= 1.00D+00 WtEn= 0.00D+00
 Coeff-Com:  0.193D-01-0.514D+00-0.250D+00 0.174D+01
 Coeff:      0.193D-01-0.514D+00-0.250D+00 0.174D+01
 Gap=     0.415 Goal=   None    Shift=    0.000
 RMSDP=5.76D-07 MaxDP=1.29D-05 DE=-8.05D-09 OVMax= 5.87D-05

 Cycle  14  Pass 1  IDiag  1:
 RMSU=  1.93D-07    CP:  1.00D+00  1.06D+00  1.50D+00  1.86D+00
 E= -1418.42005745929     Delta-E=       -0.000000007821 Rises=F Damp=F
 DIIS: error= 1.85D-06 at cycle   5 NSaved=   5.
 NSaved= 5 IEnMin= 5 EnMin= -1418.42005745929     IErMin= 5 ErrMin= 1.85D-06
 ErrMax= 1.85D-06 EMaxC= 1.00D-01 BMatC= 2.21D-10 BMatP= 1.12D-09
 IDIUse=1 WtCom= 1.00D+00 WtEn= 0.00D+00
 Coeff-Com:  0.982D-02-0.234D+00-0.234D+00 0.610D+00 0.848D+00
 Coeff:      0.982D-02-0.234D+00-0.234D+00 0.610D+00 0.848D+00
 Gap=     0.415 Goal=   None    Shift=    0.000
 RMSDP=1.98D-07 MaxDP=4.39D-06 DE=-7.82D-09 OVMax= 1.81D-05

 Cycle  15  Pass 1  IDiag  1:
 RMSU=  5.86D-08    CP:  1.00D+00  1.06D+00  1.60D+00  2.23D+00  1.25D+00
 E= -1418.42005746002     Delta-E=       -0.000000000730 Rises=F Damp=F
 DIIS: error= 4.18D-07 at cycle   6 NSaved=   6.
 NSaved= 6 IEnMin= 6 EnMin= -1418.42005746002     IErMin= 6 ErrMin= 4.18D-07
 ErrMax= 4.18D-07 EMaxC= 1.00D-01 BMatC= 2.07D-11 BMatP= 2.21D-10
 IDIUse=1 WtCom= 1.00D+00 WtEn= 0.00D+00
 Coeff-Com: -0.148D-02 0.462D-01-0.165D-01-0.164D+00 0.192D+00 0.943D+00
 Coeff:     -0.148D-02 0.462D-01-0.165D-01-0.164D+00 0.192D+00 0.943D+00
 Gap=     0.415 Goal=   None    Shift=    0.000
 RMSDP=5.19D-08 MaxDP=1.06D-06 DE=-7.30D-10 OVMax= 4.30D-06

 Cycle  16  Pass 1  IDiag  1:
 RMSU=  1.70D-08    CP:  1.00D+00  1.06D+00  1.61D+00  2.30D+00  1.37D+00
                    CP:  1.06D+00
 E= -1418.42005746007     Delta-E=       -0.000000000049 Rises=F Damp=F
 DIIS: error= 1.28D-07 at cycle   7 NSaved=   7.
 NSaved= 7 IEnMin= 7 EnMin= -1418.42005746007     IErMin= 7 ErrMin= 1.28D-07
 ErrMax= 1.28D-07 EMaxC= 1.00D-01 BMatC= 2.25D-12 BMatP= 2.07D-11
 IDIUse=1 WtCom= 1.00D+00 WtEn= 0.00D+00
 Coeff-Com: -0.807D-03 0.191D-01 0.140D-01-0.441D-01-0.627D-01-0.520D-01
 Coeff-Com:  0.113D+01
 Coeff:     -0.807D-03 0.191D-01 0.140D-01-0.441D-01-0.627D-01-0.520D-01
 Coeff:      0.113D+01
 Gap=     0.415 Goal=   None    Shift=    0.000
 RMSDP=1.66D-08 MaxDP=3.59D-07 DE=-4.91D-11 OVMax= 1.25D-06

 Cycle  17  Pass 1  IDiag  1:
 RMSU=  6.63D-09    CP:  1.00D+00  1.06D+00  1.61D+00  2.32D+00  1.39D+00
                    CP:  1.13D+00  1.42D+00
 E= -1418.42005746003     Delta-E=        0.000000000034 Rises=F Damp=F
 DIIS: error= 9.36D-08 at cycle   8 NSaved=   8.
 NSaved= 8 IEnMin= 7 EnMin= -1418.42005746007     IErMin= 8 ErrMin= 9.36D-08
 ErrMax= 9.36D-08 EMaxC= 1.00D-01 BMatC= 5.81D-13 BMatP= 2.25D-12
 IDIUse=1 WtCom= 1.00D+00 WtEn= 0.00D+00
 Coeff-Com:  0.301D-03-0.102D-01 0.413D-02 0.423D-01-0.576D-01-0.288D+00
 Coeff-Com:  0.192D+00 0.112D+01
 Coeff:      0.301D-03-0.102D-01 0.413D-02 0.423D-01-0.576D-01-0.288D+00
 Coeff:      0.192D+00 0.112D+01
 Gap=     0.415 Goal=   None    Shift=    0.000
 RMSDP=9.86D-09 MaxDP=2.78D-07 DE= 3.41D-11 OVMax= 9.04D-07

 SCF Done:  E(RHF) =  -1418.42005746     A.U. after   17 cycles
             Convg  =    0.9859D-08             -V/T =  1.9999
 KE= 1.418499127046D+03 PE=-7.749190984990D+03 EE= 2.702424395067D+03
 Leave Link  502 at Fri Aug 26 14:43:05 2022, MaxMem=  209715200 cpu:     390.5
 (Enter /opt/gaussian/l601.exe)
 Copying SCF densities to generalized density rwf, IOpCl= 0 IROHF=0.

 **********************************************************************

            Population analysis using the SCF density.

 **********************************************************************

 Orbital symmetries:
       Occupied  (A) (A) (A) (A) (A) (A) (A) (A) (A) (A) (A) (A)
                 (A) (A) (A) (A) (A) (A) (A) (A) (A) (A) (A) (A)
                 (A) (A) (A) (A) (A) (A) (A) (A) (A) (A) (A) (A)
                 (A) (A) (A) (A) (A) (A) (A) (A) (A) (A) (A) (A)
                 (A) (A) (A) (A) (A) (A) (A) (A) (A) (A) (A) (A)
                 (A) (A) (A) (A) (A) (A) (A) (A) (A) (A) (A) (A)
                 (A) (A) (A) (A) (A) (A) (A) (A) (A) (A) (A) (A)
                 (A) (A) (A) (A) (A) (A) (A)
       Virtual   (A) (A) (A) (A) (A) (A) (A) (A) (A) (A) (A) (A)
                 (A) (A) (A) (A) (A) (A) (A) (A) (A) (A) (A) (A)
                 (A) (A) (A) (A) (A) (A) (A) (A) (A) (A) (A) (A)
                 (A) (A) (A) (A) (A) (A) (A) (A) (A) (A) (A) (A)
                 (A) (A) (A) (A) (A) (A) (A) (A) (A) (A) (A) (A)
                 (A) (A) (A) (A) (A) (A) (A) (A) (A) (A) (A) (A)
                 (A) (A) (A) (A) (A) (A) (A) (A) (A) (A) (A) (A)
                 (A) (A) (A) (A) (A) (A) (A) (A) (A) (A) (A) (A)
                 (A) (A) (A) (A) (A) (A) (A) (A) (A) (A) (A) (A)
                 (A) (A) (A) (A) (A) (A) (A) (A) (A) (A) (A) (A)
                 (A) (A) (A) (A) (A) (A) (A) (A) (A) (A) (A) (A)
                 (A) (A) (A) (A) (A) (A) (A) (A) (A) (A) (A) (A)
                 (A) (A) (A) (A) (A) (A) (A) (A) (A) (A) (A) (A)
                 (A) (A) (A) (A) (A) (A) (A) (A) (A) (A) (A) (A)
                 (A) (A)
 The electronic state is 1-A.
 Alpha  occ. eigenvalues --  -91.97472 -20.55573 -15.67584 -15.66326 -15.62352
 Alpha  occ. eigenvalues --  -15.61714 -11.39491 -11.32062 -11.30689 -11.30175
 Alpha  occ. eigenvalues --  -11.29030 -11.28410 -11.26776 -11.26503 -11.26230
 Alpha  occ. eigenvalues --  -11.26093 -11.26078 -11.25923 -11.25883 -11.25703
 Alpha  occ. eigenvalues --  -11.25575 -11.25447 -11.25260 -11.24905 -11.24709
 Alpha  occ. eigenvalues --   -8.99863  -6.68019  -6.67850  -6.67571  -1.46883
 Alpha  occ. eigenvalues --   -1.41092  -1.28163  -1.24715  -1.20437  -1.17109
 Alpha  occ. eigenvalues --   -1.16084  -1.05867  -1.05195  -1.04058  -1.03313
 Alpha  occ. eigenvalues --   -1.02290  -1.00762  -0.99296  -0.92745  -0.88575
 Alpha  occ. eigenvalues --   -0.86333  -0.84900  -0.84215  -0.81355  -0.77326
 Alpha  occ. eigenvalues --   -0.77122  -0.74349  -0.73540  -0.72183  -0.70970
 Alpha  occ. eigenvalues --   -0.69463  -0.68688  -0.66674  -0.65476  -0.65340
 Alpha  occ. eigenvalues --   -0.64268  -0.62515  -0.62314  -0.61294  -0.60032
 Alpha  occ. eigenvalues --   -0.59300  -0.58744  -0.58150  -0.57275  -0.55205
 Alpha  occ. eigenvalues --   -0.54158  -0.53582  -0.53212  -0.53091  -0.52079
 Alpha  occ. eigenvalues --   -0.51404  -0.50883  -0.50508  -0.50234  -0.49733
 Alpha  occ. eigenvalues --   -0.47136  -0.45997  -0.42867  -0.41749  -0.39803
 Alpha  occ. eigenvalues --   -0.35219  -0.34749  -0.34259  -0.33781  -0.32588
 Alpha  occ. eigenvalues --   -0.32243
 Alpha virt. eigenvalues --    0.09240   0.11690   0.12258   0.12901   0.14153
 Alpha virt. eigenvalues --    0.14873   0.20103   0.20837   0.21914   0.22097
 Alpha virt. eigenvalues --    0.23312   0.24852   0.25445   0.25984   0.26976
 Alpha virt. eigenvalues --    0.27798   0.28432   0.28659   0.29416   0.29460
 Alpha virt. eigenvalues --    0.31536   0.31728   0.32008   0.32688   0.33594
 Alpha virt. eigenvalues --    0.34079   0.34950   0.35384   0.37335   0.37702
 Alpha virt. eigenvalues --    0.39121   0.39531   0.40205   0.41223   0.43046
 Alpha virt. eigenvalues --    0.43473   0.44356   0.45823   0.46120   0.46713
 Alpha virt. eigenvalues --    0.48276   0.49553   0.50135   0.51649   0.52172
 Alpha virt. eigenvalues --    0.52724   0.53937   0.55402   0.56584   0.59611
 Alpha virt. eigenvalues --    0.61919   0.64181   0.64995   0.65776   0.68015
 Alpha virt. eigenvalues --    0.69301   0.71991   0.72422   0.73439   0.73754
 Alpha virt. eigenvalues --    0.74488   0.75560   0.77113   0.77374   0.77799
 Alpha virt. eigenvalues --    0.78195   0.79301   0.79887   0.80124   0.81126
 Alpha virt. eigenvalues --    0.81303   0.82623   0.82762   0.83694   0.83874
 Alpha virt. eigenvalues --    0.84624   0.85082   0.85388   0.85925   0.86785
 Alpha virt. eigenvalues --    0.87089   0.87385   0.87605   0.88318   0.89546
 Alpha virt. eigenvalues --    0.89698   0.90142   0.91061   0.91474   0.92609
 Alpha virt. eigenvalues --    0.93163   0.93847   0.95104   0.97084   0.98605
 Alpha virt. eigenvalues --    0.98885   1.00051   1.01577   1.03415   1.05141
 Alpha virt. eigenvalues --    1.05657   1.06917   1.09219   1.09535   1.10206
 Alpha virt. eigenvalues --    1.10713   1.10989   1.11341   1.11497   1.11816
 Alpha virt. eigenvalues --    1.12586   1.12869   1.13377   1.13780   1.14162
 Alpha virt. eigenvalues --    1.14716   1.15905   1.16475   1.17058   1.17372
 Alpha virt. eigenvalues --    1.17640   1.18582   1.20301   1.21284   1.21771
 Alpha virt. eigenvalues --    1.24687   1.25439   1.25531   1.26262   1.27702
 Alpha virt. eigenvalues --    1.28575   1.29350   1.30443   1.31142   1.32502
 Alpha virt. eigenvalues --    1.35376   1.36558   1.37644   1.38601   1.39445
 Alpha virt. eigenvalues --    1.40183   1.40879   1.41569   1.44421   1.44869
 Alpha virt. eigenvalues --    1.46152   1.49155   1.51266   1.53976   1.57575
 Alpha virt. eigenvalues --    1.58531   1.62297   1.62630   1.66789   1.68395
 Alpha virt. eigenvalues --    1.69181   1.71414   1.73175   1.78262   1.80192
 Alpha virt. eigenvalues --    1.85165   1.91138   1.93202   2.00973   2.04664
 Alpha virt. eigenvalues --    2.05635   2.11842   2.18454   2.21840   2.32464
          Condensed to atoms (all electrons):
              1          2          3          4          5          6
     1  O    8.312400   0.522389  -0.094639   0.001678  -0.000008   0.000001
     2  C    0.522389   4.608010   0.243360  -0.067483   0.001275  -0.000132
     3  C   -0.094639   0.243360   5.369507   0.037911  -0.029839   0.003790
     4  N    0.001678  -0.067483   0.037911   8.231532   0.027323  -0.200471
     5  N   -0.000008   0.001275  -0.029839   0.027323   6.751491   0.340988
     6  N    0.000001  -0.000132   0.003790  -0.200471   0.340988   7.012302
     7  C    0.000013   0.000129   0.005880   0.004312  -0.152607   0.240579
     8  C    0.000000  -0.000002   0.000091   0.011442   0.002924  -0.017269
     9  C    0.000000  -0.000004  -0.000018  -0.000220  -0.000089   0.002516
    10  C    0.000125   0.000095  -0.000096   0.004149  -0.000229  -0.000355
    11  C   -0.003270  -0.000248  -0.000829  -0.042908   0.003548   0.009728
    12  C   -0.000081  -0.001667  -0.044032  -0.093369  -0.067004  -0.064379
    13  N   -0.135455   0.040833  -0.130123   0.011115  -0.000265   0.000002
    14  C    0.005628  -0.033588   0.001971  -0.000135   0.000000   0.000000
    15  C   -0.003063  -0.005006  -0.000389  -0.000001   0.000000   0.000000
    16  C   -0.000001  -0.000041  -0.000001   0.000000   0.000000   0.000000
    17  C   -0.000002  -0.000006   0.000000   0.000000   0.000000   0.000000
    18  S    0.000157  -0.000016   0.000003   0.000000   0.000000   0.000000
    19  C   -0.003025   0.002629  -0.000009   0.000000   0.000000   0.000000
    20  C    0.000404  -0.020902  -0.005296  -0.000518   0.000384  -0.000026
    21  C   -0.000017  -0.000056   0.000732   0.000050   0.000875  -0.000059
    22  C    0.000000  -0.000040   0.000056   0.000013  -0.000080  -0.000013
    23  C    0.000000   0.000010   0.000035   0.000003   0.000018   0.000000
    24  C   -0.000001  -0.000032  -0.000315   0.000010  -0.000017   0.000001
    25  C   -0.000058   0.000926  -0.007757  -0.000333   0.000012   0.000008
    26  H    0.006248  -0.056270   0.401721  -0.048912   0.000697  -0.000044
    27  H    0.002071  -0.038161   0.378721  -0.032354   0.004198   0.000075
    28  H    0.000000   0.000000   0.000001  -0.000076  -0.000039   0.000968
    29  H    0.000000   0.000000   0.000000  -0.000003   0.000002  -0.000050
    30  H   -0.000002  -0.000001   0.000004  -0.000078   0.000001  -0.000002
    31  H    0.010054  -0.000452  -0.001346  -0.002116   0.000008  -0.000072
    32  H    0.002019  -0.001806   0.000229  -0.000009   0.000000   0.000000
    33  H    0.000365   0.005008   0.000023   0.000001   0.000000   0.000000
    34  H    0.000000   0.000002   0.000000   0.000000   0.000000   0.000000
    35  H    0.000000   0.000000   0.000000   0.000000   0.000000   0.000000
    36  H    0.009189  -0.000270   0.000095   0.000000   0.000000   0.000000
    37  H   -0.000009   0.000149  -0.000021  -0.000051  -0.000005   0.000015
    38  H    0.000000   0.000000  -0.000001   0.000000   0.000000   0.000000
    39  H    0.000000   0.000000   0.000000   0.000000   0.000000   0.000000
    40  H    0.000000   0.000000  -0.000005   0.000000   0.000000   0.000000
    41  H   -0.000061   0.000819  -0.000681   0.000004   0.000005   0.000000
              7          8          9         10         11         12
     1  O    0.000013   0.000000   0.000000   0.000125  -0.003270  -0.000081
     2  C    0.000129  -0.000002  -0.000004   0.000095  -0.000248  -0.001667
     3  C    0.005880   0.000091  -0.000018  -0.000096  -0.000829  -0.044032
     4  N    0.004312   0.011442  -0.000220   0.004149  -0.042908  -0.093369
     5  N   -0.152607   0.002924  -0.000089  -0.000229   0.003548  -0.067004
     6  N    0.240579  -0.017269   0.002516  -0.000355   0.009728  -0.064379
     7  C    5.146037   0.463887  -0.056802  -0.035211  -0.019632   0.394701
     8  C    0.463887   4.943408   0.526043  -0.049374  -0.040384  -0.072770
     9  C   -0.056802   0.526043   5.032243   0.483392  -0.055030  -0.032643
    10  C   -0.035211  -0.049374   0.483392   5.011356   0.501298  -0.040018
    11  C   -0.019632  -0.040384  -0.055030   0.501298   5.022231   0.400067
    12  C    0.394701  -0.072770  -0.032643  -0.040018   0.400067   5.257653
    13  N   -0.000061  -0.000001   0.000000  -0.000004  -0.000117   0.000996
    14  C    0.000000   0.000000   0.000000   0.000000   0.000011  -0.000003
    15  C    0.000000   0.000000   0.000000   0.000000   0.000000   0.000001
    16  C    0.000000   0.000000   0.000000   0.000000   0.000000   0.000000
    17  C    0.000000   0.000000   0.000000   0.000000   0.000000   0.000000
    18  S    0.000000   0.000000   0.000000   0.000000   0.000000   0.000000
    19  C    0.000000   0.000000   0.000000   0.000000   0.000000   0.000000
    20  C   -0.000031   0.000000   0.000000   0.000000  -0.000001   0.000134
    21  C    0.000015   0.000000   0.000000   0.000000   0.000003   0.000029
    22  C    0.000003   0.000000   0.000000   0.000000   0.000000   0.000001
    23  C    0.000000   0.000000   0.000000   0.000000   0.000000   0.000000
    24  C    0.000000   0.000000   0.000000   0.000000   0.000000  -0.000001
    25  C   -0.000002   0.000000   0.000000   0.000000   0.000001   0.000003
    26  H    0.000045  -0.000010   0.000000  -0.000017   0.000153   0.000107
    27  H   -0.000111  -0.000001   0.000000   0.000001   0.000015   0.003274
    28  H   -0.020967   0.361061  -0.019847   0.001855  -0.000039   0.002655
    29  H    0.002508  -0.021212   0.373804  -0.025559   0.002397   0.000301
    30  H    0.000429   0.001995  -0.023912   0.371472  -0.020627   0.002236
    31  H    0.001006   0.000052   0.001570  -0.012404   0.357633  -0.026700
    32  H    0.000000   0.000000   0.000000   0.000001   0.000008  -0.000004
    33  H    0.000000   0.000000   0.000000   0.000000   0.000000  -0.000001
    34  H    0.000000   0.000000   0.000000   0.000000   0.000000   0.000000
    35  H    0.000000   0.000000   0.000000   0.000000   0.000000   0.000000
    36  H    0.000000   0.000000   0.000000   0.000000   0.000000   0.000000
    37  H    0.000016   0.000000   0.000000   0.000000   0.000001   0.000051
    38  H    0.000000   0.000000   0.000000   0.000000   0.000000   0.000000
    39  H    0.000000   0.000000   0.000000   0.000000   0.000000   0.000000
    40  H    0.000000   0.000000   0.000000   0.000000   0.000000   0.000000
    41  H    0.000000   0.000000   0.000000   0.000000   0.000000   0.000001
             13         14         15         16         17         18
     1  O   -0.135455   0.005628  -0.003063  -0.000001  -0.000002   0.000157
     2  C    0.040833  -0.033588  -0.005006  -0.000041  -0.000006  -0.000016
     3  C   -0.130123   0.001971  -0.000389  -0.000001   0.000000   0.000003
     4  N    0.011115  -0.000135  -0.000001   0.000000   0.000000   0.000000
     5  N   -0.000265   0.000000   0.000000   0.000000   0.000000   0.000000
     6  N    0.000002   0.000000   0.000000   0.000000   0.000000   0.000000
     7  C   -0.000061   0.000000   0.000000   0.000000   0.000000   0.000000
     8  C   -0.000001   0.000000   0.000000   0.000000   0.000000   0.000000
     9  C    0.000000   0.000000   0.000000   0.000000   0.000000   0.000000
    10  C   -0.000004   0.000000   0.000000   0.000000   0.000000   0.000000
    11  C   -0.000117   0.000011   0.000000   0.000000   0.000000   0.000000
    12  C    0.000996  -0.000003   0.000001   0.000000   0.000000   0.000000
    13  N    8.224920   0.108910  -0.100596  -0.000311  -0.000073   0.000048
    14  C    0.108910   5.089475   0.224356  -0.036034   0.008823   0.002167
    15  C   -0.100596   0.224356   5.288350   0.423423  -0.000758  -0.116760
    16  C   -0.000311  -0.036034   0.423423   5.084006   0.383161  -0.111187
    17  C   -0.000073   0.008823  -0.000758   0.383161   5.773366   0.261605
    18  S    0.000048   0.002167  -0.116760  -0.111187   0.261605  15.174056
    19  C   -0.003836  -0.032124   0.405078  -0.019129  -0.177127   0.261891
    20  C    0.125066  -0.044403   0.002469   0.001188  -0.000026   0.000033
    21  C   -0.065019  -0.005653  -0.000262   0.000060   0.000000   0.000000
    22  C    0.003926   0.000057   0.000025  -0.000010   0.000000   0.000000
    23  C    0.000161   0.000009   0.000000  -0.000001   0.000000   0.000000
    24  C    0.005235   0.000042  -0.000055  -0.000024  -0.000002   0.000000
    25  C   -0.076065   0.001570   0.002050   0.000392  -0.000020   0.000016
    26  H    0.004640  -0.000093   0.000017   0.000000   0.000000   0.000000
    27  H    0.002643  -0.000033   0.000012   0.000000   0.000000  -0.000001
    28  H    0.000000   0.000000   0.000000   0.000000   0.000000   0.000000
[...]
    22  C    0.004853  -0.000053   0.000025  -0.000007   0.000000   0.000000
    23  C    0.000209   0.000017   0.000000   0.000002   0.000000   0.000000
    24  C    0.004563   0.000127  -0.000048  -0.000153  -0.000012  -0.000001
    25  C   -0.076383   0.001040   0.000951  -0.001392  -0.000185   0.000049
    26  H    0.003943  -0.000127   0.000037   0.000000   0.000000   0.000000
    27  H    0.003962   0.000012   0.000002   0.000000   0.000000   0.000000
    28  H    0.000000   0.000000   0.000000   0.000000   0.000000   0.000000
    29  H    0.000000   0.000000   0.000000   0.000000   0.000000   0.000000
    30  H    0.000000   0.000000   0.000000   0.000000   0.000000   0.000000
    31  H    0.000103  -0.000002   0.000000   0.000000   0.000000   0.000000
    32  H   -0.041733   0.416862  -0.047865   0.002401  -0.000186   0.000003
    33  H   -0.050231   0.424509  -0.061020  -0.002026   0.000359  -0.000151
    34  H   -0.000236  -0.001310  -0.028975   0.375166  -0.023884   0.002501
    35  H    0.000001  -0.000084   0.000283  -0.010705   0.382751  -0.017039
    36  H   -0.000618   0.000701  -0.012271   0.001279   0.001637  -0.012306
    37  H   -0.001695   0.000254   0.000007   0.000000   0.000000   0.000000
    38  H   -0.000136   0.000002   0.000000   0.000000   0.000000   0.000000
    39  H    0.000001   0.000000   0.000000   0.000000   0.000000   0.000000
    40  H   -0.000133   0.000001  -0.000001  -0.000007   0.000000   0.000000
    41  H   -0.001632  -0.000038   0.000648   0.001664   0.000219  -0.000061
             19         20         21         22         23         24
     1  O   -0.000783   0.000091  -0.000036   0.000000   0.000000   0.000000
     2  C    0.003169  -0.013503  -0.001806  -0.000085   0.000012   0.000023
     3  C    0.000016   0.000929  -0.001795   0.000119   0.000038  -0.000105
     4  N    0.000000  -0.000023  -0.000004  -0.000007  -0.000001   0.000006
     5  N    0.000000  -0.000137   0.000203  -0.000209   0.000008  -0.000005
     6  N    0.000000   0.000006  -0.000019   0.000001   0.000000   0.000000
     7  C    0.000000  -0.000003   0.000005   0.000000   0.000000   0.000000
     8  C    0.000000   0.000000   0.000000   0.000000   0.000000   0.000000
     9  C    0.000000   0.000000   0.000000   0.000000   0.000000   0.000000
    10  C    0.000000   0.000000   0.000000   0.000000   0.000000   0.000000
    11  C    0.000000  -0.000001   0.000000   0.000000   0.000000   0.000000
    12  C    0.000000   0.000006  -0.000017  -0.000002   0.000000   0.000000
    13  N   -0.005807   0.126937  -0.065622   0.004853   0.000209   0.004563
    14  C   -0.031867  -0.036882  -0.003877  -0.000053   0.000017   0.000127
    15  C    0.365480  -0.000220  -0.000097   0.000025   0.000000  -0.000048
    16  C   -0.005182   0.001161   0.000084  -0.000007   0.000002  -0.000153
    17  C   -0.149893  -0.000014   0.000000   0.000000   0.000000  -0.000012
    18  S    0.274297   0.000013   0.000000   0.000000   0.000000  -0.000001
    19  C    5.735097  -0.000313  -0.000012   0.000000   0.000000   0.000002
    20  C   -0.000313   4.793905   0.550092  -0.052134  -0.023569  -0.054268
    21  C   -0.000012   0.550092   4.961558   0.496225  -0.064168  -0.036014
    22  C    0.000000  -0.052134   0.496225   4.995294   0.518279  -0.051214
    23  C    0.000000  -0.023569  -0.064168   0.518279   4.965629   0.519265
    24  C    0.000002  -0.054268  -0.036014  -0.051214   0.519265   5.003671
    25  C    0.000170   0.542132  -0.053465  -0.036668  -0.065268   0.494859
    26  H    0.000006   0.000007   0.000055   0.000003   0.000000  -0.000006
    27  H   -0.000003   0.001871  -0.000680  -0.000216   0.000040   0.000225
    28  H    0.000000   0.000000   0.000000   0.000000   0.000000   0.000000
    29  H    0.000000   0.000000   0.000000   0.000000   0.000000   0.000000
    30  H    0.000000   0.000000   0.000000   0.000000   0.000000   0.000000
    31  H    0.000000  -0.000001   0.000000   0.000000   0.000000   0.000000
    32  H   -0.003510   0.003211   0.000252  -0.000006   0.000000   0.000002
    33  H    0.002447  -0.002261   0.000605  -0.000110  -0.000001  -0.000018
    34  H    0.006342   0.000428  -0.000014  -0.000008  -0.000002   0.000098
    35  H    0.002736   0.000000   0.000000   0.000000   0.000000   0.000000
    36  H    0.377174   0.000002   0.000000   0.000000   0.000000   0.000000
    37  H    0.000000  -0.028827   0.373342  -0.016713   0.002242  -0.000026
    38  H    0.000000   0.001475  -0.017219   0.370703  -0.023004   0.002218
    39  H    0.000000   0.000087   0.002835  -0.023373   0.375056  -0.024374
    40  H    0.000000   0.001365   0.000410   0.002223  -0.022388   0.371107
    41  H   -0.000024  -0.028430   0.002392  -0.000021   0.002182  -0.018109
             25         26         27         28         29         30
     1  O   -0.000004   0.003474   0.002682   0.000000   0.000000  -0.000004
     2  C    0.000563  -0.056657  -0.036597   0.000000   0.000000  -0.000001
     3  C   -0.003379   0.408332   0.381671   0.000001   0.000000   0.000002
     4  N    0.000087  -0.045252  -0.035079  -0.000102  -0.000006  -0.000102
     5  N    0.000025   0.001194   0.006054  -0.000082   0.000002   0.000001
     6  N    0.000000  -0.000094   0.000091   0.001048  -0.000066  -0.000004
     7  C    0.000000   0.000182  -0.000200  -0.021566   0.002930   0.000452
     8  C    0.000000  -0.000012  -0.000004   0.363045  -0.020477   0.002372
     9  C    0.000000   0.000000   0.000000  -0.020433   0.375339  -0.025358
    10  C    0.000000  -0.000009   0.000001   0.002094  -0.026334   0.373959
    11  C    0.000000  -0.000117   0.000042  -0.000035   0.002490  -0.021453
    12  C    0.000001   0.000335   0.003930   0.003115   0.000314   0.002894
    13  N   -0.076383   0.003943   0.003962   0.000000   0.000000   0.000000
    14  C    0.001040  -0.000127   0.000012   0.000000   0.000000   0.000000
    15  C    0.000951   0.000037   0.000002   0.000000   0.000000   0.000000
    16  C   -0.001392   0.000000   0.000000   0.000000   0.000000   0.000000
    17  C   -0.000185   0.000000   0.000000   0.000000   0.000000   0.000000
    18  S    0.000049   0.000000   0.000000   0.000000   0.000000   0.000000
    19  C    0.000170   0.000006  -0.000003   0.000000   0.000000   0.000000
    20  C    0.542132   0.000007   0.001871   0.000000   0.000000   0.000000
    21  C   -0.053465   0.000055  -0.000680   0.000000   0.000000   0.000000
    22  C   -0.036668   0.000003  -0.000216   0.000000   0.000000   0.000000
    23  C   -0.065268   0.000000   0.000040   0.000000   0.000000   0.000000
    24  C    0.494859  -0.000006   0.000225   0.000000   0.000000   0.000000
    25  C    5.002759   0.000086   0.000889   0.000000   0.000000   0.000000
    26  H    0.000086   0.470868  -0.016871   0.000000   0.000000   0.000000
    27  H    0.000889  -0.016871   0.435054   0.000000   0.000000   0.000000
    28  H    0.000000   0.000000   0.000000   0.434583  -0.000138  -0.000087
    29  H    0.000000   0.000000   0.000000  -0.000138   0.462410  -0.000308
    30  H    0.000000   0.000000   0.000000  -0.000087  -0.000308   0.461272
    31  H    0.000000   0.000614   0.000025   0.000007  -0.000081  -0.000003
    32  H   -0.000120  -0.000015  -0.000010   0.000000   0.000000   0.000000
    33  H    0.000059   0.000000  -0.000004   0.000000   0.000000   0.000000
    34  H    0.000933   0.000000   0.000000   0.000000   0.000000   0.000000
    35  H   -0.000005   0.000000   0.000000   0.000000   0.000000   0.000000
    36  H    0.000001   0.000000  -0.000002   0.000000   0.000000   0.000000
    37  H    0.002570   0.000004   0.000079   0.000000   0.000000   0.000000
    38  H    0.000431   0.000000  -0.000001   0.000000   0.000000   0.000000
    39  H    0.002840   0.000000   0.000000   0.000000   0.000000   0.000000
    40  H   -0.018938   0.000000  -0.000002   0.000000   0.000000   0.000000
    41  H    0.374046  -0.000004   0.000062   0.000000   0.000000   0.000000
             31         32         33         34         35         36
     1  O    0.009281   0.002586   0.000570   0.000000   0.000000   0.006297
     2  C    0.000189  -0.003192   0.006139   0.000004   0.000000  -0.000007
     3  C   -0.001349   0.000236   0.000000   0.000000   0.000000   0.000062
     4  N   -0.002769  -0.000006   0.000005   0.000000   0.000000   0.000000
     5  N   -0.000003   0.000000   0.000000   0.000000   0.000000   0.000000
     6  N   -0.000081   0.000000   0.000000   0.000000   0.000000   0.000000
     7  C    0.001213   0.000000   0.000000   0.000000   0.000000   0.000000
     8  C    0.000084   0.000000   0.000000   0.000000   0.000000   0.000000
     9  C    0.001792   0.000000   0.000000   0.000000   0.000000   0.000000
    10  C   -0.015693   0.000000   0.000000   0.000000   0.000000   0.000000
    11  C    0.363700   0.000002   0.000000   0.000000   0.000000   0.000000
    12  C   -0.025460   0.000002   0.000000   0.000000   0.000000   0.000000
    13  N    0.000103  -0.041733  -0.050231  -0.000236   0.000001  -0.000618
    14  C   -0.000002   0.416862   0.424509  -0.001310  -0.000084   0.000701
    15  C    0.000000  -0.047865  -0.061020  -0.028975   0.000283  -0.012271
    16  C    0.000000   0.002401  -0.002026   0.375166  -0.010705   0.001279
    17  C    0.000000  -0.000186   0.000359  -0.023884   0.382751   0.001637
    18  S    0.000000   0.000003  -0.000151   0.002501  -0.017039  -0.012306
    19  C    0.000000  -0.003510   0.002447   0.006342   0.002736   0.377174
    20  C   -0.000001   0.003211  -0.002261   0.000428   0.000000   0.000002
    21  C    0.000000   0.000252   0.000605  -0.000014   0.000000   0.000000
    22  C    0.000000  -0.000006  -0.000110  -0.000008   0.000000   0.000000
    23  C    0.000000   0.000000  -0.000001  -0.000002   0.000000   0.000000
    24  C    0.000000   0.000002  -0.000018   0.000098   0.000000   0.000000
    25  C    0.000000  -0.000120   0.000059   0.000933  -0.000005   0.000001
    26  H    0.000614  -0.000015   0.000000   0.000000   0.000000   0.000000
    27  H    0.000025  -0.000010  -0.000004   0.000000   0.000000  -0.000002
    28  H    0.000007   0.000000   0.000000   0.000000   0.000000   0.000000
    29  H   -0.000081   0.000000   0.000000   0.000000   0.000000   0.000000
    30  H   -0.000003   0.000000   0.000000   0.000000   0.000000   0.000000
    31  H    0.401987   0.000001   0.000000   0.000000   0.000000   0.000002
    32  H    0.000001   0.456757  -0.022541   0.000012   0.000001   0.000335
    33  H    0.000000  -0.022541   0.508634   0.000488  -0.000003  -0.000024
    34  H    0.000000   0.000012   0.000488   0.448973   0.000791  -0.000067
    35  H    0.000000   0.000001  -0.000003   0.000791   0.412514  -0.000012
    36  H    0.000002   0.000335  -0.000024  -0.000067  -0.000012   0.369909
    37  H    0.000000  -0.000006   0.000032   0.000000   0.000000   0.000000
    38  H    0.000000   0.000000   0.000001   0.000000   0.000000   0.000000
    39  H    0.000000   0.000000   0.000000   0.000000   0.000000   0.000000
    40  H    0.000000   0.000000  -0.000001   0.000002   0.000000   0.000000
    41  H    0.000000   0.000014   0.000029   0.000013   0.000001   0.000000
             37         38         39         40         41
     1  O   -0.000027   0.000000   0.000000   0.000000  -0.000036
     2  C    0.000346   0.000000   0.000000   0.000000   0.000275
     3  C   -0.000097  -0.000003   0.000000  -0.000002   0.000052
     4  N   -0.000063   0.000000   0.000000   0.000000   0.000001
     5  N    0.001747  -0.000010   0.000000   0.000000   0.000001
     6  N    0.000033   0.000000   0.000000   0.000000   0.000000
     7  C   -0.000011   0.000000   0.000000   0.000000   0.000000
     8  C    0.000000   0.000000   0.000000   0.000000   0.000000
     9  C    0.000000   0.000000   0.000000   0.000000   0.000000
    10  C    0.000000   0.000000   0.000000   0.000000   0.000000
    11  C    0.000000   0.000000   0.000000   0.000000   0.000000
    12  C    0.000022   0.000000   0.000000   0.000000   0.000000
    13  N   -0.001695  -0.000136   0.000001  -0.000133  -0.001632
    14  C    0.000254   0.000002   0.000000   0.000001  -0.000038
    15  C    0.000007   0.000000   0.000000  -0.000001   0.000648
    16  C    0.000000   0.000000   0.000000  -0.000007   0.001664
    17  C    0.000000   0.000000   0.000000   0.000000   0.000219
    18  S    0.000000   0.000000   0.000000   0.000000  -0.000061
    19  C    0.000000   0.000000   0.000000   0.000000  -0.000024
    20  C   -0.028827   0.001475   0.000087   0.001365  -0.028430
    21  C    0.373342  -0.017219   0.002835   0.000410   0.002392
    22  C   -0.016713   0.370703  -0.023373   0.002223  -0.000021
    23  C    0.002242  -0.023004   0.375056  -0.022388   0.002182
    24  C   -0.000026   0.002218  -0.024374   0.371107  -0.018109
    25  C    0.002570   0.000431   0.002840  -0.018938   0.374046
    26  H    0.000004   0.000000   0.000000   0.000000  -0.000004
    27  H    0.000079  -0.000001   0.000000  -0.000002   0.000062
    28  H    0.000000   0.000000   0.000000   0.000000   0.000000
    29  H    0.000000   0.000000   0.000000   0.000000   0.000000
    30  H    0.000000   0.000000   0.000000   0.000000   0.000000
    31  H    0.000000   0.000000   0.000000   0.000000   0.000000
    32  H   -0.000006   0.000000   0.000000   0.000000   0.000014
    33  H    0.000032   0.000001   0.000000  -0.000001   0.000029
    34  H    0.000000   0.000000   0.000000   0.000002   0.000013
    35  H    0.000000   0.000000   0.000000   0.000000   0.000001
    36  H    0.000000   0.000000   0.000000   0.000000   0.000000
    37  H    0.431228  -0.000138  -0.000094   0.000007  -0.000100
    38  H   -0.000138   0.448170  -0.000220  -0.000111   0.000007
    39  H   -0.000094  -0.000220   0.456259  -0.000235  -0.000093
    40  H    0.000007  -0.000111  -0.000235   0.454842  -0.000043
    41  H   -0.000100   0.000007  -0.000093  -0.000043   0.432673
 Mulliken atomic charges:
              1
     1  O   -0.636212
     2  C    0.800206
     3  C   -0.106264
     4  N   -0.877986
     5  N    0.085726
     6  N   -0.338465
     7  C   -0.015612
     8  C   -0.084384
     9  C   -0.229889
    10  C   -0.212615
    11  C   -0.061734
    12  C    0.441629
    13  N   -0.918466
    14  C   -0.102459
    15  C    0.063104
    16  C   -0.087411
    17  C   -0.565162
    18  S    0.457868
    19  C   -0.569542
    20  C    0.216869
    21  C   -0.143215
    22  C   -0.206900
    23  C   -0.184576
    24  C   -0.211812
    25  C   -0.168685
    26  H    0.230025
    27  H    0.252981
    28  H    0.238552
    29  H    0.203924
    30  H    0.206366
    31  H    0.266446
    32  H    0.236512
    33  H    0.194514
    34  H    0.218745
    35  H    0.228769
    36  H    0.267908
    37  H    0.235885
    38  H    0.217835
    39  H    0.211312
    40  H    0.211904
    41  H    0.234314
 Sum of Mulliken atomic charges =   0.00000
 Mulliken charges with hydrogens summed into heavy atoms:
              1
     1  O   -0.636212
     2  C    0.800206
     3  C    0.376741
     4  N   -0.877986
     5  N    0.085726
     6  N   -0.338465
     7  C   -0.015612
     8  C    0.154167
     9  C   -0.025964
    10  C   -0.006248
    11  C    0.204712
    12  C    0.441629
    13  N   -0.918466
    14  C    0.328566
    15  C    0.063104
    16  C    0.131334
    17  C   -0.336393
    18  S    0.457868
    19  C   -0.301634
    20  C    0.216869
    21  C    0.092670
    22  C    0.010935
    23  C    0.026735
    24  C    0.000092
    25  C    0.065629
 Sum of Mulliken charges with hydrogens summed into heavy atoms =   0.00000
 Electronic spatial extent (au):  <R**2>=          10566.3026
 Charge=              0.0000 electrons
 Dipole moment (field-independent basis, Debye):
    X=             -2.1867    Y=              1.3402    Z=             -0.4673  Tot=              2.6069
 Quadrupole moment (field-independent basis, Debye-Ang):
   XX=           -148.3884   YY=           -153.4216   ZZ=           -150.1916
   XY=            -24.7488   XZ=              1.3251   YZ=              0.9241
 Traceless Quadrupole moment (field-independent basis, Debye-Ang):
   XX=              2.2788   YY=             -2.7544   ZZ=              0.4756
   XY=            -24.7488   XZ=              1.3251   YZ=              0.9241
 Octapole moment (field-independent basis, Debye-Ang**2):
  XXX=              8.7059  YYY=             35.9063  ZZZ=             -2.4259  XYY=              0.9974
  XXY=            -29.9047  XXZ=             11.8655  XZZ=             -2.2892  YZZ=              9.3918
  YYZ=             -3.6604  XYZ=              8.6517
 Hexadecapole moment (field-independent basis, Debye-Ang**3):
 XXXX=          -9394.7900 YYYY=          -3673.6823 ZZZZ=           -560.0562 XXXY=           -459.5111
 XXXZ=            211.4916 YYYX=           -302.7438 YYYZ=             25.0336 ZZZX=              1.2249
 ZZZY=              3.2424 XXYY=          -2483.3924 XXZZ=          -1885.9231 YYZZ=           -770.7504
 XXYZ=            -39.7701 YYXZ=             38.7183 ZZXY=            -10.5348
 N-N= 2.186358784062D+03 E-N=-7.703341088528D+03  KE= 1.419625424950D+03
 No NMR shielding tensors so no spin-rotation constants.
 Leave Link  601 at Fri Aug 26 15:01:11 2022, MaxMem=  209715200 cpu:       1.1
 (Enter /opt/gaussian/l9999.exe)
 1\1\GINC-LQCAPF-6\FOpt\RHF\6-31G\C19H16N4O1S1\LQCAPF-6\26-Aug-2022\0\\
 #p opt hf/6-31G\\Mol09.out\\0,1\O,21.8978961607,-8.7797844084,-1.73823
 15917\C,20.7071257833,-8.6639503177,-1.4364360927\C,19.9779316878,-7.3
 978592237,-1.8584342253\N,20.3995178445,-6.2719935583,-1.0558015583\N,
 19.5301800901,-5.7204058439,-0.1605946437\N,20.0703462302,-4.712429499
 8,0.3897699738\C,21.3430771427,-4.545154073,-0.1300457274\C,22.3131038
 56,-3.5797251364,0.1425134284\C,23.4946286156,-3.6657863926,-0.5501334
 829\C,23.714614128,-4.6979430234,-1.4912835356\C,22.7684982408,-5.6566
 3903,-1.7629419337\C,21.562500647,-5.55317319,-1.0613070279\N,20.05162
 40649,-9.6125084917,-0.728849346\C,20.8224072899,-10.790795975,-0.2768
 447092\C,20.8557221128,-11.918344328,-1.2781367566\C,19.9453258975,-13
 .0458013018,-1.2422668111\C,20.1419047945,-13.9394532189,-2.2236644911
 \S,21.4914879205,-13.4544384714,-3.2931451472\C,21.7318586241,-11.9904
 890473,-2.2968979402\C,18.6482908957,-9.573188723,-0.428799498\C,18.20
 54207235,-8.9703597959,0.7411191686\C,16.8518863883,-8.9604001166,1.04
 42173162\C,15.9407561613,-9.5549533391,0.1827929466\C,16.3839638492,-1
 0.158076433,-0.9858688498\C,17.7371475127,-10.1685781341,-1.2931646182
 \H,20.2310855931,-7.2135932003,-2.892707928\H,18.9105100924,-7.4681045
 884,-1.761425508\H,22.127049649,-2.8097460246,0.8637504551\H,24.271289
 8114,-2.9472703151,-0.376730675\H,24.6575165572,-4.736879533,-2.001394
 6673\H,22.953154078,-6.4619596631,-2.4419140408\H,21.8242806089,-10.45
 63461879,-0.0643845915\H,20.3725548512,-11.1260397278,0.6464799096\H,1
 9.1858711173,-13.1556542151,-0.4944029211\H,19.6146367966,-14.84743662
 72,-2.4100992553\H,22.4931102009,-11.2863403486,-2.5461006656\H,18.912
 9431837,-8.49860729,1.3935866167\H,16.512771627,-8.4834206706,1.942520
 516\H,14.8942376722,-9.5441330779,0.4178615722\H,15.6825843832,-10.616
 2036867,-1.6556678269\H,18.0891871164,-10.6366337708,-2.1915358369\\Ve
 rsion=EM64L-G09RevC.01\State=1-A\HF=-1418.4622344\RMSD=5.659e-09\RMSF=
 7.506e-06\Dipole=-0.7578999,-0.6861657,-0.0819182\Quadrupole=6.6198629
 ,-5.060879,-1.558984,16.1062332,1.3881641,-6.806651\PG=C01 [X(C19H16N4
 O1S1)]\\@


 ... SUBJECTS WHICH DISCLOSE THEIR FULL POWER, MEANING AND BEAUTY AS SOON
 AS THEY ARE PRESENTED TO THE MIND HAVE VERY LITTLE OF THOSE QUALITIES
 TO DISCLOSE.
                           -- CHARLES DUTTON (1882)
 Job cpu time:  0 days  2 hours 22 minutes 57.5 seconds.
 File lengths (MBytes):  RWF=     49 Int=      0 D2E=      0 Chk=      7 Scr=      1
 Normal termination of Gaussian 09 at Fri Aug 26 15:01:11 2022.
