 Entering Gaussian System, Link 0=g09
 Input=Mol07.gjf
 Output=Mol07.log
 Initial command:
 /opt/gaussian/l1.exe /home/scr/lqcapf-6/Gau-218540.inp -scrdir=/home/scr/lqcapf-6/
 Entering Link 1 = /opt/gaussian/l1.exe PID=    218542.
  
 Copyright (c) 1988,1990,1992,1993,1995,1998,2003,2009,2011,
            Gaussian, Inc.  All Rights Reserved.
  
 This is part of the Gaussian(R) 09 program.  It is based on
 the Gaussian(R) 03 system (copyright 2003, Gaussian, Inc.),
 the Gaussian(R) 98 system (copyright 1998, Gaussian, Inc.),
 the Gaussian(R) 94 system (copyright 1995, Gaussian, Inc.),
 the Gaussian 92(TM) system (copyright 1992, Gaussian, Inc.),
 the Gaussian 90(TM) system (copyright 1990, Gaussian, Inc.),
 the Gaussian 88(TM) system (copyright 1988, Gaussian, Inc.),
 the Gaussian 86(TM) system (copyright 1986, Carnegie Mellon
 University), and the Gaussian 82(TM) system (copyright 1983,
 Carnegie Mellon University). Gaussian is a federally registered
 trademark of Gaussian, Inc.
  
 This software contains proprietary and confidential information,
 including trade secrets, belonging to Gaussian, Inc.
  
 This software is provided under written license and may be
 used, copied, transmitted, or stored only in accord with that
 written license.
  
 The following legend is applicable only to US Government
 contracts under FAR:
  
                    RESTRICTED RIGHTS LEGEND
  
 Use, reproduction and disclosure by the US Government is
 subject to restrictions as set forth in subparagraphs (a)
 and (c) of the Commercial Computer Software - Restricted
 Rights clause in FAR 52.227-19.
  
 Gaussian, Inc.
 340 Quinnipiac St., Bldg. 40, Wallingford CT 06492
  
  
 ---------------------------------------------------------------
 Warning -- This program may not be used in any manner that
 competes with the business of Gaussian, Inc. or will provide
 assistance to any competitor of Gaussian, Inc.  The licensee
 of this program is prohibited from giving any competitor of
 Gaussian, Inc. access to this program.  By using this program,
 the user acknowledges that Gaussian, Inc. is engaged in the
 business of creating and licensing software in the field of
 computational chemistry and represents and warrants to the
 licensee that it is not a competitor of Gaussian, Inc. and that
 it will not use this program in any manner prohibited above.
 ---------------------------------------------------------------
  

 Cite this work as:
 Gaussian 09, Revision C.01,
 M. J. Frisch, G. W. Trucks, H. B. Schlegel, G. E. Scuseria, 
 M. A. Robb, J. R. Cheeseman, G. Scalmani, V. Barone, B. Mennucci, 
 G. A. Petersson, H. Nakatsuji, M. Caricato, X. Li, H. P. Hratchian, 
 A. F. Izmaylov, J. Bloino, G. Zheng, J. L. Sonnenberg, M. Hada, 
 M. Ehara, K. Toyota, R. Fukuda, J. Hasegawa, M. Ishida, T. Nakajima, 
 Y. Honda, O. Kitao, H. Nakai, T. Vreven, J. A. Montgomery, Jr., 
 J. E. Peralta, F. Ogliaro, M. Bearpark, J. J. Heyd, E. Brothers, 
 K. N. Kudin, V. N. Staroverov, T. Keith, R. Kobayashi, J. Normand, 
 K. Raghavachari, A. Rendell, J. C. Burant, S. S. Iyengar, J. Tomasi, 
 M. Cossi, N. Rega, J. M. Millam, M. Klene, J. E. Knox, J. B. Cross, 
 V. Bakken, C. Adamo, J. Jaramillo, R. Gomperts, R. E. Stratmann, 
 O. Yazyev, A. J. Austin, R. Cammi, C. Pomelli, J. W. Ochterski, 
 R. L. Martin, K. Morokuma, V. G. Zakrzewski, G. A. Voth, 
 P. Salvador, J. J. Dannenberg, S. Dapprich, A. D. Daniels, 
 O. Farkas, J. B. Foresman, J. V. Ortiz, J. Cioslowski, 
 and D. J. Fox, Gaussian, Inc., Wallingford CT, 2010.
 
 ******************************************
 Gaussian 09:  EM64L-G09RevC.01 23-Sep-2011
                26-Aug-2022 
 ******************************************
 %nprocshared=8
 Will use up to    8 processors via shared memory.
 %mem=1600MB
 ---------------
 #p opt hf/6-31G
 ---------------
 1/18=20,19=15,38=1/1,3;
 2/9=110,12=2,17=6,18=5,40=1/2;
 3/5=1,6=6,11=9,16=1,25=1,30=1,71=1/1,2,3;
 4//1;
 5/5=2,38=5/2;
 6/7=2,8=2,9=2,10=2,28=1/1;
 7//1,2,3,16;
 1/18=20,19=15/3(2);
 2/9=110/2;
 99//99;
 2/9=110/2;
 3/5=1,6=6,11=9,16=1,25=1,30=1,71=1/1,2,3;
 4/5=5,16=3/1;
 5/5=2,38=5/2;
 7//1,2,3,16;
 1/18=20,19=15/3(-5);
 2/9=110/2;
 6/7=2,8=2,9=2,10=2,19=2,28=1/1;
 99/9=1/99;
 Leave Link    1 at Fri Aug 26 13:42:23 2022, MaxMem=  209715200 cpu:       0.1
 (Enter /opt/gaussian/l101.exe)
 ---------
 Mol07.out
 ---------
 Charge =  0 Multiplicity = 1
 Symbolic Z-Matrix:
 O                     15.5026  -8.1441   -1.5299 
 C                     16.6845  -8.2256   -1.9105 
 C                     17.7768  -8.5169   -0.8709 
 N                     18.5132  -9.7317   -1.1101 
 N                     18.028   -10.8485  -1.7251 
 N                     18.8559  -11.7982  -1.7007 
 C                     20.0341  -11.3815  -1.0098 
 C                     19.8033  -10.007   -0.6118 
 C                     20.7695  -9.2825    0.093 
 C                     21.9539  -9.9423    0.3913 
 C                     22.1843  -11.2769   0.0087 
 C                     21.2389  -12.0135  -0.6923 
 N                     17.0325  -8.0642   -3.241 
 C                     15.999   -7.8541   -4.2401 
 C                     15.6551  -6.432    -4.517 
 C                     14.434   -5.8519   -4.2361 
 S                     14.3788  -4.2625   -4.738 
 C                     15.9436  -4.2742   -5.3296 
 C                     16.5403  -5.5022   -5.1569 
 C                     18.3844  -7.984    -3.6714 
 C                     19.2073  -6.8991   -3.303 
 C                     20.5179  -6.8234   -3.7623 
 C                     21.0451  -7.818    -4.5963 
 C                     20.2292  -8.8973   -4.9619 
 C                     18.9165  -8.9842   -4.5125 
 C                     22.4198  -7.7328   -5.0845 
 C                     22.9455  -6.5085   -5.5212 
 C                     24.2522  -6.4352   -5.9994 
 C                     25.0492  -7.5792   -6.0415 
 C                     24.5348  -8.7992   -5.6031 
 C                     23.227   -8.8788   -5.1293 
 H                     17.2592  -8.5863    0.1318 
 H                     18.5099  -7.66     -0.8507 
 H                     20.5983  -8.2411    0.3946 
 H                     22.7405  -9.406     0.945 
 H                     23.1437  -11.7455   0.2755 
 H                     21.4233  -13.0562  -0.9879 
 H                     16.3521  -8.3319   -5.2009 
 H                     15.0701  -8.3933   -3.8879 
 H                     13.6018  -6.3502   -3.7391 
 H                     16.4054  -3.4034   -5.7908 
 H                     17.5586  -5.7643   -5.4527 
 H                     18.8141  -6.0989   -2.6566 
 H                     21.1485  -5.9711   -3.4652 
 H                     20.6307  -9.6861   -5.6174 
 H                     18.2952  -9.8428   -4.8138 
 H                     22.318   -5.6051   -5.4943 
 H                     24.6544  -5.472    -6.3466 
 H                     26.0795  -7.5198   -6.4217 
 H                     25.1618  -9.7027   -5.6304 
 H                     22.8253  -9.8425   -4.7815 
 
 NAtoms=     51 NQM=        0 NQMF=       0 NMMI=     51 NMMIF=      0
                NMic=       0 NMicF=      0.
                    Isotopes and Nuclear Properties:
 (Nuclear quadrupole moments (NQMom) in fm**2, nuclear magnetic moments (NMagM)
  in nuclear magnetons)

  Atom         1           2           3           4           5           6           7           8           9          10
 IAtWgt=          16          12          12          14          14          14          12          12          12          12
 AtmWgt=  15.9949146  12.0000000  12.0000000  14.0030740  14.0030740  14.0030740  12.0000000  12.0000000  12.0000000  12.0000000
 NucSpn=           0           0           0           2           2           2           0           0           0           0
 AtZEff=   0.0000000   0.0000000   0.0000000   0.0000000   0.0000000   0.0000000   0.0000000   0.0000000   0.0000000   0.0000000
 NQMom=    0.0000000   0.0000000   0.0000000   2.0440000   2.0440000   2.0440000   0.0000000   0.0000000   0.0000000   0.0000000
 NMagM=    0.0000000   0.0000000   0.0000000   0.4037610   0.4037610   0.4037610   0.0000000   0.0000000   0.0000000   0.0000000

  Atom        11          12          13          14          15          16          17          18          19          20
 IAtWgt=          12          12          14          12          12          12          32          12          12          12
 AtmWgt=  12.0000000  12.0000000  14.0030740  12.0000000  12.0000000  12.0000000  31.9720718  12.0000000  12.0000000  12.0000000
 NucSpn=           0           0           2           0           0           0           0           0           0           0
 AtZEff=   0.0000000   0.0000000   0.0000000   0.0000000   0.0000000   0.0000000   0.0000000   0.0000000   0.0000000   0.0000000
 NQMom=    0.0000000   0.0000000   2.0440000   0.0000000   0.0000000   0.0000000   0.0000000   0.0000000   0.0000000   0.0000000
 NMagM=    0.0000000   0.0000000   0.4037610   0.0000000   0.0000000   0.0000000   0.0000000   0.0000000   0.0000000   0.0000000

  Atom        21          22          23          24          25          26          27          28          29          30
 IAtWgt=          12          12          12          12          12          12          12          12          12          12
 AtmWgt=  12.0000000  12.0000000  12.0000000  12.0000000  12.0000000  12.0000000  12.0000000  12.0000000  12.0000000  12.0000000
 NucSpn=           0           0           0           0           0           0           0           0           0           0
 AtZEff=   0.0000000   0.0000000   0.0000000   0.0000000   0.0000000   0.0000000   0.0000000   0.0000000   0.0000000   0.0000000
 NQMom=    0.0000000   0.0000000   0.0000000   0.0000000   0.0000000   0.0000000   0.0000000   0.0000000   0.0000000   0.0000000
 NMagM=    0.0000000   0.0000000   0.0000000   0.0000000   0.0000000   0.0000000   0.0000000   0.0000000   0.0000000   0.0000000

  Atom        31          32          33          34          35          36          37          38          39          40
 IAtWgt=          12           1           1           1           1           1           1           1           1           1
 AtmWgt=  12.0000000   1.0078250   1.0078250   1.0078250   1.0078250   1.0078250   1.0078250   1.0078250   1.0078250   1.0078250
 NucSpn=           0           1           1           1           1           1           1           1           1           1
 AtZEff=   0.0000000   0.0000000   0.0000000   0.0000000   0.0000000   0.0000000   0.0000000   0.0000000   0.0000000   0.0000000
 NQMom=    0.0000000   0.0000000   0.0000000   0.0000000   0.0000000   0.0000000   0.0000000   0.0000000   0.0000000   0.0000000
 NMagM=    0.0000000   2.7928460   2.7928460   2.7928460   2.7928460   2.7928460   2.7928460   2.7928460   2.7928460   2.7928460

  Atom        41          42          43          44          45          46          47          48          49          50
 IAtWgt=           1           1           1           1           1           1           1           1           1           1
 AtmWgt=   1.0078250   1.0078250   1.0078250   1.0078250   1.0078250   1.0078250   1.0078250   1.0078250   1.0078250   1.0078250
 NucSpn=           1           1           1           1           1           1           1           1           1           1
 AtZEff=   0.0000000   0.0000000   0.0000000   0.0000000   0.0000000   0.0000000   0.0000000   0.0000000   0.0000000   0.0000000
 NQMom=    0.0000000   0.0000000   0.0000000   0.0000000   0.0000000   0.0000000   0.0000000   0.0000000   0.0000000   0.0000000
 NMagM=    2.7928460   2.7928460   2.7928460   2.7928460   2.7928460   2.7928460   2.7928460   2.7928460   2.7928460   2.7928460

  Atom        51
 IAtWgt=           1
 AtmWgt=   1.0078250
 NucSpn=           1
 AtZEff=   0.0000000
 NQMom=    0.0000000
 NMagM=    2.7928460
 Leave Link  101 at Fri Aug 26 13:42:23 2022, MaxMem=  209715200 cpu:       0.8
 (Enter /opt/gaussian/l103.exe)

 GradGradGradGradGradGradGradGradGradGradGradGradGradGradGradGradGradGrad
 Berny optimization.
 Initialization pass.
                           ----------------------------
                           !    Initial Parameters    !
                           ! (Angstroms and Degrees)  !
 --------------------------                            --------------------------
 ! Name  Definition              Value          Derivative Info.                !
 --------------------------------------------------------------------------------
 ! R1    R(1,2)                  1.2443         estimate D2E/DX2                !
 ! R2    R(2,3)                  1.5358         estimate D2E/DX2                !
 ! R3    R(2,13)                 1.3847         estimate D2E/DX2                !
 ! R4    R(3,4)                  1.4406         estimate D2E/DX2                !
 ! R5    R(3,32)                 1.1305         estimate D2E/DX2                !
 ! R6    R(3,33)                 1.1279         estimate D2E/DX2                !
 ! R7    R(4,5)                  1.3641         estimate D2E/DX2                !
 ! R8    R(4,8)                  1.4101         estimate D2E/DX2                !
 ! R9    R(5,6)                  1.2601         estimate D2E/DX2                !
 ! R10   R(6,7)                  1.428          estimate D2E/DX2                !
 ! R11   R(7,8)                  1.4495         estimate D2E/DX2                !
 ! R12   R(7,12)                 1.3971         estimate D2E/DX2                !
 ! R13   R(8,9)                  1.3983         estimate D2E/DX2                !
 ! R14   R(9,10)                 1.3882         estimate D2E/DX2                !
 ! R15   R(9,34)                 1.0976         estimate D2E/DX2                !
 ! R16   R(10,11)                1.4073         estimate D2E/DX2                !
 ! R17   R(10,35)                1.1013         estimate D2E/DX2                !
 ! R18   R(11,12)                1.3884         estimate D2E/DX2                !
 ! R19   R(11,36)                1.1006         estimate D2E/DX2                !
 ! R20   R(12,37)                1.0994         estimate D2E/DX2                !
 ! R21   R(13,14)                1.4527         estimate D2E/DX2                !
 ! R22   R(13,20)                1.421          estimate D2E/DX2                !
 ! R23   R(14,15)                1.4891         estimate D2E/DX2                !
 ! R24   R(14,38)                1.1296         estimate D2E/DX2                !
 ! R25   R(14,39)                1.1303         estimate D2E/DX2                !
 ! R26   R(15,16)                1.3808         estimate D2E/DX2                !
 ! R27   R(15,19)                1.4344         estimate D2E/DX2                !
 ! R28   R(16,17)                1.6677         estimate D2E/DX2                !
 ! R29   R(16,40)                1.0899         estimate D2E/DX2                !
 ! R30   R(17,18)                1.6729         estimate D2E/DX2                !
 ! R31   R(18,19)                1.3762         estimate D2E/DX2                !
 ! R32   R(18,41)                1.0882         estimate D2E/DX2                !
 ! R33   R(19,42)                1.0923         estimate D2E/DX2                !
 ! R34   R(20,21)                1.4106         estimate D2E/DX2                !
 ! R35   R(20,25)                1.411          estimate D2E/DX2                !
 ! R36   R(21,22)                1.3908         estimate D2E/DX2                !
 ! R37   R(21,43)                1.1013         estimate D2E/DX2                !
 ! R38   R(22,23)                1.401          estimate D2E/DX2                !
 ! R39   R(22,44)                1.1011         estimate D2E/DX2                !
 ! R40   R(23,24)                1.4015         estimate D2E/DX2                !
 ! R41   R(23,26)                1.4613         estimate D2E/DX2                !
 ! R42   R(24,25)                1.3902         estimate D2E/DX2                !
 ! R43   R(24,45)                1.1014         estimate D2E/DX2                !
 ! R44   R(25,46)                1.1018         estimate D2E/DX2                !
 ! R45   R(26,27)                1.4021         estimate D2E/DX2                !
 ! R46   R(26,31)                1.4025         estimate D2E/DX2                !
 ! R47   R(27,28)                1.3934         estimate D2E/DX2                !
 ! R48   R(27,47)                1.1003         estimate D2E/DX2                !
 ! R49   R(28,29)                1.3949         estimate D2E/DX2                !
 ! R50   R(28,48)                1.1            estimate D2E/DX2                !
 ! R51   R(29,30)                1.3947         estimate D2E/DX2                !
 ! R52   R(29,49)                1.0998         estimate D2E/DX2                !
 ! R53   R(30,31)                1.3933         estimate D2E/DX2                !
 ! R54   R(30,50)                1.1001         estimate D2E/DX2                !
 ! R55   R(31,51)                1.1005         estimate D2E/DX2                !
 ! A1    A(1,2,3)              118.7448         estimate D2E/DX2                !
 ! A2    A(1,2,13)             121.666          estimate D2E/DX2                !
 ! A3    A(3,2,13)             119.589          estimate D2E/DX2                !
 ! A4    A(2,3,4)              114.2748         estimate D2E/DX2                !
 ! A5    A(2,3,32)             106.6415         estimate D2E/DX2                !
 ! A6    A(2,3,33)             109.2868         estimate D2E/DX2                !
 ! A7    A(4,3,32)             109.2409         estimate D2E/DX2                !
 ! A8    A(4,3,33)             108.1428         estimate D2E/DX2                !
 ! A9    A(32,3,33)            109.1677         estimate D2E/DX2                !
 ! A10   A(3,4,5)              125.6911         estimate D2E/DX2                !
 ! A11   A(3,4,8)              125.0041         estimate D2E/DX2                !
 ! A12   A(5,4,8)              108.9587         estimate D2E/DX2                !
 ! A13   A(4,5,6)              111.9989         estimate D2E/DX2                !
 ! A14   A(5,6,7)              109.3609         estimate D2E/DX2                !
 ! A15   A(6,7,8)              106.1524         estimate D2E/DX2                !
 ! A16   A(6,7,12)             133.5892         estimate D2E/DX2                !
 ! A17   A(8,7,12)             120.2584         estimate D2E/DX2                !
 ! A18   A(4,8,7)              103.5199         estimate D2E/DX2                !
 ! A19   A(4,8,9)              135.1648         estimate D2E/DX2                !
 ! A20   A(7,8,9)              121.3134         estimate D2E/DX2                !
 ! A21   A(8,9,10)             116.8458         estimate D2E/DX2                !
 ! A22   A(8,9,34)             121.4879         estimate D2E/DX2                !
 ! A23   A(10,9,34)            121.6663         estimate D2E/DX2                !
 ! A24   A(9,10,11)            122.1394         estimate D2E/DX2                !
 ! A25   A(9,10,35)            119.075          estimate D2E/DX2                !
 ! A26   A(11,10,35)           118.7856         estimate D2E/DX2                !
 ! A27   A(10,11,12)           121.9302         estimate D2E/DX2                !
 ! A28   A(10,11,36)           118.7237         estimate D2E/DX2                !
 ! A29   A(12,11,36)           119.3461         estimate D2E/DX2                !
 ! A30   A(7,12,11)            117.5129         estimate D2E/DX2                !
 ! A31   A(7,12,37)            120.8375         estimate D2E/DX2                !
 ! A32   A(11,12,37)           121.6495         estimate D2E/DX2                !
 ! A33   A(2,13,14)            119.926          estimate D2E/DX2                !
 ! A34   A(2,13,20)            122.4591         estimate D2E/DX2                !
 ! A35   A(14,13,20)           117.4093         estimate D2E/DX2                !
 ! A36   A(13,14,15)           115.4871         estimate D2E/DX2                !
 ! A37   A(13,14,38)           107.5415         estimate D2E/DX2                !
 ! A38   A(13,14,39)           107.5391         estimate D2E/DX2                !
 ! A39   A(15,14,38)           108.5402         estimate D2E/DX2                !
 ! A40   A(15,14,39)           108.8884         estimate D2E/DX2                !
 ! A41   A(38,14,39)           108.6705         estimate D2E/DX2                !
 ! A42   A(14,15,16)           124.5866         estimate D2E/DX2                !
 ! A43   A(14,15,19)           124.0203         estimate D2E/DX2                !
 ! A44   A(16,15,19)           111.3569         estimate D2E/DX2                !
 ! A45   A(15,16,17)           111.6205         estimate D2E/DX2                !
 ! A46   A(15,16,40)           125.1664         estimate D2E/DX2                !
 ! A47   A(17,16,40)           123.2098         estimate D2E/DX2                !
 ! A48   A(16,17,18)            93.9452         estimate D2E/DX2                !
 ! A49   A(17,18,19)           111.5571         estimate D2E/DX2                !
 ! A50   A(17,18,41)           122.7653         estimate D2E/DX2                !
 ! A51   A(19,18,41)           125.6775         estimate D2E/DX2                !
 ! A52   A(15,19,18)           111.5195         estimate D2E/DX2                !
 ! A53   A(15,19,42)           122.7224         estimate D2E/DX2                !
 ! A54   A(18,19,42)           125.7569         estimate D2E/DX2                !
 ! A55   A(13,20,21)           121.2842         estimate D2E/DX2                !
 ! A56   A(13,20,25)           119.9536         estimate D2E/DX2                !
 ! A57   A(21,20,25)           118.7413         estimate D2E/DX2                !
 ! A58   A(20,21,22)           120.353          estimate D2E/DX2                !
 ! A59   A(20,21,43)           120.2547         estimate D2E/DX2                !
 ! A60   A(22,21,43)           119.3896         estimate D2E/DX2                !
 ! A61   A(21,22,23)           120.8343         estimate D2E/DX2                !
 ! A62   A(21,22,44)           119.519          estimate D2E/DX2                !
 ! A63   A(23,22,44)           119.6467         estimate D2E/DX2                !
 ! A64   A(22,23,24)           118.8774         estimate D2E/DX2                !
 ! A65   A(22,23,26)           120.7637         estimate D2E/DX2                !
 ! A66   A(24,23,26)           120.3583         estimate D2E/DX2                !
 ! A67   A(23,24,25)           120.8978         estimate D2E/DX2                !
 ! A68   A(23,24,45)           119.6407         estimate D2E/DX2                !
 ! A69   A(25,24,45)           119.461          estimate D2E/DX2                !
 ! A70   A(20,25,24)           120.2956         estimate D2E/DX2                !
 ! A71   A(20,25,46)           120.1815         estimate D2E/DX2                !
 ! A72   A(24,25,46)           119.5222         estimate D2E/DX2                !
 ! A73   A(23,26,27)           120.5088         estimate D2E/DX2                !
 ! A74   A(23,26,31)           120.2969         estimate D2E/DX2                !
 ! A75   A(27,26,31)           119.1931         estimate D2E/DX2                !
 ! A76   A(26,27,28)           120.2933         estimate D2E/DX2                !
 ! A77   A(26,27,47)           119.702          estimate D2E/DX2                !
 ! A78   A(28,27,47)           120.0019         estimate D2E/DX2                !
 ! A79   A(27,28,29)           120.2014         estimate D2E/DX2                !
 ! A80   A(27,28,48)           119.8192         estimate D2E/DX2                !
 ! A81   A(29,28,48)           119.9793         estimate D2E/DX2                !
 ! A82   A(28,29,30)           119.8137         estimate D2E/DX2                !
 ! A83   A(28,29,49)           120.0923         estimate D2E/DX2                !
 ! A84   A(30,29,49)           120.0938         estimate D2E/DX2                !
 ! A85   A(29,30,31)           120.2034         estimate D2E/DX2                !
 ! A86   A(29,30,50)           120.027          estimate D2E/DX2                !
 ! A87   A(31,30,50)           119.7696         estimate D2E/DX2                !
 ! A88   A(26,31,30)           120.2939         estimate D2E/DX2                !
 ! A89   A(26,31,51)           119.6953         estimate D2E/DX2                !
 ! A90   A(30,31,51)           120.0095         estimate D2E/DX2                !
 ! D1    D(1,2,3,4)            119.5228         estimate D2E/DX2                !
 ! D2    D(1,2,3,32)            -1.2815         estimate D2E/DX2                !
 ! D3    D(1,2,3,33)          -119.164          estimate D2E/DX2                !
 ! D4    D(13,2,3,4)           -60.3025         estimate D2E/DX2                !
 ! D5    D(13,2,3,32)          178.8932         estimate D2E/DX2                !
 ! D6    D(13,2,3,33)           61.0107         estimate D2E/DX2                !
 ! D7    D(1,2,13,14)           -2.8535         estimate D2E/DX2                !
 ! D8    D(1,2,13,20)          171.7991         estimate D2E/DX2                !
 ! D9    D(3,2,13,14)          176.9665         estimate D2E/DX2                !
 ! D10   D(3,2,13,20)           -8.3808         estimate D2E/DX2                !
 ! D11   D(2,3,4,5)            -29.7623         estimate D2E/DX2                !
 ! D12   D(2,3,4,8)            157.7478         estimate D2E/DX2                !
 ! D13   D(32,3,4,5)            89.5886         estimate D2E/DX2                !
 ! D14   D(32,3,4,8)           -82.9014         estimate D2E/DX2                !
 ! D15   D(33,3,4,5)          -151.7048         estimate D2E/DX2                !
 ! D16   D(33,3,4,8)            35.8053         estimate D2E/DX2                !
 ! D17   D(3,4,5,6)           -174.5407         estimate D2E/DX2                !
 ! D18   D(8,4,5,6)             -1.0404         estimate D2E/DX2                !
 ! D19   D(3,4,8,7)            174.3576         estimate D2E/DX2                !
 ! D20   D(3,4,8,9)             -6.1675         estimate D2E/DX2                !
 ! D21   D(5,4,8,7)              0.802          estimate D2E/DX2                !
 ! D22   D(5,4,8,9)           -179.7231         estimate D2E/DX2                !
 ! D23   D(4,5,6,7)              0.7921         estimate D2E/DX2                !
 ! D24   D(5,6,7,8)             -0.2489         estimate D2E/DX2                !
 ! D25   D(5,6,7,12)           179.8215         estimate D2E/DX2                !
 ! D26   D(6,7,8,4)             -0.3512         estimate D2E/DX2                !
 ! D27   D(6,7,8,9)           -179.9179         estimate D2E/DX2                !
 ! D28   D(12,7,8,4)           179.5898         estimate D2E/DX2                !
 ! D29   D(12,7,8,9)             0.0231         estimate D2E/DX2                !
 ! D30   D(6,7,12,11)          179.9494         estimate D2E/DX2                !
 ! D31   D(6,7,12,37)           -0.1873         estimate D2E/DX2                !
 ! D32   D(8,7,12,11)            0.0277         estimate D2E/DX2                !
 ! D33   D(8,7,12,37)          179.891          estimate D2E/DX2                !
 ! D34   D(4,8,9,10)          -179.4352         estimate D2E/DX2                !
 ! D35   D(4,8,9,34)             0.5121         estimate D2E/DX2                !
 ! D36   D(7,8,9,10)            -0.0328         estimate D2E/DX2                !
 ! D37   D(7,8,9,34)           179.9146         estimate D2E/DX2                !
 ! D38   D(8,9,10,11)           -0.0075         estimate D2E/DX2                !
 ! D39   D(8,9,10,35)          179.9728         estimate D2E/DX2                !
 ! D40   D(34,9,10,11)        -179.9547         estimate D2E/DX2                !
 ! D41   D(34,9,10,35)           0.0256         estimate D2E/DX2                !
 ! D42   D(9,10,11,12)           0.0605         estimate D2E/DX2                !
 ! D43   D(9,10,11,36)        -179.943          estimate D2E/DX2                !
 ! D44   D(35,10,11,12)       -179.9199         estimate D2E/DX2                !
 ! D45   D(35,10,11,36)          0.0765         estimate D2E/DX2                !
 ! D46   D(10,11,12,7)          -0.0685         estimate D2E/DX2                !
 ! D47   D(10,11,12,37)       -179.9306         estimate D2E/DX2                !
 ! D48   D(36,11,12,7)         179.9351         estimate D2E/DX2                !
 ! D49   D(36,11,12,37)          0.073          estimate D2E/DX2                !
 ! D50   D(2,13,14,15)          91.2657         estimate D2E/DX2                !
 ! D51   D(2,13,14,38)        -147.3945         estimate D2E/DX2                !
 ! D52   D(2,13,14,39)         -30.5219         estimate D2E/DX2                !
 ! D53   D(20,13,14,15)        -83.6525         estimate D2E/DX2                !
 ! D54   D(20,13,14,38)         37.6873         estimate D2E/DX2                !
 ! D55   D(20,13,14,39)        154.5599         estimate D2E/DX2                !
 ! D56   D(2,13,20,21)         -65.9923         estimate D2E/DX2                !
 ! D57   D(2,13,20,25)         115.6917         estimate D2E/DX2                !
 ! D58   D(14,13,20,21)        108.7876         estimate D2E/DX2                !
 ! D59   D(14,13,20,25)        -69.5284         estimate D2E/DX2                !
 ! D60   D(13,14,15,16)       -114.2929         estimate D2E/DX2                !
 ! D61   D(13,14,15,19)         68.0862         estimate D2E/DX2                !
 ! D62   D(38,14,15,16)        124.9071         estimate D2E/DX2                !
 ! D63   D(38,14,15,19)        -52.7137         estimate D2E/DX2                !
 ! D64   D(39,14,15,16)          6.768          estimate D2E/DX2                !
 ! D65   D(39,14,15,19)       -170.8529         estimate D2E/DX2                !
 ! D66   D(14,15,16,17)       -177.567          estimate D2E/DX2                !
 ! D67   D(14,15,16,40)          3.0852         estimate D2E/DX2                !
 ! D68   D(19,15,16,17)          0.3158         estimate D2E/DX2                !
 ! D69   D(19,15,16,40)       -179.032          estimate D2E/DX2                !
 ! D70   D(14,15,19,18)        177.705          estimate D2E/DX2                !
 ! D71   D(14,15,19,42)         -2.6638         estimate D2E/DX2                !
 ! D72   D(16,15,19,18)         -0.1921         estimate D2E/DX2                !
 ! D73   D(16,15,19,42)        179.4392         estimate D2E/DX2                !
 ! D74   D(15,16,17,18)         -0.2826         estimate D2E/DX2                !
 ! D75   D(40,16,17,18)        179.0802         estimate D2E/DX2                !
 ! D76   D(16,17,18,19)          0.1698         estimate D2E/DX2                !
 ! D77   D(16,17,18,41)       -179.9431         estimate D2E/DX2                !
 ! D78   D(17,18,19,15)         -0.0156         estimate D2E/DX2                !
 ! D79   D(17,18,19,42)       -179.6333         estimate D2E/DX2                !
 ! D80   D(41,18,19,15)       -179.8987         estimate D2E/DX2                !
 ! D81   D(41,18,19,42)          0.4836         estimate D2E/DX2                !
 ! D82   D(13,20,21,22)       -178.4072         estimate D2E/DX2                !
 ! D83   D(13,20,21,43)          0.9929         estimate D2E/DX2                !
 ! D84   D(25,20,21,22)         -0.0712         estimate D2E/DX2                !
 ! D85   D(25,20,21,43)        179.3288         estimate D2E/DX2                !
 ! D86   D(13,20,25,24)        178.5682         estimate D2E/DX2                !
 ! D87   D(13,20,25,46)         -1.7326         estimate D2E/DX2                !
 ! D88   D(21,20,25,24)          0.2095         estimate D2E/DX2                !
 ! D89   D(21,20,25,46)        179.9087         estimate D2E/DX2                !
 ! D90   D(20,21,22,23)          0.0098         estimate D2E/DX2                !
 ! D91   D(20,21,22,44)       -179.926          estimate D2E/DX2                !
 ! D92   D(43,21,22,23)       -179.3954         estimate D2E/DX2                !
 ! D93   D(43,21,22,44)          0.6688         estimate D2E/DX2                !
 ! D94   D(21,22,23,24)         -0.0833         estimate D2E/DX2                !
 ! D95   D(21,22,23,26)        179.6296         estimate D2E/DX2                !
 ! D96   D(44,22,23,24)        179.8524         estimate D2E/DX2                !
 ! D97   D(44,22,23,26)         -0.4346         estimate D2E/DX2                !
 ! D98   D(22,23,24,25)          0.2234         estimate D2E/DX2                !
 ! D99   D(22,23,24,45)        179.9747         estimate D2E/DX2                !
 ! D100  D(26,23,24,25)       -179.4907         estimate D2E/DX2                !
 ! D101  D(26,23,24,45)          0.2606         estimate D2E/DX2                !
 ! D102  D(22,23,26,27)        -41.6628         estimate D2E/DX2                !
 ! D103  D(22,23,26,31)        138.7345         estimate D2E/DX2                !
 ! D104  D(24,23,26,27)        138.0459         estimate D2E/DX2                !
 ! D105  D(24,23,26,31)        -41.5568         estimate D2E/DX2                !
 ! D106  D(23,24,25,20)         -0.2892         estimate D2E/DX2                !
 ! D107  D(23,24,25,46)       -179.9904         estimate D2E/DX2                !
 ! D108  D(45,24,25,20)        179.9591         estimate D2E/DX2                !
 ! D109  D(45,24,25,46)          0.2579         estimate D2E/DX2                !
 ! D110  D(23,26,27,28)       -179.3034         estimate D2E/DX2                !
 ! D111  D(23,26,27,47)          0.0965         estimate D2E/DX2                !
 ! D112  D(31,26,27,28)          0.3036         estimate D2E/DX2                !
 ! D113  D(31,26,27,47)        179.7035         estimate D2E/DX2                !
 ! D114  D(23,26,31,30)        179.5728         estimate D2E/DX2                !
 ! D115  D(23,26,31,51)         -0.8519         estimate D2E/DX2                !
 ! D116  D(27,26,31,30)         -0.035          estimate D2E/DX2                !
 ! D117  D(27,26,31,51)        179.5402         estimate D2E/DX2                !
 ! D118  D(26,27,28,29)         -0.286          estimate D2E/DX2                !
 ! D119  D(26,27,28,48)        179.5739         estimate D2E/DX2                !
 ! D120  D(47,27,28,29)       -179.6842         estimate D2E/DX2                !
 ! D121  D(47,27,28,48)          0.1758         estimate D2E/DX2                !
 ! D122  D(27,28,29,30)         -0.003          estimate D2E/DX2                !
 ! D123  D(27,28,29,49)        179.8433         estimate D2E/DX2                !
 ! D124  D(48,28,29,30)       -179.8627         estimate D2E/DX2                !
 ! D125  D(48,28,29,49)         -0.0164         estimate D2E/DX2                !
 ! D126  D(28,29,30,31)          0.2719         estimate D2E/DX2                !
 ! D127  D(28,29,30,50)       -179.7173         estimate D2E/DX2                !
 ! D128  D(49,29,30,31)       -179.5744         estimate D2E/DX2                !
 ! D129  D(49,29,30,50)          0.4364         estimate D2E/DX2                !
 ! D130  D(29,30,31,26)         -0.2525         estimate D2E/DX2                !
 ! D131  D(29,30,31,51)       -179.8264         estimate D2E/DX2                !
 ! D132  D(50,30,31,26)        179.7368         estimate D2E/DX2                !
 ! D133  D(50,30,31,51)          0.1629         estimate D2E/DX2                !
 --------------------------------------------------------------------------------
 Trust Radius=3.00D-01 FncErr=1.00D-07 GrdErr=1.00D-07
 Number of steps in this run=    288 maximum allowed number of steps=    306.
 GradGradGradGradGradGradGradGradGradGradGradGradGradGradGradGradGradGrad

 Leave Link  103 at Fri Aug 26 13:42:23 2022, MaxMem=  209715200 cpu:       0.1
 (Enter /opt/gaussian/l202.exe)
 Stoichiometry    C25H20N4OS
 Framework group  C1[X(C25H20N4OS)]
 Deg. of freedom   147
 Full point group                 C1      NOp   1
 Largest Abelian subgroup         C1      NOp   1
 Largest concise Abelian subgroup C1      NOp   1
                         Standard orientation:                         
 ---------------------------------------------------------------------
 Center     Atomic      Atomic             Coordinates (Angstroms)
 Number     Number       Type             X           Y           Z
 ---------------------------------------------------------------------
      1          8           0       -3.040504   -2.729205    0.233143
      2          6           0       -2.003914   -2.041103    0.213609
      3          6           0       -0.765809   -2.549212    0.967045
      4          7           0        0.387113   -2.768700    0.131679
      5          7           0        0.359821   -3.125900   -1.184584
      6          7           0        1.513871   -3.356203   -1.635220
      7          6           0        2.473243   -3.179642   -0.592354
      8          6           0        1.721945   -2.793775    0.585602
      9          6           0        2.360333   -2.536997    1.802858
     10          6           0        3.741940   -2.670140    1.826494
     11          6           0        4.477550   -3.045217    0.686836
     12          6           0        3.863456   -3.303561   -0.531322
     13          7           0       -1.942357   -0.838716   -0.470395
     14          6           0       -3.087323   -0.383156   -1.239799
     15          6           0       -4.050237    0.482336   -0.504252
     16          6           0       -5.352356    0.130840   -0.208547
     17         16           0       -6.161305    1.366033    0.566721
     18          6           0       -4.842542    2.395270    0.550541
     19          6           0       -3.753151    1.811798   -0.054973
     20          6           0       -0.831592    0.041525   -0.367015
     21          6           0       -0.522789    0.691932    0.846039
     22          6           0        0.549316    1.575069    0.916890
     23          6           0        1.340568    1.835743   -0.209473
     24          6           0        1.035929    1.189088   -1.414993
     25          6           0       -0.034486    0.306176   -1.500841
     26          6           0        2.461721    2.770044   -0.135338
     27          6           0        2.337639    3.976436    0.568366
     28          6           0        3.404793    4.870639    0.624011
     29          6           0        4.607138    4.568940   -0.015568
     30          6           0        4.739631    3.368035   -0.712328
     31          6           0        3.673656    2.473129   -0.775613
     32          1           0       -1.062228   -3.524206    1.456592
     33          1           0       -0.484098   -1.804396    1.765799
     34          1           0        1.794378   -2.243273    2.696282
     35          1           0        4.282307   -2.476192    2.766349
     36          1           0        5.571353   -3.134819    0.769193
     37          1           0        4.442529   -3.597358   -1.418432
     38          1           0       -2.693220    0.192442   -2.128325
     39          1           0       -3.631999   -1.299728   -1.615113
     40          1           0       -5.809437   -0.832305   -0.435036
     41          1           0       -4.872700    3.397842    0.972677
     42          1           0       -2.772123    2.273922   -0.185948
     43          1           0       -1.135122    0.512178    1.743534
     44          1           0        0.778812    2.074286    1.871067
     45          1           0        1.649464    1.385085   -2.308440
     46          1           0       -0.253521   -0.189899   -2.459968
     47          1           0        1.388990    4.220072    1.069680
     48          1           0        3.296553    5.818053    1.172426
     49          1           0        5.447441    5.277211    0.027347
     50          1           0        5.687825    3.124445   -1.214101
     51          1           0        3.782639    1.525188   -1.323860
 ---------------------------------------------------------------------
 Rotational constants (GHZ):      0.1633281      0.1011298      0.0684556
 Leave Link  202 at Fri Aug 26 13:42:23 2022, MaxMem=  209715200 cpu:       0.0
 (Enter /opt/gaussian/l301.exe)
 Standard basis: 6-31G (6D, 7F)
 Ernie: Thresh=  0.10000D-02 Tol=  0.10000D-05 Strict=F.
 There are   323 symmetry adapted basis functions of A   symmetry.
 Integral buffers will be    131072 words long.
 Raffenetti 1 integral format.
 Two-electron integral symmetry is turned on.
   323 basis functions,   786 primitive gaussians,   323 cartesian basis functions
   111 alpha electrons      111 beta electrons
       nuclear repulsion energy      3000.7583575981 Hartrees.



 Warning!  S  atom   17 may be hypervalent but has no d functions.



 IExCor=    0 DFT=F Ex=HF Corr=None ExCW=0 ScaHFX=  1.000000
 ScaDFX=  1.000000  1.000000  1.000000  1.000000 ScalE2=  1.000000  1.000000
 IRadAn=      0 IRanWt=     -1 IRanGd=            0 ICorTp=0
 NAtoms=   51 NActive=   51 NUniq=   51 SFac= 1.00D+00 NAtFMM=   60 NAOKFM=F Big=F
 Leave Link  301 at Fri Aug 26 13:42:23 2022, MaxMem=  209715200 cpu:       0.2
 (Enter /opt/gaussian/l302.exe)
 NPDir=0 NMtPBC=     1 NCelOv=     1 NCel=       1 NClECP=     1 NCelD=      1
         NCelK=      1 NCelE2=     1 NClLst=     1 CellRange=     0.0.
 One-electron integrals computed using PRISM.
 NBasis=   323 RedAO= T  NBF=   323
 NBsUse=   323 1.00D-06 NBFU=   323
 Leave Link  302 at Fri Aug 26 13:42:23 2022, MaxMem=  209715200 cpu:       1.9
 (Enter /opt/gaussian/l303.exe)
 DipDrv:  MaxL=1.
 Leave Link  303 at Fri Aug 26 13:42:23 2022, MaxMem=  209715200 cpu:       0.4
 (Enter /opt/gaussian/l401.exe)
 Harris functional with IExCor=  205 diagonalized for initial guess.
 ExpMin= 1.17D-01 ExpMax= 2.19D+04 ExpMxC= 3.30D+03 IAcc=1 IRadAn=         1 AccDes= 0.00D+00
 HarFok:  IExCor=  205 AccDes= 0.00D+00 IRadAn=         1 IDoV= 1
 ScaDFX=  1.000000  1.000000  1.000000  1.000000
 FoFCou: FMM=F IPFlag=           0 FMFlag=      100000 FMFlg1=           0
         NFxFlg=           0 DoJE=T BraDBF=F KetDBF=T FulRan=T
         Omega=  0.000000  0.000000  1.000000  0.000000  0.000000 ICntrl=     500 IOpCl=  0
         NMat0=    1 NMatS0=    1 NMatT0=    0 NMatD0=    1 NMtDS0=    0 NMtDT0=    0
         I1Cent=           4 NGrid=           0.
 Petite list used in FoFCou.
 Harris En= -1649.07442198052    
 Initial guess orbital symmetries:
       Occupied  (A) (A) (A) (A) (A) (A) (A) (A) (A) (A) (A) (A)
                 (A) (A) (A) (A) (A) (A) (A) (A) (A) (A) (A) (A)
                 (A) (A) (A) (A) (A) (A) (A) (A) (A) (A) (A) (A)
                 (A) (A) (A) (A) (A) (A) (A) (A) (A) (A) (A) (A)
                 (A) (A) (A) (A) (A) (A) (A) (A) (A) (A) (A) (A)
                 (A) (A) (A) (A) (A) (A) (A) (A) (A) (A) (A) (A)
                 (A) (A) (A) (A) (A) (A) (A) (A) (A) (A) (A) (A)
                 (A) (A) (A) (A) (A) (A) (A) (A) (A) (A) (A) (A)
                 (A) (A) (A) (A) (A) (A) (A) (A) (A) (A) (A) (A)
                 (A) (A) (A)
       Virtual   (A) (A) (A) (A) (A) (A) (A) (A) (A) (A) (A) (A)
                 (A) (A) (A) (A) (A) (A) (A) (A) (A) (A) (A) (A)
                 (A) (A) (A) (A) (A) (A) (A) (A) (A) (A) (A) (A)
                 (A) (A) (A) (A) (A) (A) (A) (A) (A) (A) (A) (A)
                 (A) (A) (A) (A) (A) (A) (A) (A) (A) (A) (A) (A)
                 (A) (A) (A) (A) (A) (A) (A) (A) (A) (A) (A) (A)
                 (A) (A) (A) (A) (A) (A) (A) (A) (A) (A) (A) (A)
                 (A) (A) (A) (A) (A) (A) (A) (A) (A) (A) (A) (A)
                 (A) (A) (A) (A) (A) (A) (A) (A) (A) (A) (A) (A)
                 (A) (A) (A) (A) (A) (A) (A) (A) (A) (A) (A) (A)
                 (A) (A) (A) (A) (A) (A) (A) (A) (A) (A) (A) (A)
                 (A) (A) (A) (A) (A) (A) (A) (A) (A) (A) (A) (A)
                 (A) (A) (A) (A) (A) (A) (A) (A) (A) (A) (A) (A)
                 (A) (A) (A) (A) (A) (A) (A) (A) (A) (A) (A) (A)
                 (A) (A) (A) (A) (A) (A) (A) (A) (A) (A) (A) (A)
                 (A) (A) (A) (A) (A) (A) (A) (A) (A) (A) (A) (A)
                 (A) (A) (A) (A) (A) (A) (A) (A) (A) (A) (A) (A)
                 (A) (A) (A) (A) (A) (A) (A) (A)
 The electronic state of the initial guess is 1-A.
 Leave Link  401 at Fri Aug 26 13:42:24 2022, MaxMem=  209715200 cpu:       4.8
 (Enter /opt/gaussian/l502.exe)
 Closed shell SCF:
 Requested convergence on RMS density matrix=1.00D-08 within 128 cycles.
 Requested convergence on MAX density matrix=1.00D-06.
 Requested convergence on             energy=1.00D-06.
 No special actions if energy rises.
 Using DIIS extrapolation, IDIIS=  1040.
 Integral symmetry usage will be decided dynamically.
 IEnd=      336214 IEndB=      336214 NGot=   209715200 MDV=   209500279
 LenX=   209500279 LenY=   209395509
 Fock matrices will be formed incrementally for  20 cycles.
 Integral accuracy reduced to 1.0D-05 until final iterations.

 Cycle   1  Pass 0  IDiag  1:
 FoFCou: FMM=F IPFlag=           0 FMFlag=      100000 FMFlg1=           0
         NFxFlg=           0 DoJE=F BraDBF=F KetDBF=F FulRan=T
         Omega=  0.000000  0.000000  1.000000  0.000000  0.000000 ICntrl=       0 IOpCl=  0
         NMat0=    1 NMatS0=    1 NMatT0=    0 NMatD0=    1 NMtDS0=    0 NMtDT0=    0
         I1Cent=           0 NGrid=           0.
 Symmetry not used in FoFCou.
 E= -1646.89226030752    
 DIIS: error= 4.65D-02 at cycle   1 NSaved=   1.
 NSaved= 1 IEnMin= 1 EnMin= -1646.89226030752     IErMin= 1 ErrMin= 4.65D-02
 ErrMax= 4.65D-02 EMaxC= 1.00D-01 BMatC= 1.12D+00 BMatP= 1.12D+00
 IDIUse=3 WtCom= 5.35D-01 WtEn= 4.65D-01
 Coeff-Com:  0.100D+01
 Coeff-En:   0.100D+01
 Coeff:      0.100D+01
 Gap=     0.510 Goal=   None    Shift=    0.000
 GapD=    0.510 DampG=2.000 DampE=0.500 DampFc=1.0000 IDamp=-1.
 RMSDP=6.04D-03 MaxDP=1.65D-01              OVMax= 2.01D-01

 Cycle   2  Pass 0  IDiag  1:
 RMSU=  4.24D-03    CP:  9.69D-01
 E= -1647.66114828597     Delta-E=       -0.768887978445 Rises=F Damp=F
 DIIS: error= 2.48D-02 at cycle   2 NSaved=   2.
 NSaved= 2 IEnMin= 2 EnMin= -1647.66114828597     IErMin= 2 ErrMin= 2.48D-02
 ErrMax= 2.48D-02 EMaxC= 1.00D-01 BMatC= 2.21D-01 BMatP= 1.12D+00
 IDIUse=3 WtCom= 7.52D-01 WtEn= 2.48D-01
 Coeff-Com:  0.262D+00 0.738D+00
 Coeff-En:   0.000D+00 0.100D+01
 Coeff:      0.197D+00 0.803D+00
 Gap=     0.449 Goal=   None    Shift=    0.000
 RMSDP=2.87D-03 MaxDP=1.01D-01 DE=-7.69D-01 OVMax= 1.10D-01

 Cycle   3  Pass 0  IDiag  1:
 RMSU=  1.74D-03    CP:  9.69D-01  7.53D-01
 E= -1647.84616077369     Delta-E=       -0.185012487727 Rises=F Damp=F
 DIIS: error= 1.31D-02 at cycle   3 NSaved=   3.
 NSaved= 3 IEnMin= 3 EnMin= -1647.84616077369     IErMin= 3 ErrMin= 1.31D-02
 ErrMax= 1.31D-02 EMaxC= 1.00D-01 BMatC= 3.60D-02 BMatP= 2.21D-01
 IDIUse=3 WtCom= 8.69D-01 WtEn= 1.31D-01
 Coeff-Com:  0.916D-02 0.276D+00 0.715D+00
 Coeff-En:   0.000D+00 0.000D+00 0.100D+01
 Coeff:      0.796D-02 0.240D+00 0.752D+00
 Gap=     0.400 Goal=   None    Shift=    0.000
 RMSDP=9.53D-04 MaxDP=3.56D-02 DE=-1.85D-01 OVMax= 4.23D-02

 Cycle   4  Pass 0  IDiag  1:
 RMSU=  4.06D-04    CP:  9.70D-01  8.59D-01  8.29D-01
 E= -1647.87896294903     Delta-E=       -0.032802175337 Rises=F Damp=F
 DIIS: error= 4.49D-03 at cycle   4 NSaved=   4.
 NSaved= 4 IEnMin= 4 EnMin= -1647.87896294903     IErMin= 4 ErrMin= 4.49D-03
 ErrMax= 4.49D-03 EMaxC= 1.00D-01 BMatC= 3.99D-03 BMatP= 3.60D-02
 IDIUse=3 WtCom= 9.55D-01 WtEn= 4.49D-02
 Coeff-Com: -0.144D-01 0.285D-01 0.296D+00 0.690D+00
 Coeff-En:   0.000D+00 0.000D+00 0.000D+00 0.100D+01
 Coeff:     -0.138D-01 0.272D-01 0.282D+00 0.704D+00
 Gap=     0.390 Goal=   None    Shift=    0.000
 RMSDP=3.14D-04 MaxDP=1.31D-02 DE=-3.28D-02 OVMax= 1.15D-02

 Cycle   5  Pass 0  IDiag  1:
 RMSU=  1.42D-04    CP:  9.69D-01  8.49D-01  8.99D-01  7.26D-01
 E= -1647.88280075560     Delta-E=       -0.003837806572 Rises=F Damp=F
 DIIS: error= 1.19D-03 at cycle   5 NSaved=   5.
 NSaved= 5 IEnMin= 5 EnMin= -1647.88280075560     IErMin= 5 ErrMin= 1.19D-03
 ErrMax= 1.19D-03 EMaxC= 1.00D-01 BMatC= 1.64D-04 BMatP= 3.99D-03
 IDIUse=3 WtCom= 9.88D-01 WtEn= 1.19D-02
 Coeff-Com: -0.285D-02-0.142D-01 0.877D-02 0.139D+00 0.869D+00
 Coeff-En:   0.000D+00 0.000D+00 0.000D+00 0.000D+00 0.100D+01
 Coeff:     -0.281D-02-0.140D-01 0.867D-02 0.137D+00 0.871D+00
 Gap=     0.391 Goal=   None    Shift=    0.000
 RMSDP=9.56D-05 MaxDP=4.79D-03 DE=-3.84D-03 OVMax= 4.97D-03

 Cycle   6  Pass 0  IDiag  1:
 RMSU=  5.00D-05    CP:  9.69D-01  8.50D-01  9.18D-01  7.97D-01  1.07D+00
 E= -1647.88317836108     Delta-E=       -0.000377605481 Rises=F Damp=F
 DIIS: error= 4.93D-04 at cycle   6 NSaved=   6.
 NSaved= 6 IEnMin= 6 EnMin= -1647.88317836108     IErMin= 6 ErrMin= 4.93D-04
 ErrMax= 4.93D-04 EMaxC= 1.00D-01 BMatC= 3.84D-05 BMatP= 1.64D-04
 IDIUse=3 WtCom= 9.95D-01 WtEn= 4.93D-03
 Coeff-Com:  0.282D-02-0.999D-02-0.629D-01-0.151D+00 0.114D+00 0.111D+01
 Coeff-En:   0.000D+00 0.000D+00 0.000D+00 0.000D+00 0.000D+00 0.100D+01
 Coeff:      0.281D-02-0.994D-02-0.626D-01-0.150D+00 0.114D+00 0.111D+01
 Gap=     0.391 Goal=   None    Shift=    0.000
 RMSDP=6.90D-05 MaxDP=2.73D-03 DE=-3.78D-04 OVMax= 6.62D-03

 Cycle   7  Pass 0  IDiag  1:
 RMSU=  2.04D-05    CP:  9.69D-01  8.49D-01  9.29D-01  8.13D-01  1.32D+00
                    CP:  1.32D+00
 E= -1647.88331586932     Delta-E=       -0.000137508240 Rises=F Damp=F
 DIIS: error= 2.54D-04 at cycle   7 NSaved=   7.
 NSaved= 7 IEnMin= 7 EnMin= -1647.88331586932     IErMin= 7 ErrMin= 2.54D-04
 ErrMax= 2.54D-04 EMaxC= 1.00D-01 BMatC= 4.57D-06 BMatP= 3.84D-05
 IDIUse=3 WtCom= 9.97D-01 WtEn= 2.54D-03
 Coeff-Com:  0.313D-03 0.141D-02 0.906D-03-0.212D-01-0.972D-01 0.554D-02
 Coeff-Com:  0.111D+01
 Coeff-En:   0.000D+00 0.000D+00 0.000D+00 0.000D+00 0.000D+00 0.000D+00
 Coeff-En:   0.100D+01
 Coeff:      0.312D-03 0.141D-02 0.904D-03-0.212D-01-0.969D-01 0.553D-02
 Coeff:      0.111D+01
 Gap=     0.391 Goal=   None    Shift=    0.000
 RMSDP=2.38D-05 MaxDP=9.08D-04 DE=-1.38D-04 OVMax= 1.96D-03

 Cycle   8  Pass 0  IDiag  1:
 RMSU=  6.99D-06    CP:  9.69D-01  8.48D-01  9.31D-01  8.16D-01  1.38D+00
                    CP:  1.52D+00  1.35D+00
 E= -1647.88333355533     Delta-E=       -0.000017686007 Rises=F Damp=F
 DIIS: error= 7.89D-05 at cycle   8 NSaved=   8.
 NSaved= 8 IEnMin= 8 EnMin= -1647.88333355533     IErMin= 8 ErrMin= 7.89D-05
 ErrMax= 7.89D-05 EMaxC= 1.00D-01 BMatC= 8.99D-07 BMatP= 4.57D-06
 IDIUse=1 WtCom= 1.00D+00 WtEn= 0.00D+00
 Coeff-Com: -0.542D-03 0.243D-02 0.145D-01 0.265D-01-0.371D-01-0.245D+00
 Coeff-Com:  0.180D+00 0.106D+01
 Coeff:     -0.542D-03 0.243D-02 0.145D-01 0.265D-01-0.371D-01-0.245D+00
 Coeff:      0.180D+00 0.106D+01
 Gap=     0.391 Goal=   None    Shift=    0.000
 RMSDP=1.13D-05 MaxDP=4.74D-04 DE=-1.77D-05 OVMax= 8.86D-04

 Cycle   9  Pass 0  IDiag  1:
 RMSU=  2.89D-06    CP:  9.69D-01  8.47D-01  9.32D-01  8.15D-01  1.40D+00
                    CP:  1.58D+00  1.60D+00  1.21D+00
 E= -1647.88333671391     Delta-E=       -0.000003158577 Rises=F Damp=F
 DIIS: error= 2.94D-05 at cycle   9 NSaved=   9.
 NSaved= 9 IEnMin= 9 EnMin= -1647.88333671391     IErMin= 9 ErrMin= 2.94D-05
 ErrMax= 2.94D-05 EMaxC= 1.00D-01 BMatC= 9.27D-08 BMatP= 8.99D-07
 IDIUse=1 WtCom= 1.00D+00 WtEn= 0.00D+00
 Coeff-Com: -0.833D-04 0.175D-03 0.172D-02 0.426D-02 0.597D-02-0.307D-01
 Coeff-Com: -0.693D-01 0.119D+00 0.969D+00
 Coeff:     -0.833D-04 0.175D-03 0.172D-02 0.426D-02 0.597D-02-0.307D-01
 Coeff:     -0.693D-01 0.119D+00 0.969D+00
 Gap=     0.391 Goal=   None    Shift=    0.000
 RMSDP=2.47D-06 MaxDP=5.95D-05 DE=-3.16D-06 OVMax= 2.37D-04

 Initial convergence to 1.0D-05 achieved.  Increase integral accuracy.
 Cycle  10  Pass 1  IDiag  1:
 E= -1647.88334825291     Delta-E=       -0.000011539001 Rises=F Damp=F
 DIIS: error= 9.98D-05 at cycle   1 NSaved=   1.
 NSaved= 1 IEnMin= 1 EnMin= -1647.88334825291     IErMin= 1 ErrMin= 9.98D-05
 ErrMax= 9.98D-05 EMaxC= 1.00D-01 BMatC= 1.69D-06 BMatP= 1.69D-06
 IDIUse=1 WtCom= 1.00D+00 WtEn= 0.00D+00
 Coeff-Com:  0.100D+01
 Coeff:      0.100D+01
 Gap=     0.391 Goal=   None    Shift=    0.000
 RMSDP=2.47D-06 MaxDP=5.95D-05 DE=-1.15D-05 OVMax= 2.09D-04

 Cycle  11  Pass 1  IDiag  1:
 RMSU=  4.31D-05    CP:  1.00D+00
 E= -1647.88334991031     Delta-E=       -0.000001657406 Rises=F Damp=F
 DIIS: error= 1.12D-05 at cycle   2 NSaved=   2.
 NSaved= 2 IEnMin= 2 EnMin= -1647.88334991031     IErMin= 2 ErrMin= 1.12D-05
 ErrMax= 1.12D-05 EMaxC= 1.00D-01 BMatC= 1.55D-08 BMatP= 1.69D-06
 IDIUse=1 WtCom= 1.00D+00 WtEn= 0.00D+00
 Coeff-Com: -0.365D-01 0.104D+01
 Coeff:     -0.365D-01 0.104D+01
 Gap=     0.391 Goal=   None    Shift=    0.000
 RMSDP=3.31D-06 MaxDP=6.38D-05 DE=-1.66D-06 OVMax= 8.15D-05

 Cycle  12  Pass 1  IDiag  1:
 RMSU=  7.74D-07    CP:  1.00D+00  1.05D+00
 E= -1647.88334994765     Delta-E=       -0.000000037333 Rises=F Damp=F
 DIIS: error= 8.20D-06 at cycle   3 NSaved=   3.
 NSaved= 3 IEnMin= 3 EnMin= -1647.88334994765     IErMin= 3 ErrMin= 8.20D-06
 ErrMax= 8.20D-06 EMaxC= 1.00D-01 BMatC= 6.93D-09 BMatP= 1.55D-08
 IDIUse=1 WtCom= 1.00D+00 WtEn= 0.00D+00
 Coeff-Com: -0.181D-01 0.363D+00 0.655D+00
 Coeff:     -0.181D-01 0.363D+00 0.655D+00
 Gap=     0.391 Goal=   None    Shift=    0.000
 RMSDP=4.30D-07 MaxDP=1.01D-05 DE=-3.73D-08 OVMax= 3.63D-05

 Cycle  13  Pass 1  IDiag  1:
 RMSU=  2.97D-07    CP:  1.00D+00  1.05D+00  9.73D-01
 E= -1647.88334996056     Delta-E=       -0.000000012908 Rises=F Damp=F
 DIIS: error= 5.15D-06 at cycle   4 NSaved=   4.
 NSaved= 4 IEnMin= 4 EnMin= -1647.88334996056     IErMin= 4 ErrMin= 5.15D-06
 ErrMax= 5.15D-06 EMaxC= 1.00D-01 BMatC= 1.82D-09 BMatP= 6.93D-09
 IDIUse=1 WtCom= 1.00D+00 WtEn= 0.00D+00
 Coeff-Com:  0.203D-01-0.522D+00-0.215D+00 0.172D+01
 Coeff:      0.203D-01-0.522D+00-0.215D+00 0.172D+01
 Gap=     0.391 Goal=   None    Shift=    0.000
 RMSDP=5.68D-07 MaxDP=1.86D-05 DE=-1.29D-08 OVMax= 7.21D-05

 Cycle  14  Pass 1  IDiag  1:
 RMSU=  2.36D-07    CP:  1.00D+00  1.05D+00  1.29D+00  1.69D+00
 E= -1647.88334997227     Delta-E=       -0.000000011716 Rises=F Damp=F
 DIIS: error= 1.75D-06 at cycle   5 NSaved=   5.
 NSaved= 5 IEnMin= 5 EnMin= -1647.88334997227     IErMin= 5 ErrMin= 1.75D-06
 ErrMax= 1.75D-06 EMaxC= 1.00D-01 BMatC= 2.67D-10 BMatP= 1.82D-09
 IDIUse=1 WtCom= 1.00D+00 WtEn= 0.00D+00
 Coeff-Com:  0.763D-02-0.178D+00-0.168D+00 0.346D+00 0.992D+00
 Coeff:      0.763D-02-0.178D+00-0.168D+00 0.346D+00 0.992D+00
 Gap=     0.391 Goal=   None    Shift=    0.000
 RMSDP=2.10D-07 MaxDP=6.78D-06 DE=-1.17D-08 OVMax= 2.52D-05

 Cycle  15  Pass 1  IDiag  1:
 RMSU=  6.05D-08    CP:  1.00D+00  1.05D+00  1.36D+00  1.99D+00  1.36D+00
 E= -1647.88334997347     Delta-E=       -0.000000001199 Rises=F Damp=F
 DIIS: error= 6.70D-07 at cycle   6 NSaved=   6.
 NSaved= 6 IEnMin= 6 EnMin= -1647.88334997347     IErMin= 6 ErrMin= 6.70D-07
 ErrMax= 6.70D-07 EMaxC= 1.00D-01 BMatC= 4.57D-11 BMatP= 2.67D-10
 IDIUse=1 WtCom= 1.00D+00 WtEn= 0.00D+00
 Coeff-Com: -0.147D-02 0.437D-01-0.103D-01-0.206D+00 0.334D+00 0.840D+00
 Coeff:     -0.147D-02 0.437D-01-0.103D-01-0.206D+00 0.334D+00 0.840D+00
 Gap=     0.391 Goal=   None    Shift=    0.000
 RMSDP=5.26D-08 MaxDP=1.88D-06 DE=-1.20D-09 OVMax= 6.04D-06

 Cycle  16  Pass 1  IDiag  1:
 RMSU=  1.91D-08    CP:  1.00D+00  1.05D+00  1.37D+00  2.04D+00  1.47D+00
                    CP:  9.71D-01
 E= -1647.88334997363     Delta-E=       -0.000000000159 Rises=F Damp=F
 DIIS: error= 1.53D-07 at cycle   7 NSaved=   7.
 NSaved= 7 IEnMin= 7 EnMin= -1647.88334997363     IErMin= 7 ErrMin= 1.53D-07
 ErrMax= 1.53D-07 EMaxC= 1.00D-01 BMatC= 4.75D-12 BMatP= 4.57D-11
 IDIUse=1 WtCom= 1.00D+00 WtEn= 0.00D+00
 Coeff-Com: -0.915D-03 0.226D-01 0.139D-01-0.666D-01-0.363D-01 0.816D-01
 Coeff-Com:  0.986D+00
 Coeff:     -0.915D-03 0.226D-01 0.139D-01-0.666D-01-0.363D-01 0.816D-01
 Coeff:      0.986D+00
 Gap=     0.391 Goal=   None    Shift=    0.000
 RMSDP=1.88D-08 MaxDP=6.28D-07 DE=-1.59D-10 OVMax= 1.85D-06

 Cycle  17  Pass 1  IDiag  1:
 RMSU=  7.90D-09    CP:  1.00D+00  1.05D+00  1.37D+00  2.05D+00  1.50D+00
                    CP:  1.06D+00  1.27D+00
 E= -1647.88334997357     Delta-E=        0.000000000055 Rises=F Damp=F
 DIIS: error= 1.46D-07 at cycle   8 NSaved=   8.
 NSaved= 8 IEnMin= 7 EnMin= -1647.88334997363     IErMin= 8 ErrMin= 1.46D-07
 ErrMax= 1.46D-07 EMaxC= 1.00D-01 BMatC= 1.18D-12 BMatP= 4.75D-12
 IDIUse=1 WtCom= 1.00D+00 WtEn= 0.00D+00
 Coeff-Com:  0.323D-03-0.103D-01 0.542D-02 0.533D-01-0.965D-01-0.261D+00
 Coeff-Com:  0.154D+00 0.116D+01
 Coeff:      0.323D-03-0.103D-01 0.542D-02 0.533D-01-0.965D-01-0.261D+00
 Coeff:      0.154D+00 0.116D+01
 Gap=     0.391 Goal=   None    Shift=    0.000
 RMSDP=1.10D-08 MaxDP=3.17D-07 DE= 5.55D-11 OVMax= 1.28D-06

 Cycle  18  Pass 1  IDiag  1:
 RMSU=  3.65D-09    CP:  1.00D+00  1.05D+00  1.37D+00  2.05D+00  1.50D+00
                    CP:  1.09D+00  1.60D+00  1.27D+00
 E= -1647.88334997357     Delta-E=        0.000000000000 Rises=F Damp=F
 DIIS: error= 2.88D-08 at cycle   9 NSaved=   9.
 NSaved= 9 IEnMin= 7 EnMin= -1647.88334997363     IErMin= 9 ErrMin= 2.88D-08
 ErrMax= 2.88D-08 EMaxC= 1.00D-01 BMatC= 1.12D-13 BMatP= 1.18D-12
 IDIUse=1 WtCom= 1.00D+00 WtEn= 0.00D+00
 Coeff-Com:  0.149D-03-0.427D-02 0.481D-03 0.179D-01-0.213D-01-0.752D-01
 Coeff-Com: -0.390D-01 0.283D+00 0.839D+00
 Coeff:      0.149D-03-0.427D-02 0.481D-03 0.179D-01-0.213D-01-0.752D-01
 Coeff:     -0.390D-01 0.283D+00 0.839D+00
 Gap=     0.391 Goal=   None    Shift=    0.000
 RMSDP=2.80D-09 MaxDP=7.99D-08 DE= 0.00D+00 OVMax= 2.92D-07

 SCF Done:  E(RHF) =  -1647.88334997     A.U. after   18 cycles
             Convg  =    0.2800D-08             -V/T =  1.9999
 KE= 1.648013517471D+03 PE=-9.864892041853D+03 EE= 3.568236816811D+03
 Leave Link  502 at Fri Aug 26 13:43:55 2022, MaxMem=  209715200 cpu:     700.7
 (Enter /opt/gaussian/l601.exe)
 Copying SCF densities to generalized density rwf, IOpCl= 0 IROHF=0.

 **********************************************************************

            Population analysis using the SCF density.

 **********************************************************************

 Orbital symmetries:
       Occupied  (A) (A) (A) (A) (A) (A) (A) (A) (A) (A) (A) (A)
                 (A) (A) (A) (A) (A) (A) (A) (A) (A) (A) (A) (A)
                 (A) (A) (A) (A) (A) (A) (A) (A) (A) (A) (A) (A)
                 (A) (A) (A) (A) (A) (A) (A) (A) (A) (A) (A) (A)
                 (A) (A) (A) (A) (A) (A) (A) (A) (A) (A) (A) (A)
                 (A) (A) (A) (A) (A) (A) (A) (A) (A) (A) (A) (A)
                 (A) (A) (A) (A) (A) (A) (A) (A) (A) (A) (A) (A)
                 (A) (A) (A) (A) (A) (A) (A) (A) (A) (A) (A) (A)
                 (A) (A) (A) (A) (A) (A) (A) (A) (A) (A) (A) (A)
                 (A) (A) (A)
       Virtual   (A) (A) (A) (A) (A) (A) (A) (A) (A) (A) (A) (A)
                 (A) (A) (A) (A) (A) (A) (A) (A) (A) (A) (A) (A)
                 (A) (A) (A) (A) (A) (A) (A) (A) (A) (A) (A) (A)
                 (A) (A) (A) (A) (A) (A) (A) (A) (A) (A) (A) (A)
                 (A) (A) (A) (A) (A) (A) (A) (A) (A) (A) (A) (A)
                 (A) (A) (A) (A) (A) (A) (A) (A) (A) (A) (A) (A)
                 (A) (A) (A) (A) (A) (A) (A) (A) (A) (A) (A) (A)
                 (A) (A) (A) (A) (A) (A) (A) (A) (A) (A) (A) (A)
                 (A) (A) (A) (A) (A) (A) (A) (A) (A) (A) (A) (A)
                 (A) (A) (A) (A) (A) (A) (A) (A) (A) (A) (A) (A)
                 (A) (A) (A) (A) (A) (A) (A) (A) (A) (A) (A) (A)
                 (A) (A) (A) (A) (A) (A) (A) (A) (A) (A) (A) (A)
                 (A) (A) (A) (A) (A) (A) (A) (A) (A) (A) (A) (A)
                 (A) (A) (A) (A) (A) (A) (A) (A) (A) (A) (A) (A)
                 (A) (A) (A) (A) (A) (A) (A) (A) (A) (A) (A) (A)
                 (A) (A) (A) (A) (A) (A) (A) (A) (A) (A) (A) (A)
                 (A) (A) (A) (A) (A) (A) (A) (A) (A) (A) (A) (A)
                 (A) (A) (A) (A) (A) (A) (A) (A)
 The electronic state is 1-A.
 Alpha  occ. eigenvalues --  -91.97173 -20.54604 -15.67900 -15.66600 -15.62747
 Alpha  occ. eigenvalues --  -15.60942 -11.38968 -11.32187 -11.31416 -11.30142
 Alpha  occ. eigenvalues --  -11.28923 -11.28493 -11.27189 -11.27184 -11.26957
 Alpha  occ. eigenvalues --  -11.26713 -11.26569 -11.26419 -11.26346 -11.25987
 Alpha  occ. eigenvalues --  -11.25976 -11.25933 -11.25866 -11.25679 -11.25199
 Alpha  occ. eigenvalues --  -11.25149 -11.25075 -11.25004 -11.24922 -11.24727
 Alpha  occ. eigenvalues --  -11.24357  -8.99577  -6.67734  -6.67565  -6.67281
 Alpha  occ. eigenvalues --   -1.47292  -1.40136  -1.27670  -1.24945  -1.20251
 Alpha  occ. eigenvalues --   -1.18526  -1.17812  -1.15332  -1.06903  -1.05973
 Alpha  occ. eigenvalues --   -1.05502  -1.03964  -1.03742  -1.02418  -1.01427
 Alpha  occ. eigenvalues --   -0.99442  -0.98897  -0.92456  -0.89319  -0.87690
 Alpha  occ. eigenvalues --   -0.85909  -0.85457  -0.82524  -0.82208  -0.80863
 Alpha  occ. eigenvalues --   -0.77521  -0.76420  -0.74368  -0.73668  -0.72590
 Alpha  occ. eigenvalues --   -0.72282  -0.70248  -0.68745  -0.67825  -0.66873
 Alpha  occ. eigenvalues --   -0.66240  -0.65698  -0.64925  -0.63086  -0.62869
 Alpha  occ. eigenvalues --   -0.62409  -0.62226  -0.62012  -0.60474  -0.59294
 Alpha  occ. eigenvalues --   -0.59097  -0.58618  -0.57991  -0.57166  -0.55553
 Alpha  occ. eigenvalues --   -0.54450  -0.54361  -0.54108  -0.53704  -0.52460
 Alpha  occ. eigenvalues --   -0.52102  -0.51439  -0.51273  -0.50426  -0.50284
 Alpha  occ. eigenvalues --   -0.49939  -0.49378  -0.48849  -0.47037  -0.44379
 Alpha  occ. eigenvalues --   -0.43724  -0.42046  -0.39747  -0.36802  -0.35656
 Alpha  occ. eigenvalues --   -0.34584  -0.34500  -0.34259  -0.33147  -0.32609
 Alpha  occ. eigenvalues --   -0.30626
 Alpha virt. eigenvalues --    0.08491   0.09167   0.11825   0.13167   0.13457
 Alpha virt. eigenvalues --    0.13815   0.15195   0.17090   0.19136   0.21158
 Alpha virt. eigenvalues --    0.21252   0.22020   0.22748   0.22857   0.24470
 Alpha virt. eigenvalues --    0.24988   0.26122   0.26722   0.26992   0.27499
 Alpha virt. eigenvalues --    0.28171   0.28963   0.29214   0.29731   0.30115
 Alpha virt. eigenvalues --    0.31018   0.31656   0.31828   0.32168   0.33086
 Alpha virt. eigenvalues --    0.33232   0.34747   0.34878   0.35687   0.36139
 Alpha virt. eigenvalues --    0.36812   0.37281   0.38624   0.39768   0.40149
 Alpha virt. eigenvalues --    0.41761   0.42380   0.43737   0.44479   0.45497
 Alpha virt. eigenvalues --    0.45838   0.46315   0.46566   0.48066   0.48233
 Alpha virt. eigenvalues --    0.48662   0.49764   0.50858   0.51132   0.51807
 Alpha virt. eigenvalues --    0.53073   0.54145   0.54399   0.54466   0.55448
 Alpha virt. eigenvalues --    0.57557   0.59738   0.61787   0.63896   0.65401
 Alpha virt. eigenvalues --    0.66140   0.67733   0.67909   0.70083   0.71454
 Alpha virt. eigenvalues --    0.72550   0.73151   0.73617   0.74833   0.75084
 Alpha virt. eigenvalues --    0.75762   0.75870   0.76242   0.77403   0.77427
 Alpha virt. eigenvalues --    0.77978   0.78639   0.79256   0.80119   0.80381
 Alpha virt. eigenvalues --    0.80816   0.81579   0.81988   0.82297   0.83084
 Alpha virt. eigenvalues --    0.83624   0.83928   0.84383   0.84664   0.84879
 Alpha virt. eigenvalues --    0.85098   0.85570   0.86004   0.86441   0.86641
 Alpha virt. eigenvalues --    0.87037   0.87385   0.87669   0.88529   0.89162
 Alpha virt. eigenvalues --    0.89434   0.89897   0.90450   0.90875   0.91282
 Alpha virt. eigenvalues --    0.91791   0.92153   0.92774   0.92963   0.94555
 Alpha virt. eigenvalues --    0.95108   0.95756   0.98277   0.98608   0.99210
 Alpha virt. eigenvalues --    1.00592   1.01805   1.02810   1.04668   1.05871
 Alpha virt. eigenvalues --    1.07205   1.07270   1.08430   1.09358   1.09687
 Alpha virt. eigenvalues --    1.09904   1.10136   1.10446   1.10864   1.11119
 Alpha virt. eigenvalues --    1.11783   1.11993   1.12066   1.12311   1.13175
 Alpha virt. eigenvalues --    1.13585   1.14056   1.14670   1.14954   1.15590
 Alpha virt. eigenvalues --    1.16501   1.16669   1.17357   1.18169   1.18412
 Alpha virt. eigenvalues --    1.19162   1.19557   1.20622   1.21064   1.22616
 Alpha virt. eigenvalues --    1.24339   1.25426   1.25875   1.26564   1.27488
 Alpha virt. eigenvalues --    1.28172   1.28399   1.29848   1.30060   1.31680
 Alpha virt. eigenvalues --    1.32404   1.33422   1.34215   1.34776   1.35268
 Alpha virt. eigenvalues --    1.37679   1.37849   1.38121   1.39237   1.40220
 Alpha virt. eigenvalues --    1.41077   1.41904   1.42823   1.43440   1.44527
 Alpha virt. eigenvalues --    1.47149   1.47516   1.49797   1.51050   1.52598
 Alpha virt. eigenvalues --    1.52746   1.54292   1.55194   1.57617   1.59898
 Alpha virt. eigenvalues --    1.61623   1.64172   1.66836   1.68043   1.69538
 Alpha virt. eigenvalues --    1.69854   1.71269   1.72340   1.75483   1.76614
 Alpha virt. eigenvalues --    1.78773   1.83332   1.89966   1.91844   1.98638
 Alpha virt. eigenvalues --    2.02402   2.07436   2.14169   2.15966   2.19735
 Alpha virt. eigenvalues --    2.23115   2.31194
          Condensed to atoms (all electrons):
 Mulliken atomic charges:
              1
     1  O   -0.601279
     2  C    0.806526
     3  C   -0.114360
     4  N   -0.834004
     5  N    0.118758
     6  N   -0.327994
     7  C    0.026270
     8  C    0.394470
     9  C   -0.108118
    10  C   -0.203189
    11  C   -0.234355
    12  C   -0.105389
    13  N   -0.925272
    14  C   -0.142196
    15  C    0.061200
    16  C   -0.590650
    17  S    0.557677
    18  C   -0.606780
    19  C   -0.104029
    20  C    0.281994
    21  C   -0.199814
    22  C   -0.203952
    23  C   -0.029485
    24  C   -0.203295
    25  C   -0.170507
    26  C   -0.042297
    27  C   -0.191634
    28  C   -0.206943
    29  C   -0.198661
    30  C   -0.207287
    31  C   -0.191759
    32  H    0.246951
    33  H    0.215405
    34  H    0.228462
    35  H    0.214273
    36  H    0.210660
    37  H    0.246031
    38  H    0.195493
    39  H    0.232489
    40  H    0.260877
    41  H    0.238547
    42  H    0.228104
    43  H    0.224605
    44  H    0.223669
    45  H    0.229411
    46  H    0.244868
    47  H    0.214693
    48  H    0.206321
    49  H    0.206270
    50  H    0.207042
    51  H    0.222182
 Sum of Mulliken atomic charges =   0.00000
 Mulliken charges with hydrogens summed into heavy atoms:
              1
     1  O   -0.601279
     2  C    0.806526
     3  C    0.347995
     4  N   -0.834004
     5  N    0.118758
     6  N   -0.327994
     7  C    0.026270
     8  C    0.394470
     9  C    0.120344
    10  C    0.011084
    11  C   -0.023694
    12  C    0.140642
    13  N   -0.925272
    14  C    0.285786
    15  C    0.061200
    16  C   -0.329773
    17  S    0.557677
    18  C   -0.368233
    19  C    0.124075
    20  C    0.281994
    21  C    0.024791
    22  C    0.019717
    23  C   -0.029485
    24  C    0.026115
    25  C    0.074361
    26  C   -0.042297
    27  C    0.023058
    28  C   -0.000622
    29  C    0.007609
    30  C   -0.000245
    31  C    0.030423
 Sum of Mulliken charges with hydrogens summed into heavy atoms =   0.00000
 Electronic spatial extent (au):  <R**2>=          15081.6642
 Charge=              0.0000 electrons
 Dipole moment (field-independent basis, Debye):
    X=              5.0882    Y=              4.1257    Z=              3.2632  Tot=              7.3185
 Quadrupole moment (field-independent basis, Debye-Ang):
   XX=           -187.3081   YY=           -196.8602   ZZ=           -184.0015
   XY=             -7.5243   XZ=              3.4799   YZ=             -5.8817
 Traceless Quadrupole moment (field-independent basis, Debye-Ang):
   XX=              2.0818   YY=             -7.4702   ZZ=              5.3884
   XY=             -7.5243   XZ=              3.4799   YZ=             -5.8817
 Octapole moment (field-independent basis, Debye-Ang**2):
  XXX=            179.1953  YYY=            107.9498  ZZZ=             20.6367  XYY=             46.9031
  XXY=              1.3186  XXZ=            -28.9367  XZZ=              0.6392  YZZ=             -0.4277
  YYZ=             67.0212  XYZ=            -20.4956
 Hexadecapole moment (field-independent basis, Debye-Ang**3):
 XXXX=         -12308.8487 YYYY=          -7527.5683 ZZZZ=          -1154.7725 XXXY=             77.1663
 XXXZ=             -4.7444 YYYX=             70.9924 YYYZ=            103.5542 ZZZX=             42.5044
 ZZZY=            -61.4417 XXYY=          -3140.7541 XXZZ=          -2276.9607 YYZZ=          -1523.9106
 XXYZ=             58.8719 YYXZ=              6.7150 ZZXY=             -6.1047
 N-N= 3.000758357598D+03 E-N=-9.864892040013D+03  KE= 1.648013517471D+03
 No NMR shielding tensors so no spin-rotation constants.
 Leave Link  601 at Fri Aug 26 13:43:55 2022, MaxMem=  209715200 cpu:       1.4
 (Enter /opt/gaussian/l701.exe)
 Compute integral first derivatives.
 ... and contract with generalized density number  0.
 Leave Link  701 at Fri Aug 26 13:43:55 2022, MaxMem=  209715200 cpu:       1.3
 (Enter /opt/gaussian/l702.exe)
 L702 exits ... SP integral derivatives will be done elsewhere.
 Leave Link  702 at Fri Aug 26 13:43:56 2022, MaxMem=  209715200 cpu:       0.2
 (Enter /opt/gaussian/l703.exe)
 Compute integral first derivatives, UseDBF=F ICtDFT=           0.
 Integral derivatives from FoFDir, PRISM(SPDF).
 Calling FoFJK, ICntrl=      2127 FMM=F ISym2X=0 I1Cent= 0 IOpClX= 0 NMat=1 NMatS=1 NMatT=0.
 FoFCou: FMM=F IPFlag=           0 FMFlag=      100000 FMFlg1=         800
         NFxFlg=           0 DoJE=F BraDBF=F KetDBF=F FulRan=T
         Omega=  0.000000  0.000000  1.000000  0.000000  0.000000 ICntrl=    2127 IOpCl=  0
         NMat0=    1 NMatS0=    1 NMatT0=    0 NMatD0=    1 NMtDS0=    0 NMtDT0=    0
         I1Cent=           0 NGrid=           0.
 Symmetry not used in FoFCou.
 Leave Link  703 at Fri Aug 26 13:44:29 2022, MaxMem=  209715200 cpu:     258.7
 (Enter /opt/gaussian/l716.exe)
 Dipole        = 2.00187020D+00 1.62317515D+00 1.28382222D+00
 ***** Axes restored to original set *****
 -------------------------------------------------------------------
 Center     Atomic                   Forces (Hartrees/Bohr)
 Number     Number              X              Y              Z
 -------------------------------------------------------------------
      1        8           0.030842634   -0.000060629   -0.009289337
      2        6          -0.024586516   -0.003124308   -0.008601631
      3        6          -0.009120568    0.018667595    0.020462099
      4        7           0.048532340   -0.012155705    0.014363492
      5        7          -0.010453731    0.011489844    0.000401886
      6        7           0.027935985    0.003788230    0.013909777
      7        6          -0.022260854    0.043094608    0.005584454
      8        6          -0.013243001   -0.039707578   -0.023082955
      9        6          -0.006862185    0.010589695    0.000963929
     10        6           0.007267195    0.008788139    0.006445747
     11        6           0.011972995   -0.009432081    0.001964984
     12        6          -0.002999164   -0.011326714   -0.005417584
     13        7           0.006919621    0.001004022    0.030680170
     14        6          -0.030795735   -0.034652437   -0.017032884
     15        6          -0.018439496    0.015935004    0.004882680
     16        6           0.017691386   -0.080537576    0.019700168
     17       16          -0.065275093    0.068113599    0.003025921
     18        6           0.079460317   -0.011737202   -0.025838001
     19        6           0.000673571    0.013341932   -0.004775332
     20        6           0.025797896   -0.001079420   -0.007163440
     21        6          -0.011066481   -0.000629686    0.002478765
     22        6           0.004881878    0.006884544    0.002158200
     23        6          -0.017049321   -0.000474631    0.006393448
     24        6           0.000776189   -0.007167186   -0.004579228
     25        6          -0.009729559   -0.001756069    0.003165931
     26        6           0.017546557    0.000876389   -0.006136507
     27        6          -0.001771509    0.006664756    0.000396666
     28        6           0.004385371    0.010234986   -0.002990520
     29        6           0.010734377    0.000795042   -0.004119923
     30        6           0.006119265   -0.009761957   -0.000647943
     31        6          -0.000822640   -0.006995333    0.000760858
     32        1           0.012177581    0.005234171   -0.029766296
     33        1          -0.019932870   -0.025217437    0.001442043
     34        1           0.004324866   -0.017565728   -0.004230534
     35        1          -0.014593287   -0.009754101   -0.010184737
     36        1          -0.017577108    0.008332837   -0.004920846
     37        1          -0.003471849    0.018849845    0.005249525
     38        1          -0.010654863    0.009272602    0.026709069
     39        1           0.027936756    0.012939619   -0.012082745
     40        1           0.012079631    0.010704093   -0.007949026
     41        1          -0.010101692   -0.011504966    0.007377142
     42        1          -0.016073095    0.008032372    0.002000222
     43        1           0.004709750   -0.014463377   -0.012852416
     44        1          -0.011541788   -0.016340079   -0.004419836
     45        1          -0.008436720    0.015557112    0.011532892
     46        1           0.010355702    0.016793112    0.008025376
     47        1           0.011198794   -0.016176746   -0.001887442
     48        1          -0.006976662   -0.016707659    0.005825500
     49        1          -0.017825223   -0.000970753    0.006763141
     50        1          -0.010756610    0.015758694    0.000500915
     51        1           0.008096961    0.017556515   -0.005195837
 -------------------------------------------------------------------
 Cartesian Forces:  Max     0.080537576 RMS     0.018410293
 Leave Link  716 at Fri Aug 26 13:44:29 2022, MaxMem=  209715200 cpu:       0.2
 (Enter /opt/gaussian/l103.exe)

 GradGradGradGradGradGradGradGradGradGradGradGradGradGradGradGradGradGrad
 Berny optimization.
 Internal  Forces:  Max     0.060593906 RMS     0.010254579
 Search for a local minimum.
 Step number   1 out of a maximum of  288
 All quantities printed in internal units (Hartrees-Bohrs-Radians)
 RMS Force = .10255D-01 SwitMx=.10000D-02 MixMth= 1
 Mixed Optimization -- RFO/linear search
 Second derivative matrix not updated -- first step.
 ITU=  0
     Eigenvalues ---    0.00292   0.00911   0.00956   0.00994   0.01155
     Eigenvalues ---    0.01278   0.01401   0.01414   0.01429   0.01513
     Eigenvalues ---    0.01630   0.01732   0.01779   0.01779   0.01822
     Eigenvalues ---    0.01838   0.01894   0.01915   0.01981   0.02056
     Eigenvalues ---    0.02058   0.02070   0.02072   0.02077   0.02078
     Eigenvalues ---    0.02110   0.02112   0.02118   0.02122   0.02123
     Eigenvalues ---    0.02127   0.02149   0.02153   0.02156   0.02158
     Eigenvalues ---    0.02163   0.02167   0.02169   0.02181   0.02186
     Eigenvalues ---    0.02196   0.02237   0.02275   0.02300   0.04882
     Eigenvalues ---    0.04904   0.06531   0.06629   0.10187   0.10466
     Eigenvalues ---    0.13402   0.13554   0.15999   0.15999   0.15999
     Eigenvalues ---    0.16000   0.16000   0.16000   0.16000   0.16000
     Eigenvalues ---    0.16000   0.16000   0.16000   0.16000   0.16000
     Eigenvalues ---    0.16000   0.16000   0.16000   0.22000   0.22000
     Eigenvalues ---    0.22000   0.22000   0.22115   0.22124   0.22507
     Eigenvalues ---    0.22587   0.22961   0.23477   0.23493   0.23998
     Eigenvalues ---    0.24506   0.24803   0.24908   0.24941   0.24964
     Eigenvalues ---    0.24976   0.24989   0.24999   0.24999   0.25000
     Eigenvalues ---    0.25000   0.25000   0.28892   0.30518   0.30539
     Eigenvalues ---    0.30605   0.30778   0.33483   0.33527   0.33535
     Eigenvalues ---    0.33544   0.33552   0.33565   0.33621   0.33630
     Eigenvalues ---    0.33651   0.33673   0.33679   0.33702   0.33752
     Eigenvalues ---    0.33946   0.34548   0.34825   0.34949   0.35017
     Eigenvalues ---    0.36802   0.37518   0.37868   0.37888   0.39033
     Eigenvalues ---    0.39507   0.40103   0.40943   0.41567   0.41780
     Eigenvalues ---    0.42019   0.42306   0.42608   0.42789   0.42976
     Eigenvalues ---    0.44569   0.44776   0.45556   0.45602   0.45945
     Eigenvalues ---    0.46028   0.46158   0.46549   0.46746   0.46948
     Eigenvalues ---    0.47226   0.47231   0.48254   0.49064   0.50013
     Eigenvalues ---    0.75427   0.85363
 RFO step:  Lambda=-6.85293012D-02 EMin= 2.92117217D-03
 Linear search not attempted -- first point.
 Maximum step size (   0.300) exceeded in Quadratic search.
    -- Step size scaled by   0.745
 Iteration  1 RMS(Cart)=  0.07032306 RMS(Int)=  0.00090436
 Iteration  2 RMS(Cart)=  0.00169315 RMS(Int)=  0.00005905
 Iteration  3 RMS(Cart)=  0.00000117 RMS(Int)=  0.00005904
 Iteration  4 RMS(Cart)=  0.00000000 RMS(Int)=  0.00005904
 Variable       Old X    -DE/DX   Delta X   Delta X   Delta X     New X
                                 (Linear)    (Quad)   (Total)
    R1        2.35146  -0.03214   0.00000  -0.02597  -0.02597   2.32549
    R2        2.90228  -0.01122   0.00000  -0.02338  -0.02338   2.87890
    R3        2.61670  -0.02328   0.00000  -0.03148  -0.03148   2.58522
    R4        2.72228   0.00000   0.00000   0.00000   0.00000   2.72228
    R5        2.13642  -0.03230   0.00000  -0.06440  -0.06440   2.07203
    R6        2.13139  -0.03209   0.00000  -0.06354  -0.06354   2.06785
    R7        2.57786  -0.01090   0.00000  -0.01256  -0.01262   2.56524
    R8        2.66475  -0.03469   0.00000  -0.05206  -0.05205   2.61270
    R9        2.38131  -0.00177   0.00000  -0.00026  -0.00031   2.38100
   R10        2.69850  -0.02704   0.00000  -0.04173  -0.04171   2.65679
   R11        2.73908  -0.04465   0.00000  -0.07775  -0.07765   2.66142
   R12        2.64006  -0.01141   0.00000  -0.01682  -0.01679   2.62326
   R13        2.64237  -0.00968   0.00000  -0.01440  -0.01439   2.62798
   R14        2.62333  -0.00940   0.00000  -0.01208  -0.01210   2.61123
   R15        2.07422  -0.01850   0.00000  -0.03379  -0.03379   2.04042
   R16        2.65950  -0.00723   0.00000  -0.00901  -0.00904   2.65046
   R17        2.08122  -0.02029   0.00000  -0.03744  -0.03744   2.04378
   R18        2.62377  -0.01076   0.00000  -0.01400  -0.01401   2.60975
   R19        2.07974  -0.02006   0.00000  -0.03694  -0.03694   2.04281
   R20        2.07750  -0.01987   0.00000  -0.03647  -0.03647   2.04103
   R21        2.74529   0.01233   0.00000   0.02053   0.02053   2.76582
   R22        2.68535   0.00873   0.00000   0.01323   0.01323   2.69858
   R23        2.81392   0.01208   0.00000   0.02228   0.02228   2.83620
   R24        2.13473  -0.02997   0.00000  -0.05962  -0.05962   2.07511
   R25        2.13601  -0.03290   0.00000  -0.06555  -0.06555   2.07045
   R26        2.60926  -0.02071   0.00000  -0.02867  -0.02877   2.58049
   R27        2.71067   0.00725   0.00000   0.00770   0.00749   2.71817
   R28        3.15145   0.06059   0.00000   0.09908   0.09921   3.25066
   R29        2.05960  -0.01774   0.00000  -0.03172  -0.03172   2.02788
   R30        3.16140   0.05579   0.00000   0.09264   0.09280   3.25420
   R31        2.60060  -0.01922   0.00000  -0.02656  -0.02662   2.57398
   R32        2.05647  -0.01662   0.00000  -0.02958  -0.02958   2.02689
   R33        2.06416  -0.01745   0.00000  -0.03141  -0.03141   2.03274
   R34        2.66571  -0.02121   0.00000  -0.03181  -0.03181   2.63390
   R35        2.66644  -0.02144   0.00000  -0.03221  -0.03221   2.63423
   R36        2.62825  -0.00546   0.00000  -0.00749  -0.00749   2.62076
   R37        2.08107  -0.01974   0.00000  -0.03640  -0.03640   2.04467
   R38        2.64746  -0.00793   0.00000  -0.01061  -0.01060   2.63685
   R39        2.08071  -0.02045   0.00000  -0.03770  -0.03770   2.04300
[...]
 ! D119  D(26,27,28,48)        179.5513         -DE/DX =    0.0                 !
 ! D120  D(47,27,28,29)       -178.7226         -DE/DX =    0.0                 !
 ! D121  D(47,27,28,48)          0.8082         -DE/DX =    0.0                 !
 ! D122  D(27,28,29,30)         -0.0642         -DE/DX =    0.0                 !
 ! D123  D(27,28,29,49)        179.9176         -DE/DX =    0.0                 !
 ! D124  D(48,28,29,30)       -179.5933         -DE/DX =    0.0                 !
 ! D125  D(48,28,29,49)          0.3885         -DE/DX =    0.0                 !
 ! D126  D(28,29,30,31)          0.0216         -DE/DX =    0.0                 !
 ! D127  D(28,29,30,50)       -179.6018         -DE/DX =    0.0                 !
 ! D128  D(49,29,30,31)       -179.9602         -DE/DX =    0.0                 !
 ! D129  D(49,29,30,50)          0.4164         -DE/DX =    0.0                 !
 ! D130  D(29,30,31,26)          0.0653         -DE/DX =    0.0                 !
 ! D131  D(29,30,31,51)       -178.5361         -DE/DX =    0.0                 !
 ! D132  D(50,30,31,26)        179.6901         -DE/DX =    0.0                 !
 ! D133  D(50,30,31,51)          1.0887         -DE/DX =    0.0                 !
 --------------------------------------------------------------------------------
 GradGradGradGradGradGradGradGradGradGradGradGradGradGradGradGradGradGrad

 Largest change from initial coordinates is atom   50       0.970 Angstoms.
 Leave Link  103 at Fri Aug 26 14:12:55 2022, MaxMem=  209715200 cpu:       0.7
 (Enter /opt/gaussian/l202.exe)
 Stoichiometry    C25H20N4OS
 Framework group  C1[X(C25H20N4OS)]
 Deg. of freedom   147
 Full point group                 C1      NOp   1
 RotChk:  IX=0 Diff= 1.65D-15
 Largest Abelian subgroup         C1      NOp   1
 Largest concise Abelian subgroup C1      NOp   1
                         Standard orientation:                         
 ---------------------------------------------------------------------
 Center     Atomic      Atomic             Coordinates (Angstroms)
 Number     Number       Type             X           Y           Z
 ---------------------------------------------------------------------
      1          8           0       -3.351175   -2.428209    0.203304
      2          6           0       -2.236707   -1.910992    0.170909
      3          6           0       -1.134728   -2.560240    0.996138
      4          7           0        0.079872   -2.825755    0.263756
      5          7           0        0.023494   -3.407633   -0.964117
      6          7           0        1.201474   -3.603406   -1.397856
      7          6           0        2.106137   -3.162874   -0.446895
      8          6           0        1.384066   -2.661553    0.629427
      9          6           0        2.022496   -2.138964    1.758570
     10          6           0        3.396696   -2.144469    1.745314
     11          6           0        4.135278   -2.652427    0.652448
     12          6           0        3.500961   -3.165570   -0.452108
     13          7           0       -1.990269   -0.776427   -0.530808
     14          6           0       -3.087396   -0.235534   -1.359932
     15          6           0       -3.979892    0.730221   -0.621027
     16          6           0       -5.035666    0.355884    0.124314
     17         16           0       -5.868500    1.752425    0.866841
     18          6           0       -4.687720    2.848182    0.087892
     19          6           0       -3.787781    2.166925   -0.637432
     20          6           0       -0.791440   -0.001110   -0.423237
     21          6           0       -0.585729    0.824522    0.673252
     22          6           0        0.562147    1.598783    0.759621
     23          6           0        1.519258    1.574631   -0.252163
     24          6           0        1.289744    0.754623   -1.358374
     25          6           0        0.149483   -0.024913   -1.444694
     26          6           0        2.755404    2.397187   -0.156396
     27          6           0        2.696029    3.734445    0.234675
     28          6           0        3.849291    4.499162    0.323877
     29          6           0        5.082524    3.939620    0.022964
     30          6           0        5.154157    2.609895   -0.366363
     31          6           0        4.001043    1.844940   -0.454719
     32          1           0       -1.556172   -3.480619    1.368022
     33          1           0       -0.886161   -1.926466    1.834723
     34          1           0        1.477070   -1.747752    2.593481
     35          1           0        3.929432   -1.751691    2.589392
     36          1           0        5.206267   -2.636614    0.697729
     37          1           0        4.040643   -3.559275   -1.289702
     38          1           0       -2.632912    0.253899   -2.209400
     39          1           0       -3.661606   -1.072885   -1.719245
     40          1           0       -5.378840   -0.637255    0.307015
     41          1           0       -4.765642    3.902279    0.229423
     42          1           0       -2.997780    2.640902   -1.184593
     43          1           0       -1.325710    0.867845    1.449237
     44          1           0        0.718050    2.214711    1.623861
     45          1           0        2.003156    0.732667   -2.158610
     46          1           0       -0.008962   -0.663159   -2.291609
     47          1           0        1.744761    4.182373    0.449710
     48          1           0        3.783507    5.528607    0.619566
     49          1           0        5.974882    4.531395    0.090609
     50          1           0        6.104671    2.167251   -0.594797
     51          1           0        4.068828    0.810979   -0.733904
 ---------------------------------------------------------------------
 Rotational constants (GHZ):      0.1811490      0.1029043      0.0715327
 Leave Link  202 at Fri Aug 26 14:12:55 2022, MaxMem=  209715200 cpu:       0.0
 (Enter /opt/gaussian/l601.exe)
 Copying SCF densities to generalized density rwf, IOpCl= 0 IROHF=0.

 **********************************************************************

            Population analysis using the SCF density.

 **********************************************************************

 Orbital symmetries:
       Occupied  (A) (A) (A) (A) (A) (A) (A) (A) (A) (A) (A) (A)
                 (A) (A) (A) (A) (A) (A) (A) (A) (A) (A) (A) (A)
                 (A) (A) (A) (A) (A) (A) (A) (A) (A) (A) (A) (A)
                 (A) (A) (A) (A) (A) (A) (A) (A) (A) (A) (A) (A)
                 (A) (A) (A) (A) (A) (A) (A) (A) (A) (A) (A) (A)
                 (A) (A) (A) (A) (A) (A) (A) (A) (A) (A) (A) (A)
                 (A) (A) (A) (A) (A) (A) (A) (A) (A) (A) (A) (A)
                 (A) (A) (A) (A) (A) (A) (A) (A) (A) (A) (A) (A)
                 (A) (A) (A) (A) (A) (A) (A) (A) (A) (A) (A) (A)
                 (A) (A) (A)
       Virtual   (A) (A) (A) (A) (A) (A) (A) (A) (A) (A) (A) (A)
                 (A) (A) (A) (A) (A) (A) (A) (A) (A) (A) (A) (A)
                 (A) (A) (A) (A) (A) (A) (A) (A) (A) (A) (A) (A)
                 (A) (A) (A) (A) (A) (A) (A) (A) (A) (A) (A) (A)
                 (A) (A) (A) (A) (A) (A) (A) (A) (A) (A) (A) (A)
                 (A) (A) (A) (A) (A) (A) (A) (A) (A) (A) (A) (A)
                 (A) (A) (A) (A) (A) (A) (A) (A) (A) (A) (A) (A)
                 (A) (A) (A) (A) (A) (A) (A) (A) (A) (A) (A) (A)
                 (A) (A) (A) (A) (A) (A) (A) (A) (A) (A) (A) (A)
                 (A) (A) (A) (A) (A) (A) (A) (A) (A) (A) (A) (A)
                 (A) (A) (A) (A) (A) (A) (A) (A) (A) (A) (A) (A)
                 (A) (A) (A) (A) (A) (A) (A) (A) (A) (A) (A) (A)
                 (A) (A) (A) (A) (A) (A) (A) (A) (A) (A) (A) (A)
                 (A) (A) (A) (A) (A) (A) (A) (A) (A) (A) (A) (A)
                 (A) (A) (A) (A) (A) (A) (A) (A) (A) (A) (A) (A)
                 (A) (A) (A) (A) (A) (A) (A) (A) (A) (A) (A) (A)
                 (A) (A) (A) (A) (A) (A) (A) (A) (A) (A) (A) (A)
                 (A) (A) (A) (A) (A) (A) (A) (A)
 The electronic state is 1-A.
 Alpha  occ. eigenvalues --  -91.96584 -20.54234 -15.67275 -15.66600 -15.62223
 Alpha  occ. eigenvalues --  -15.60812 -11.38353 -11.30967 -11.30653 -11.29631
 Alpha  occ. eigenvalues --  -11.27987 -11.27672 -11.27301 -11.26788 -11.26648
 Alpha  occ. eigenvalues --  -11.26578 -11.26427 -11.26403 -11.25962 -11.25736
 Alpha  occ. eigenvalues --  -11.25403 -11.25370 -11.25280 -11.25202 -11.25029
 Alpha  occ. eigenvalues --  -11.24680 -11.24638 -11.24590 -11.24561 -11.24498
 Alpha  occ. eigenvalues --  -11.24426  -8.98384  -6.66517  -6.66386  -6.66125
 Alpha  occ. eigenvalues --   -1.48493  -1.41383  -1.27750  -1.25465  -1.18954
 Alpha  occ. eigenvalues --   -1.18831  -1.17571  -1.15979  -1.07448  -1.07072
 Alpha  occ. eigenvalues --   -1.06072  -1.04302  -1.03724  -1.02901  -1.01775
 Alpha  occ. eigenvalues --   -0.99735  -0.98940  -0.92700  -0.89935  -0.87851
 Alpha  occ. eigenvalues --   -0.86470  -0.86080  -0.83675  -0.83189  -0.81643
 Alpha  occ. eigenvalues --   -0.78062  -0.77664  -0.75081  -0.73541  -0.73390
 Alpha  occ. eigenvalues --   -0.72959  -0.71327  -0.69298  -0.67832  -0.67530
 Alpha  occ. eigenvalues --   -0.66628  -0.66414  -0.65557  -0.63913  -0.63438
 Alpha  occ. eigenvalues --   -0.63209  -0.62907  -0.62788  -0.61079  -0.60663
 Alpha  occ. eigenvalues --   -0.59819  -0.59435  -0.58539  -0.58430  -0.55165
 Alpha  occ. eigenvalues --   -0.54814  -0.54572  -0.54106  -0.53051  -0.51987
 Alpha  occ. eigenvalues --   -0.51906  -0.51301  -0.51017  -0.50760  -0.50475
 Alpha  occ. eigenvalues --   -0.50234  -0.49472  -0.49368  -0.46150  -0.45455
 Alpha  occ. eigenvalues --   -0.43679  -0.42864  -0.39141  -0.37541  -0.35818
 Alpha  occ. eigenvalues --   -0.34810  -0.34652  -0.34451  -0.33297  -0.33182
 Alpha  occ. eigenvalues --   -0.31454
 Alpha virt. eigenvalues --    0.08623   0.09725   0.11715   0.12971   0.13350
 Alpha virt. eigenvalues --    0.14717   0.15809   0.17122   0.18672   0.19044
 Alpha virt. eigenvalues --    0.21872   0.22781   0.23439   0.23723   0.25064
 Alpha virt. eigenvalues --    0.25639   0.25774   0.26922   0.27980   0.28516
 Alpha virt. eigenvalues --    0.28704   0.29554   0.29838   0.30026   0.30969
 Alpha virt. eigenvalues --    0.31579   0.32167   0.32503   0.33132   0.33324
 Alpha virt. eigenvalues --    0.33403   0.35002   0.35636   0.36152   0.36702
 Alpha virt. eigenvalues --    0.36918   0.37907   0.38204   0.40092   0.40428
 Alpha virt. eigenvalues --    0.42442   0.43394   0.43716   0.44700   0.45720
 Alpha virt. eigenvalues --    0.46248   0.46746   0.46894   0.48559   0.48988
 Alpha virt. eigenvalues --    0.49043   0.50507   0.51083   0.51397   0.51840
 Alpha virt. eigenvalues --    0.52875   0.54185   0.55055   0.55729   0.56156
 Alpha virt. eigenvalues --    0.57157   0.58821   0.62240   0.62672   0.63952
 Alpha virt. eigenvalues --    0.64456   0.65916   0.66979   0.69678   0.70844
 Alpha virt. eigenvalues --    0.71386   0.71887   0.73468   0.73706   0.74395
 Alpha virt. eigenvalues --    0.74685   0.76030   0.76351   0.77170   0.77763
 Alpha virt. eigenvalues --    0.77996   0.78616   0.78936   0.79734   0.80295
 Alpha virt. eigenvalues --    0.80568   0.81710   0.82306   0.82487   0.83054
 Alpha virt. eigenvalues --    0.83645   0.84001   0.84052   0.84421   0.84755
 Alpha virt. eigenvalues --    0.85300   0.85392   0.85586   0.86242   0.86481
 Alpha virt. eigenvalues --    0.86953   0.87926   0.88773   0.89070   0.89570
 Alpha virt. eigenvalues --    0.89945   0.90655   0.91180   0.91712   0.91991
 Alpha virt. eigenvalues --    0.92488   0.92925   0.93378   0.94023   0.95197
 Alpha virt. eigenvalues --    0.96616   0.97737   0.98721   0.99615   0.99881
 Alpha virt. eigenvalues --    1.00390   1.02997   1.03724   1.05178   1.06826
 Alpha virt. eigenvalues --    1.07743   1.08323   1.08511   1.09526   1.10377
 Alpha virt. eigenvalues --    1.10845   1.11020   1.11279   1.12644   1.12982
 Alpha virt. eigenvalues --    1.13317   1.13335   1.13736   1.14009   1.14303
 Alpha virt. eigenvalues --    1.15041   1.15555   1.16216   1.16435   1.17542
 Alpha virt. eigenvalues --    1.17655   1.18014   1.18460   1.18681   1.19372
 Alpha virt. eigenvalues --    1.20274   1.20544   1.21904   1.22744   1.24446
 Alpha virt. eigenvalues --    1.25267   1.25738   1.26298   1.27236   1.28208
 Alpha virt. eigenvalues --    1.28481   1.29247   1.30425   1.31117   1.31624
 Alpha virt. eigenvalues --    1.32086   1.32831   1.33795   1.35404   1.36222
 Alpha virt. eigenvalues --    1.37138   1.38266   1.39294   1.39701   1.41360
 Alpha virt. eigenvalues --    1.41439   1.41817   1.42938   1.44404   1.44999
 Alpha virt. eigenvalues --    1.47463   1.49232   1.49438   1.50381   1.51723
 Alpha virt. eigenvalues --    1.52530   1.53606   1.56149   1.59099   1.60548
 Alpha virt. eigenvalues --    1.62814   1.65380   1.68330   1.69120   1.70484
 Alpha virt. eigenvalues --    1.73014   1.73849   1.74495   1.77801   1.78536
 Alpha virt. eigenvalues --    1.83731   1.89642   1.91471   1.92599   2.01998
 Alpha virt. eigenvalues --    2.05878   2.07307   2.14146   2.18269   2.22316
 Alpha virt. eigenvalues --    2.27052   2.35168
          Condensed to atoms (all electrons):
 Mulliken atomic charges:
              1
     1  O   -0.613494
     2  C    0.804782
     3  C   -0.103675
     4  N   -0.881364
     5  N    0.100995
     6  N   -0.338625
     7  C   -0.015058
     8  C    0.452558
     9  C   -0.071252
    10  C   -0.203983
    11  C   -0.236727
    12  C   -0.081958
    13  N   -0.919836
    14  C   -0.104668
    15  C    0.063821
    16  C   -0.568721
    17  S    0.453631
    18  C   -0.566220
    19  C   -0.084013
    20  C    0.256926
    21  C   -0.179844
    22  C   -0.208130
    23  C   -0.019249
    24  C   -0.203108
    25  C   -0.169122
    26  C   -0.035209
    27  C   -0.194235
    28  C   -0.201455
    29  C   -0.194532
    30  C   -0.202549
    31  C   -0.195650
    32  H    0.254156
    33  H    0.215465
    34  H    0.227783
    35  H    0.210042
    36  H    0.206914
    37  H    0.242850
    38  H    0.192167
    39  H    0.238324
    40  H    0.268777
    41  H    0.226734
    42  H    0.217530
    43  H    0.228716
    44  H    0.219628
    45  H    0.224603
    46  H    0.245273
    47  H    0.210973
    48  H    0.203922
    49  H    0.203867
    50  H    0.203044
    51  H    0.219197
 Sum of Mulliken atomic charges =   0.00000
 Mulliken charges with hydrogens summed into heavy atoms:
              1
     1  O   -0.613494
     2  C    0.804782
     3  C    0.365946
     4  N   -0.881364
     5  N    0.100995
     6  N   -0.338625
     7  C   -0.015058
     8  C    0.452558
     9  C    0.156531
    10  C    0.006059
    11  C   -0.029813
    12  C    0.160892
    13  N   -0.919836
    14  C    0.325824
    15  C    0.063821
    16  C   -0.299944
    17  S    0.453631
    18  C   -0.339487
    19  C    0.133517
    20  C    0.256926
    21  C    0.048872
    22  C    0.011498
    23  C   -0.019249
    24  C    0.021496
    25  C    0.076151
    26  C   -0.035209
    27  C    0.016738
    28  C    0.002467
    29  C    0.009336
    30  C    0.000495
    31  C    0.023548
 Sum of Mulliken charges with hydrogens summed into heavy atoms =   0.00000
 Electronic spatial extent (au):  <R**2>=          14411.6488
 Charge=              0.0000 electrons
 Dipole moment (field-independent basis, Debye):
    X=              5.6148    Y=              4.3766    Z=              2.6274  Tot=              7.5884
 Quadrupole moment (field-independent basis, Debye-Ang):
   XX=           -192.8541   YY=           -196.3027   ZZ=           -185.5401
   XY=             -6.3287   XZ=              3.6630   YZ=             -8.5374
 Traceless Quadrupole moment (field-independent basis, Debye-Ang):
   XX=             -1.2885   YY=             -4.7371   ZZ=              6.0256
   XY=             -6.3287   XZ=              3.6630   YZ=             -8.5374
 Octapole moment (field-independent basis, Debye-Ang**2):
  XXX=            233.5409  YYY=            133.2926  ZZZ=             12.1025  XYY=             26.0664
  XXY=              6.8688  XXZ=            -18.8970  XZZ=             -8.6356  YZZ=             -9.1390
  YYZ=             54.2558  XYZ=              8.2243
 Hexadecapole moment (field-independent basis, Debye-Ang**3):
 XXXX=         -12457.3925 YYYY=          -6702.0766 ZZZZ=          -1051.5886 XXXY=            149.2835
 XXXZ=              5.1189 YYYX=             38.6072 YYYZ=            -25.6490 ZZZX=             35.8050
 ZZZY=            -36.5308 XXYY=          -3050.1444 XXZZ=          -2300.2258 YYZZ=          -1414.1545
 XXYZ=             35.5233 YYXZ=              8.9695 ZZXY=              3.4180
 N-N= 3.050425431971D+03 E-N=-9.965398034850D+03  KE= 1.649368967060D+03
 No NMR shielding tensors so no spin-rotation constants.
 Leave Link  601 at Fri Aug 26 14:12:55 2022, MaxMem=  209715200 cpu:       1.4
 (Enter /opt/gaussian/l9999.exe)
 1\1\GINC-LQCAPF-6\FOpt\RHF\6-31G\C25H20N4O1S1\LQCAPF-6\26-Aug-2022\0\\
 #p opt hf/6-31G\\Mol07.out\\0,1\O,15.4075716229,-8.1306076211,-1.60444
 06855\C,16.5851060533,-8.2809179334,-1.922910089\C,17.5780115003,-8.60
 62925131,-0.816043527\N,18.4125976269,-9.7527890919,-1.0827780043\N,17
 .8623468009,-10.902321968,-1.557363264\N,18.7611556936,-11.7941617368,
 -1.6615626344\C,19.9673613594,-11.2639197222,-1.2364486421\C,19.744835
 3654,-9.9449653745,-0.8595964172\C,20.7804155964,-9.1367200332,-0.3800
 471038\C,22.0256436388,-9.7132787058,-0.3050754492\C,22.2568692791,-11
 .0540504237,-0.6881486447\C,21.2342896886,-11.8419045612,-1.1564818301
 \N,17.0108623436,-8.1202425379,-3.200911794\C,15.9854564571,-7.8682467
 087,-4.2347110941\C,15.6778590241,-6.4049035979,-4.4327574707\C,14.778
 7609099,-5.7216682589,-3.70123077\S,14.6692533038,-4.0067759572,-4.193
 6109249\C,15.9130325181,-4.3050039131,-5.4449148663\C,16.325160793,-5.
 5817781822,-5.4351343476\C,18.3856460451,-8.0496901981,-3.5944490687\C
 ,19.1198966427,-6.8925527411,-3.3749411856\C,20.4426857456,-6.81561067
 35,-3.7858742489\C,21.0534389769,-7.8857396329,-4.4356100396\C,20.2969
 749504,-9.0358858066,-4.6673799222\C,18.979375746,-9.1192744022,-4.252
 2870793\C,22.4749060046,-7.8082210607,-4.8683326947\C,22.9619208506,-6
 .6785042199,-5.5250499908\C,24.2871509084,-6.6079839596,-5.9269876042\
 C,25.148656494,-7.6667579327,-5.6793835093\C,24.6757282559,-8.79558308
 17,-5.025955791\C,23.350765568,-8.8657607779,-4.6232388102\H,16.981891
 9089,-8.7747236495,0.0667270538\H,18.2233535079,-7.7573121563,-0.64444
 39033\H,20.6219403156,-8.1181471336,-0.0884854663\H,22.8509691065,-9.1
 305223019,0.0551797162\H,23.2478678365,-11.4542526013,-0.604015944\H,2
 1.3860431302,-12.861456335,-1.4485581804\H,16.3496910998,-8.2995050935
 ,-5.1561487211\H,15.0957003433,-8.399381177,-3.941096918\H,14.18258541
 98,-6.0921933382,-2.8982620927\H,16.2270656139,-3.5107618837,-6.083494
 8172\H,17.0648687836,-5.9629490327,-6.1101762312\H,18.6543139498,-6.05
 36304257,-2.8942703429\H,21.0041860853,-5.9231325448,-3.5889400743\H,2
 0.7394280251,-9.8661810006,-5.1818323213\H,18.4124748553,-10.013557948
 7,-4.4214309742\H,22.2985471643,-5.8626088288,-5.739620452\H,24.642460
 5604,-5.7335712847,-6.4375492745\H,26.1737553952,-7.6130534983,-5.9914
 168171\H,25.3368305878,-9.6165744249,-4.8246851815\H,22.9998905471,-9.
 7330720133,-4.0976215548\\Version=EM64L-G09RevC.01\State=1-A\HF=-1647.
 9299666\RMSD=5.321e-09\RMSF=4.192e-06\Dipole=2.8386934,0.8626941,-0.33
 28509\Quadrupole=-3.5573273,-3.9490459,7.5063732,-2.7730165,5.8636032,
 1.4731697\PG=C01 [X(C25H20N4O1S1)]\\@


 SACRED COWS MAKE GREAT HAMBURGERS -- ROBERT REISNER
 Job cpu time:  0 days  3 hours 55 minutes 38.1 seconds.
 File lengths (MBytes):  RWF=     71 Int=      0 D2E=      0 Chk=     10 Scr=      1
 Normal termination of Gaussian 09 at Fri Aug 26 14:12:55 2022.
