 Entering Gaussian System, Link 0=g09
 Input=Mol08.gjf
 Output=Mol08.log
 Initial command:
 /opt/gaussian/l1.exe /home/scr/lqcapf-6/Gau-220717.inp -scrdir=/home/scr/lqcapf-6/
 Entering Link 1 = /opt/gaussian/l1.exe PID=    220719.
  
 Copyright (c) 1988,1990,1992,1993,1995,1998,2003,2009,2011,
            Gaussian, Inc.  All Rights Reserved.
  
 This is part of the Gaussian(R) 09 program.  It is based on
 the Gaussian(R) 03 system (copyright 2003, Gaussian, Inc.),
 the Gaussian(R) 98 system (copyright 1998, Gaussian, Inc.),
 the Gaussian(R) 94 system (copyright 1995, Gaussian, Inc.),
 the Gaussian 92(TM) system (copyright 1992, Gaussian, Inc.),
 the Gaussian 90(TM) system (copyright 1990, Gaussian, Inc.),
 the Gaussian 88(TM) system (copyright 1988, Gaussian, Inc.),
 the Gaussian 86(TM) system (copyright 1986, Carnegie Mellon
 University), and the Gaussian 82(TM) system (copyright 1983,
 Carnegie Mellon University). Gaussian is a federally registered
 trademark of Gaussian, Inc.
  
 This software contains proprietary and confidential information,
 including trade secrets, belonging to Gaussian, Inc.
  
 This software is provided under written license and may be
 used, copied, transmitted, or stored only in accord with that
 written license.
  
 The following legend is applicable only to US Government
 contracts under FAR:
  
                    RESTRICTED RIGHTS LEGEND
  
 Use, reproduction and disclosure by the US Government is
 subject to restrictions as set forth in subparagraphs (a)
 and (c) of the Commercial Computer Software - Restricted
 Rights clause in FAR 52.227-19.
  
 Gaussian, Inc.
 340 Quinnipiac St., Bldg. 40, Wallingford CT 06492
  
  
 ---------------------------------------------------------------
 Warning -- This program may not be used in any manner that
 competes with the business of Gaussian, Inc. or will provide
 assistance to any competitor of Gaussian, Inc.  The licensee
 of this program is prohibited from giving any competitor of
 Gaussian, Inc. access to this program.  By using this program,
 the user acknowledges that Gaussian, Inc. is engaged in the
 business of creating and licensing software in the field of
 computational chemistry and represents and warrants to the
 licensee that it is not a competitor of Gaussian, Inc. and that
 it will not use this program in any manner prohibited above.
 ---------------------------------------------------------------
  

 Cite this work as:
 Gaussian 09, Revision C.01,
 M. J. Frisch, G. W. Trucks, H. B. Schlegel, G. E. Scuseria, 
 M. A. Robb, J. R. Cheeseman, G. Scalmani, V. Barone, B. Mennucci, 
 G. A. Petersson, H. Nakatsuji, M. Caricato, X. Li, H. P. Hratchian, 
 A. F. Izmaylov, J. Bloino, G. Zheng, J. L. Sonnenberg, M. Hada, 
 M. Ehara, K. Toyota, R. Fukuda, J. Hasegawa, M. Ishida, T. Nakajima, 
 Y. Honda, O. Kitao, H. Nakai, T. Vreven, J. A. Montgomery, Jr., 
 J. E. Peralta, F. Ogliaro, M. Bearpark, J. J. Heyd, E. Brothers, 
 K. N. Kudin, V. N. Staroverov, T. Keith, R. Kobayashi, J. Normand, 
 K. Raghavachari, A. Rendell, J. C. Burant, S. S. Iyengar, J. Tomasi, 
 M. Cossi, N. Rega, J. M. Millam, M. Klene, J. E. Knox, J. B. Cross, 
 V. Bakken, C. Adamo, J. Jaramillo, R. Gomperts, R. E. Stratmann, 
 O. Yazyev, A. J. Austin, R. Cammi, C. Pomelli, J. W. Ochterski, 
 R. L. Martin, K. Morokuma, V. G. Zakrzewski, G. A. Voth, 
 P. Salvador, J. J. Dannenberg, S. Dapprich, A. D. Daniels, 
 O. Farkas, J. B. Foresman, J. V. Ortiz, J. Cioslowski, 
 and D. J. Fox, Gaussian, Inc., Wallingford CT, 2010.
 
 ******************************************
 Gaussian 09:  EM64L-G09RevC.01 23-Sep-2011
                26-Aug-2022 
 ******************************************
 %nprocshared=8
 Will use up to    8 processors via shared memory.
 %mem=1600MB
 ---------------
 #p opt hf/6-31G
 ---------------
 1/18=20,19=15,38=1/1,3;
 2/9=110,12=2,17=6,18=5,40=1/2;
 3/5=1,6=6,11=9,16=1,25=1,30=1,71=1/1,2,3;
 4//1;
 5/5=2,38=5/2;
 6/7=2,8=2,9=2,10=2,28=1/1;
 7//1,2,3,16;
 1/18=20,19=15/3(2);
 2/9=110/2;
 99//99;
 2/9=110/2;
 3/5=1,6=6,11=9,16=1,25=1,30=1,71=1/1,2,3;
 4/5=5,16=3/1;
 5/5=2,38=5/2;
 7//1,2,3,16;
 1/18=20,19=15/3(-5);
 2/9=110/2;
 6/7=2,8=2,9=2,10=2,19=2,28=1/1;
 99/9=1/99;
 Leave Link    1 at Fri Aug 26 14:12:55 2022, MaxMem=  209715200 cpu:       0.1
 (Enter /opt/gaussian/l101.exe)
 ---------
 Mol08.out
 ---------
 Charge =  0 Multiplicity = 1
 Symbolic Z-Matrix:
 O                     15.364   -8.2658    0.9846 
 C                     16.5592  -8.3091    1.3278 
 C                     17.6177  -8.6453    0.2675 
 N                     18.4022  -9.8184    0.5576 
 N                     17.9779  -10.9069   1.2616 
 N                     18.8269  -11.8379   1.249 
 C                     19.955   -11.4396   0.469 
 C                     19.6694  -10.0967   0.0045 
 C                     20.5798  -9.394    -0.7902 
 C                     21.7617  -10.0455  -1.1164 
 C                     22.0428  -11.3517  -0.6741 
 C                     21.1546  -12.0647   0.12 
 N                     16.9487  -8.0637    2.6342 
 C                     15.9469  -7.7873    3.6495 
 C                     15.6039  -6.3505    3.8354 
 C                     14.3646  -5.8016    3.5715 
 S                     14.3177  -4.179     3.9521 
 C                     15.9088  -4.135     4.4659 
 C                     16.5096  -5.3684    4.3574 
 C                     18.3131  -7.9472    3.0119 
 C                     18.8844  -8.8916    3.8908 
 C                     20.212   -8.7695    4.285 
 C                     21.0065  -7.7121    3.8205 
 C                     20.4399  -6.7728    2.9483 
 C                     19.1122  -6.8808    2.5492 
 C                     22.3954  -7.5896    4.2428 
 C                     22.9611  -6.3203    4.5106 
 N                     24.2317  -6.1388    4.9108 
 C                     24.9988  -7.2367    5.0617 
 C                     24.5353  -8.5426    4.8206 
 C                     23.2156  -8.7167    4.4051 
 H                     18.3235  -7.7728    0.1575 
 H                     17.0624  -8.7981   -0.7055 
 H                     20.3695  -8.3749   -1.1389 
 H                     22.5042  -9.526    -1.7423 
 H                     22.9955  -11.8167  -0.9703 
 H                     21.3784  -13.0848   0.4632 
 H                     15.0107  -8.3531    3.3654 
 H                     16.3328  -8.1949    4.6299 
 H                     13.5145  -6.3426    3.1564 
 H                     16.3835  -3.2296    4.839 
 H                     17.5441  -5.5993    4.6207 
 H                     18.2825  -9.736     4.264 
 H                     20.6414  -9.5137    4.9743 
 H                     21.052   -5.9386    2.5711 
 H                     18.6876  -6.1206    1.8746 
 H                     22.3535  -5.403     4.4049 
 H                     26.0361  -7.0557    5.3951 
 H                     25.2015  -9.4043    4.9587 
 H                     22.8219  -9.7237    4.2004 
 
 NAtoms=     50 NQM=        0 NQMF=       0 NMMI=     50 NMMIF=      0
                NMic=       0 NMicF=      0.
                    Isotopes and Nuclear Properties:
 (Nuclear quadrupole moments (NQMom) in fm**2, nuclear magnetic moments (NMagM)
  in nuclear magnetons)

  Atom         1           2           3           4           5           6           7           8           9          10
 IAtWgt=          16          12          12          14          14          14          12          12          12          12
 AtmWgt=  15.9949146  12.0000000  12.0000000  14.0030740  14.0030740  14.0030740  12.0000000  12.0000000  12.0000000  12.0000000
 NucSpn=           0           0           0           2           2           2           0           0           0           0
 AtZEff=   0.0000000   0.0000000   0.0000000   0.0000000   0.0000000   0.0000000   0.0000000   0.0000000   0.0000000   0.0000000
 NQMom=    0.0000000   0.0000000   0.0000000   2.0440000   2.0440000   2.0440000   0.0000000   0.0000000   0.0000000   0.0000000
 NMagM=    0.0000000   0.0000000   0.0000000   0.4037610   0.4037610   0.4037610   0.0000000   0.0000000   0.0000000   0.0000000

  Atom        11          12          13          14          15          16          17          18          19          20
 IAtWgt=          12          12          14          12          12          12          32          12          12          12
 AtmWgt=  12.0000000  12.0000000  14.0030740  12.0000000  12.0000000  12.0000000  31.9720718  12.0000000  12.0000000  12.0000000
 NucSpn=           0           0           2           0           0           0           0           0           0           0
 AtZEff=   0.0000000   0.0000000   0.0000000   0.0000000   0.0000000   0.0000000   0.0000000   0.0000000   0.0000000   0.0000000
 NQMom=    0.0000000   0.0000000   2.0440000   0.0000000   0.0000000   0.0000000   0.0000000   0.0000000   0.0000000   0.0000000
 NMagM=    0.0000000   0.0000000   0.4037610   0.0000000   0.0000000   0.0000000   0.0000000   0.0000000   0.0000000   0.0000000

  Atom        21          22          23          24          25          26          27          28          29          30
 IAtWgt=          12          12          12          12          12          12          12          14          12          12
 AtmWgt=  12.0000000  12.0000000  12.0000000  12.0000000  12.0000000  12.0000000  12.0000000  14.0030740  12.0000000  12.0000000
 NucSpn=           0           0           0           0           0           0           0           2           0           0
 AtZEff=   0.0000000   0.0000000   0.0000000   0.0000000   0.0000000   0.0000000   0.0000000   0.0000000   0.0000000   0.0000000
 NQMom=    0.0000000   0.0000000   0.0000000   0.0000000   0.0000000   0.0000000   0.0000000   2.0440000   0.0000000   0.0000000
 NMagM=    0.0000000   0.0000000   0.0000000   0.0000000   0.0000000   0.0000000   0.0000000   0.4037610   0.0000000   0.0000000

  Atom        31          32          33          34          35          36          37          38          39          40
 IAtWgt=          12           1           1           1           1           1           1           1           1           1
 AtmWgt=  12.0000000   1.0078250   1.0078250   1.0078250   1.0078250   1.0078250   1.0078250   1.0078250   1.0078250   1.0078250
 NucSpn=           0           1           1           1           1           1           1           1           1           1
 AtZEff=   0.0000000   0.0000000   0.0000000   0.0000000   0.0000000   0.0000000   0.0000000   0.0000000   0.0000000   0.0000000
 NQMom=    0.0000000   0.0000000   0.0000000   0.0000000   0.0000000   0.0000000   0.0000000   0.0000000   0.0000000   0.0000000
 NMagM=    0.0000000   2.7928460   2.7928460   2.7928460   2.7928460   2.7928460   2.7928460   2.7928460   2.7928460   2.7928460

  Atom        41          42          43          44          45          46          47          48          49          50
 IAtWgt=           1           1           1           1           1           1           1           1           1           1
 AtmWgt=   1.0078250   1.0078250   1.0078250   1.0078250   1.0078250   1.0078250   1.0078250   1.0078250   1.0078250   1.0078250
 NucSpn=           1           1           1           1           1           1           1           1           1           1
 AtZEff=   0.0000000   0.0000000   0.0000000   0.0000000   0.0000000   0.0000000   0.0000000   0.0000000   0.0000000   0.0000000
 NQMom=    0.0000000   0.0000000   0.0000000   0.0000000   0.0000000   0.0000000   0.0000000   0.0000000   0.0000000   0.0000000
 NMagM=    2.7928460   2.7928460   2.7928460   2.7928460   2.7928460   2.7928460   2.7928460   2.7928460   2.7928460   2.7928460
 Leave Link  101 at Fri Aug 26 14:12:56 2022, MaxMem=  209715200 cpu:       0.8
 (Enter /opt/gaussian/l103.exe)

 GradGradGradGradGradGradGradGradGradGradGradGradGradGradGradGradGradGrad
 Berny optimization.
 Initialization pass.
                           ----------------------------
                           !    Initial Parameters    !
                           ! (Angstroms and Degrees)  !
 --------------------------                            --------------------------
 ! Name  Definition              Value          Derivative Info.                !
 --------------------------------------------------------------------------------
 ! R1    R(1,2)                  1.2443         estimate D2E/DX2                !
 ! R2    R(2,3)                  1.5355         estimate D2E/DX2                !
 ! R3    R(2,13)                 1.3851         estimate D2E/DX2                !
 ! R4    R(3,4)                  1.4408         estimate D2E/DX2                !
 ! R5    R(3,32)                 1.1276         estimate D2E/DX2                !
 ! R6    R(3,33)                 1.1307         estimate D2E/DX2                !
 ! R7    R(4,5)                  1.364          estimate D2E/DX2                !
 ! R8    R(4,8)                  1.4104         estimate D2E/DX2                !
 ! R9    R(5,6)                  1.26           estimate D2E/DX2                !
 ! R10   R(6,7)                  1.4282         estimate D2E/DX2                !
 ! R11   R(7,8)                  1.4494         estimate D2E/DX2                !
 ! R12   R(7,12)                 1.397          estimate D2E/DX2                !
 ! R13   R(8,9)                  1.3979         estimate D2E/DX2                !
 ! R14   R(9,10)                 1.3884         estimate D2E/DX2                !
 ! R15   R(9,34)                 1.0974         estimate D2E/DX2                !
 ! R16   R(10,11)                1.4074         estimate D2E/DX2                !
 ! R17   R(10,35)                1.1013         estimate D2E/DX2                !
 ! R18   R(11,12)                1.3885         estimate D2E/DX2                !
 ! R19   R(11,36)                1.1007         estimate D2E/DX2                !
 ! R20   R(12,37)                1.0993         estimate D2E/DX2                !
 ! R21   R(13,14)                1.4529         estimate D2E/DX2                !
 ! R22   R(13,20)                1.4205         estimate D2E/DX2                !
 ! R23   R(14,15)                1.4888         estimate D2E/DX2                !
 ! R24   R(14,38)                1.1302         estimate D2E/DX2                !
 ! R25   R(14,39)                1.1297         estimate D2E/DX2                !
 ! R26   R(15,16)                1.3809         estimate D2E/DX2                !
 ! R27   R(15,19)                1.4343         estimate D2E/DX2                !
 ! R28   R(16,17)                1.6673         estimate D2E/DX2                !
 ! R29   R(16,40)                1.0898         estimate D2E/DX2                !
 ! R30   R(17,18)                1.6726         estimate D2E/DX2                !
 ! R31   R(18,19)                1.3762         estimate D2E/DX2                !
 ! R32   R(18,41)                1.0883         estimate D2E/DX2                !
 ! R33   R(19,42)                1.0922         estimate D2E/DX2                !
 ! R34   R(20,21)                1.4109         estimate D2E/DX2                !
 ! R35   R(20,25)                1.4106         estimate D2E/DX2                !
 ! R36   R(21,22)                1.3903         estimate D2E/DX2                !
 ! R37   R(21,43)                1.1021         estimate D2E/DX2                !
 ! R38   R(22,23)                1.4018         estimate D2E/DX2                !
 ! R39   R(22,44)                1.1015         estimate D2E/DX2                !
 ! R40   R(23,24)                1.4014         estimate D2E/DX2                !
 ! R41   R(23,26)                1.4568         estimate D2E/DX2                !
 ! R42   R(24,25)                1.3906         estimate D2E/DX2                !
 ! R43   R(24,45)                1.1013         estimate D2E/DX2                !
 ! R44   R(25,46)                1.1015         estimate D2E/DX2                !
 ! R45   R(26,27)                1.4152         estimate D2E/DX2                !
 ! R46   R(26,31)                1.4034         estimate D2E/DX2                !
 ! R47   R(27,28)                1.3444         estimate D2E/DX2                !
 ! R48   R(27,47)                1.1053         estimate D2E/DX2                !
 ! R49   R(28,29)                1.3478         estimate D2E/DX2                !
 ! R50   R(29,30)                1.4065         estimate D2E/DX2                !
 ! R51   R(29,48)                1.1045         estimate D2E/DX2                !
 ! R52   R(30,31)                1.3945         estimate D2E/DX2                !
 ! R53   R(30,49)                1.0979         estimate D2E/DX2                !
 ! R54   R(31,50)                1.1004         estimate D2E/DX2                !
 ! A1    A(1,2,3)              118.6421         estimate D2E/DX2                !
 ! A2    A(1,2,13)             121.6074         estimate D2E/DX2                !
 ! A3    A(3,2,13)             119.7505         estimate D2E/DX2                !
 ! A4    A(2,3,4)              114.4942         estimate D2E/DX2                !
 ! A5    A(2,3,32)             109.2344         estimate D2E/DX2                !
 ! A6    A(2,3,33)             106.5747         estimate D2E/DX2                !
 ! A7    A(4,3,32)             107.9892         estimate D2E/DX2                !
 ! A8    A(4,3,33)             109.3087         estimate D2E/DX2                !
 ! A9    A(32,3,33)            109.1488         estimate D2E/DX2                !
 ! A10   A(3,4,5)              125.7548         estimate D2E/DX2                !
 ! A11   A(3,4,8)              124.8153         estimate D2E/DX2                !
 ! A12   A(5,4,8)              108.9312         estimate D2E/DX2                !
 ! A13   A(4,5,6)              112.0164         estimate D2E/DX2                !
 ! A14   A(5,6,7)              109.3671         estimate D2E/DX2                !
 ! A15   A(6,7,8)              106.128          estimate D2E/DX2                !
 ! A16   A(6,7,12)             133.6249         estimate D2E/DX2                !
 ! A17   A(8,7,12)             120.2471         estimate D2E/DX2                !
 ! A18   A(4,8,7)              103.5439         estimate D2E/DX2                !
 ! A19   A(4,8,9)              135.145          estimate D2E/DX2                !
 ! A20   A(7,8,9)              121.306          estimate D2E/DX2                !
 ! A21   A(8,9,10)             116.8765         estimate D2E/DX2                !
 ! A22   A(8,9,34)             121.5085         estimate D2E/DX2                !
 ! A23   A(10,9,34)            121.615          estimate D2E/DX2                !
 ! A24   A(9,10,11)            122.1187         estimate D2E/DX2                !
 ! A25   A(9,10,35)            119.0831         estimate D2E/DX2                !
 ! A26   A(11,10,35)           118.7982         estimate D2E/DX2                !
 ! A27   A(10,11,12)           121.9079         estimate D2E/DX2                !
 ! A28   A(10,11,36)           118.7096         estimate D2E/DX2                !
 ! A29   A(12,11,36)           119.3825         estimate D2E/DX2                !
 ! A30   A(7,12,11)            117.5426         estimate D2E/DX2                !
 ! A31   A(7,12,37)            120.8            estimate D2E/DX2                !
 ! A32   A(11,12,37)           121.6571         estimate D2E/DX2                !
 ! A33   A(2,13,14)            119.9277         estimate D2E/DX2                !
 ! A34   A(2,13,20)            122.3711         estimate D2E/DX2                !
 ! A35   A(14,13,20)           117.4443         estimate D2E/DX2                !
 ! A36   A(13,14,15)           115.4491         estimate D2E/DX2                !
 ! A37   A(13,14,38)           107.474          estimate D2E/DX2                !
 ! A38   A(13,14,39)           107.5948         estimate D2E/DX2                !
 ! A39   A(15,14,38)           108.8856         estimate D2E/DX2                !
 ! A40   A(15,14,39)           108.574          estimate D2E/DX2                !
 ! A41   A(38,14,39)           108.6924         estimate D2E/DX2                !
 ! A42   A(14,15,16)           124.5075         estimate D2E/DX2                !
 ! A43   A(14,15,19)           124.1078         estimate D2E/DX2                !
 ! A44   A(16,15,19)           111.3513         estimate D2E/DX2                !
 ! A45   A(15,16,17)           111.6211         estimate D2E/DX2                !
 ! A46   A(15,16,40)           125.1378         estimate D2E/DX2                !
 ! A47   A(17,16,40)           123.2381         estimate D2E/DX2                !
 ! A48   A(16,17,18)            93.9546         estimate D2E/DX2                !
 ! A49   A(17,18,19)           111.5611         estimate D2E/DX2                !
 ! A50   A(17,18,41)           122.8307         estimate D2E/DX2                !
 ! A51   A(19,18,41)           125.6078         estimate D2E/DX2                !
 ! A52   A(15,19,18)           111.511          estimate D2E/DX2                !
 ! A53   A(15,19,42)           122.7574         estimate D2E/DX2                !
 ! A54   A(18,19,42)           125.7303         estimate D2E/DX2                !
 ! A55   A(13,20,21)           119.977          estimate D2E/DX2                !
 ! A56   A(13,20,25)           121.2585         estimate D2E/DX2                !
 ! A57   A(21,20,25)           118.7479         estimate D2E/DX2                !
 ! A58   A(20,21,22)           120.2981         estimate D2E/DX2                !
 ! A59   A(20,21,43)           120.1751         estimate D2E/DX2                !
 ! A60   A(22,21,43)           119.5253         estimate D2E/DX2                !
 ! A61   A(21,22,23)           120.8982         estimate D2E/DX2                !
 ! A62   A(21,22,44)           119.3637         estimate D2E/DX2                !
 ! A63   A(23,22,44)           119.7378         estimate D2E/DX2                !
 ! A64   A(22,23,24)           118.8583         estimate D2E/DX2                !
 ! A65   A(22,23,26)           120.5113         estimate D2E/DX2                !
 ! A66   A(24,23,26)           120.6298         estimate D2E/DX2                !
 ! A67   A(23,24,25)           120.8356         estimate D2E/DX2                !
 ! A68   A(23,24,45)           119.745          estimate D2E/DX2                !
 ! A69   A(25,24,45)           119.4193         estimate D2E/DX2                !
 ! A70   A(20,25,24)           120.3607         estimate D2E/DX2                !
 ! A71   A(20,25,46)           120.2825         estimate D2E/DX2                !
 ! A72   A(24,25,46)           119.3549         estimate D2E/DX2                !
 ! A73   A(23,26,27)           120.7539         estimate D2E/DX2                !
 ! A74   A(23,26,31)           121.5464         estimate D2E/DX2                !
 ! A75   A(27,26,31)           117.699          estimate D2E/DX2                !
 ! A76   A(26,27,28)           123.723          estimate D2E/DX2                !
 ! A77   A(26,27,47)           120.4301         estimate D2E/DX2                !
 ! A78   A(28,27,47)           115.8446         estimate D2E/DX2                !
 ! A79   A(27,28,29)           117.4674         estimate D2E/DX2                !
 ! A80   A(28,29,30)           123.3365         estimate D2E/DX2                !
 ! A81   A(28,29,48)           115.7742         estimate D2E/DX2                !
 ! A82   A(30,29,48)           120.8892         estimate D2E/DX2                !
 ! A83   A(29,30,31)           118.6107         estimate D2E/DX2                !
 ! A84   A(29,30,49)           120.4761         estimate D2E/DX2                !
 ! A85   A(31,30,49)           120.9132         estimate D2E/DX2                !
 ! A86   A(26,31,30)           119.1634         estimate D2E/DX2                !
 ! A87   A(26,31,50)           120.2875         estimate D2E/DX2                !
 ! A88   A(30,31,50)           120.548          estimate D2E/DX2                !
 ! D1    D(1,2,3,4)           -120.7366         estimate D2E/DX2                !
 ! D2    D(1,2,3,32)           118.0377         estimate D2E/DX2                !
 ! D3    D(1,2,3,33)             0.2417         estimate D2E/DX2                !
 ! D4    D(13,2,3,4)            59.2035         estimate D2E/DX2                !
 ! D5    D(13,2,3,32)          -62.0222         estimate D2E/DX2                !
 ! D6    D(13,2,3,33)         -179.8182         estimate D2E/DX2                !
 ! D7    D(1,2,13,14)            1.9016         estimate D2E/DX2                !
 ! D8    D(1,2,13,20)         -172.1252         estimate D2E/DX2                !
 ! D9    D(3,2,13,14)         -178.0366         estimate D2E/DX2                !
 ! D10   D(3,2,13,20)            7.9366         estimate D2E/DX2                !
 ! D11   D(2,3,4,5)             30.182          estimate D2E/DX2                !
 ! D12   D(2,3,4,8)           -158.8277         estimate D2E/DX2                !
 ! D13   D(32,3,4,5)           152.0902         estimate D2E/DX2                !
 ! D14   D(32,3,4,8)           -36.9195         estimate D2E/DX2                !
 ! D15   D(33,3,4,5)           -89.2763         estimate D2E/DX2                !
 ! D16   D(33,3,4,8)            81.7141         estimate D2E/DX2                !
 ! D17   D(3,4,5,6)            173.4428         estimate D2E/DX2                !
 ! D18   D(8,4,5,6)              1.2547         estimate D2E/DX2                !
 ! D19   D(3,4,8,7)           -173.186          estimate D2E/DX2                !
 ! D20   D(3,4,8,9)              7.6715         estimate D2E/DX2                !
 ! D21   D(5,4,8,7)             -0.9072         estimate D2E/DX2                !
 ! D22   D(5,4,8,9)            179.9502         estimate D2E/DX2                !
 ! D23   D(4,5,6,7)             -1.0184         estimate D2E/DX2                !
 ! D24   D(5,6,7,8)              0.3989         estimate D2E/DX2                !
 ! D25   D(5,6,7,12)          -179.5835         estimate D2E/DX2                !
 ! D26   D(6,7,8,4)              0.331          estimate D2E/DX2                !
 ! D27   D(6,7,8,9)            179.6232         estimate D2E/DX2                !
 ! D28   D(12,7,8,4)          -179.6838         estimate D2E/DX2                !
 ! D29   D(12,7,8,9)            -0.3916         estimate D2E/DX2                !
 ! D30   D(6,7,12,11)         -179.8852         estimate D2E/DX2                !
 ! D31   D(6,7,12,37)            0.2793         estimate D2E/DX2                !
 ! D32   D(8,7,12,11)            0.1344         estimate D2E/DX2                !
 ! D33   D(8,7,12,37)         -179.7011         estimate D2E/DX2                !
 ! D34   D(4,8,9,10)           179.3476         estimate D2E/DX2                !
 ! D35   D(4,8,9,34)            -0.6157         estimate D2E/DX2                !
 ! D36   D(7,8,9,10)             0.3233         estimate D2E/DX2                !
 ! D37   D(7,8,9,34)          -179.64           estimate D2E/DX2                !
 ! D38   D(8,9,10,11)           -0.0195         estimate D2E/DX2                !
 ! D39   D(8,9,10,35)          179.9047         estimate D2E/DX2                !
 ! D40   D(34,9,10,11)         179.9438         estimate D2E/DX2                !
 ! D41   D(34,9,10,35)          -0.132          estimate D2E/DX2                !
 ! D42   D(9,10,11,12)          -0.2353         estimate D2E/DX2                !
 ! D43   D(9,10,11,36)         179.7027         estimate D2E/DX2                !
 ! D44   D(35,10,11,12)        179.8403         estimate D2E/DX2                !
 ! D45   D(35,10,11,36)         -0.2217         estimate D2E/DX2                !
 ! D46   D(10,11,12,7)           0.1681         estimate D2E/DX2                !
 ! D47   D(10,11,12,37)       -179.9978         estimate D2E/DX2                !
 ! D48   D(36,11,12,7)        -179.7695         estimate D2E/DX2                !
 ! D49   D(36,11,12,37)          0.0646         estimate D2E/DX2                !
 ! D50   D(2,13,14,15)         -90.7008         estimate D2E/DX2                !
 ! D51   D(2,13,14,38)          31.0088         estimate D2E/DX2                !
 ! D52   D(2,13,14,39)         147.9009         estimate D2E/DX2                !
 ! D53   D(20,13,14,15)         83.6155         estimate D2E/DX2                !
 ! D54   D(20,13,14,38)       -154.6749         estimate D2E/DX2                !
 ! D55   D(20,13,14,39)        -37.7828         estimate D2E/DX2                !
 ! D56   D(2,13,20,21)        -115.5262         estimate D2E/DX2                !
 ! D57   D(2,13,20,25)          65.9744         estimate D2E/DX2                !
 ! D58   D(14,13,20,21)         70.3064         estimate D2E/DX2                !
 ! D59   D(14,13,20,25)       -108.1929         estimate D2E/DX2                !
 ! D60   D(13,14,15,16)        115.2556         estimate D2E/DX2                !
 ! D61   D(13,14,15,19)        -67.0293         estimate D2E/DX2                !
 ! D62   D(38,14,15,16)         -5.6924         estimate D2E/DX2                !
 ! D63   D(38,14,15,19)        172.0227         estimate D2E/DX2                !
 ! D64   D(39,14,15,16)       -123.8755         estimate D2E/DX2                !
 ! D65   D(39,14,15,19)         53.8396         estimate D2E/DX2                !
 ! D66   D(14,15,16,17)        177.6446         estimate D2E/DX2                !
 ! D67   D(14,15,16,40)         -2.9727         estimate D2E/DX2                !
 ! D68   D(19,15,16,17)         -0.3242         estimate D2E/DX2                !
 ! D69   D(19,15,16,40)        179.0585         estimate D2E/DX2                !
 ! D70   D(14,15,19,18)       -177.7177         estimate D2E/DX2                !
 ! D71   D(14,15,19,42)          2.6634         estimate D2E/DX2                !
 ! D72   D(16,15,19,18)          0.2608         estimate D2E/DX2                !
 ! D73   D(16,15,19,42)       -179.3581         estimate D2E/DX2                !
 ! D74   D(15,16,17,18)          0.2414         estimate D2E/DX2                !
 ! D75   D(40,16,17,18)       -179.1551         estimate D2E/DX2                !
 ! D76   D(16,17,18,19)         -0.0881         estimate D2E/DX2                !
 ! D77   D(16,17,18,41)       -179.8626         estimate D2E/DX2                !
 ! D78   D(17,18,19,15)         -0.0831         estimate D2E/DX2                !
 ! D79   D(17,18,19,42)        179.5221         estimate D2E/DX2                !
 ! D80   D(41,18,19,15)        179.6839         estimate D2E/DX2                !
 ! D81   D(41,18,19,42)         -0.711          estimate D2E/DX2                !
 ! D82   D(13,20,21,22)       -178.7693         estimate D2E/DX2                !
 ! D83   D(13,20,21,43)          1.6742         estimate D2E/DX2                !
 ! D84   D(25,20,21,22)         -0.2324         estimate D2E/DX2                !
 ! D85   D(25,20,21,43)       -179.7889         estimate D2E/DX2                !
 ! D86   D(13,20,25,24)        178.9413         estimate D2E/DX2                !
 ! D87   D(13,20,25,46)         -0.5439         estimate D2E/DX2                !
 ! D88   D(21,20,25,24)          0.424          estimate D2E/DX2                !
 ! D89   D(21,20,25,46)       -179.0613         estimate D2E/DX2                !
 ! D90   D(20,21,22,23)         -0.0043         estimate D2E/DX2                !
 ! D91   D(20,21,22,44)        179.8018         estimate D2E/DX2                !
 ! D92   D(43,21,22,23)        179.555          estimate D2E/DX2                !
 ! D93   D(43,21,22,44)         -0.6388         estimate D2E/DX2                !
 ! D94   D(21,22,23,24)          0.0542         estimate D2E/DX2                !
 ! D95   D(21,22,23,26)        179.7799         estimate D2E/DX2                !
 ! D96   D(44,22,23,24)       -179.7512         estimate D2E/DX2                !
 ! D97   D(44,22,23,26)         -0.0256         estimate D2E/DX2                !
 ! D98   D(22,23,24,25)          0.1393         estimate D2E/DX2                !
 ! D99   D(22,23,24,45)       -179.7451         estimate D2E/DX2                !
 ! D100  D(26,23,24,25)       -179.586          estimate D2E/DX2                !
 ! D101  D(26,23,24,45)          0.5296         estimate D2E/DX2                !
 ! D102  D(22,23,26,27)       -141.6669         estimate D2E/DX2                !
 ! D103  D(22,23,26,31)         38.006          estimate D2E/DX2                !
 ! D104  D(24,23,26,27)         38.0539         estimate D2E/DX2                !
 ! D105  D(24,23,26,31)       -142.2733         estimate D2E/DX2                !
 ! D106  D(23,24,25,20)         -0.382          estimate D2E/DX2                !
 ! D107  D(23,24,25,46)        179.108          estimate D2E/DX2                !
 ! D108  D(45,24,25,20)        179.5027         estimate D2E/DX2                !
 ! D109  D(45,24,25,46)         -1.0072         estimate D2E/DX2                !
 ! D110  D(23,26,27,28)        179.5879         estimate D2E/DX2                !
 ! D111  D(23,26,27,47)          0.1591         estimate D2E/DX2                !
 ! D112  D(31,26,27,28)         -0.0973         estimate D2E/DX2                !
 ! D113  D(31,26,27,47)       -179.526          estimate D2E/DX2                !
 ! D114  D(23,26,31,30)       -179.5478         estimate D2E/DX2                !
 ! D115  D(23,26,31,50)          0.8304         estimate D2E/DX2                !
 ! D116  D(27,26,31,30)          0.1347         estimate D2E/DX2                !
 ! D117  D(27,26,31,50)       -179.4872         estimate D2E/DX2                !
 ! D118  D(26,27,28,29)         -0.0156         estimate D2E/DX2                !
 ! D119  D(47,27,28,29)        179.4371         estimate D2E/DX2                !
 ! D120  D(27,28,29,30)          0.0921         estimate D2E/DX2                !
 ! D121  D(27,28,29,48)       -179.7682         estimate D2E/DX2                !
 ! D122  D(28,29,30,31)         -0.0516         estimate D2E/DX2                !
 ! D123  D(28,29,30,49)       -179.9965         estimate D2E/DX2                !
 ! D124  D(48,29,30,31)        179.8018         estimate D2E/DX2                !
 ! D125  D(48,29,30,49)         -0.1431         estimate D2E/DX2                !
 ! D126  D(29,30,31,26)         -0.0664         estimate D2E/DX2                !
 ! D127  D(29,30,31,50)        179.5544         estimate D2E/DX2                !
 ! D128  D(49,30,31,26)        179.8783         estimate D2E/DX2                !
 ! D129  D(49,30,31,50)         -0.5009         estimate D2E/DX2                !
 --------------------------------------------------------------------------------
 Trust Radius=3.00D-01 FncErr=1.00D-07 GrdErr=1.00D-07
 Number of steps in this run=    281 maximum allowed number of steps=    300.
 GradGradGradGradGradGradGradGradGradGradGradGradGradGradGradGradGradGrad

 Leave Link  103 at Fri Aug 26 14:12:56 2022, MaxMem=  209715200 cpu:       0.1
 (Enter /opt/gaussian/l202.exe)
                          Input orientation:                          
 ---------------------------------------------------------------------
 Center     Atomic      Atomic             Coordinates (Angstroms)
 Number     Number       Type             X           Y           Z
 ---------------------------------------------------------------------
      1          8           0       15.364000   -8.265800    0.984600
      2          6           0       16.559200   -8.309100    1.327800
      3          6           0       17.617700   -8.645300    0.267500
      4          7           0       18.402200   -9.818400    0.557600
      5          7           0       17.977900  -10.906900    1.261600
      6          7           0       18.826900  -11.837900    1.249000
      7          6           0       19.955000  -11.439600    0.469000
      8          6           0       19.669400  -10.096700    0.004500
      9          6           0       20.579800   -9.394000   -0.790200
     10          6           0       21.761700  -10.045500   -1.116400
     11          6           0       22.042800  -11.351700   -0.674100
     12          6           0       21.154600  -12.064700    0.120000
     13          7           0       16.948700   -8.063700    2.634200
     14          6           0       15.946900   -7.787300    3.649500
     15          6           0       15.603900   -6.350500    3.835400
     16          6           0       14.364600   -5.801600    3.571500
     17         16           0       14.317700   -4.179000    3.952100
     18          6           0       15.908800   -4.135000    4.465900
     19          6           0       16.509600   -5.368400    4.357400
     20          6           0       18.313100   -7.947200    3.011900
     21          6           0       18.884400   -8.891600    3.890800
     22          6           0       20.212000   -8.769500    4.285000
     23          6           0       21.006500   -7.712100    3.820500
     24          6           0       20.439900   -6.772800    2.948300
     25          6           0       19.112200   -6.880800    2.549200
     26          6           0       22.395400   -7.589600    4.242800
     27          6           0       22.961100   -6.320300    4.510600
     28          7           0       24.231700   -6.138800    4.910800
     29          6           0       24.998800   -7.236700    5.061700
     30          6           0       24.535300   -8.542600    4.820600
     31          6           0       23.215600   -8.716700    4.405100
     32          1           0       18.323500   -7.772800    0.157500
     33          1           0       17.062400   -8.798100   -0.705500
     34          1           0       20.369500   -8.374900   -1.138900
     35          1           0       22.504200   -9.526000   -1.742300
     36          1           0       22.995500  -11.816700   -0.970300
     37          1           0       21.378400  -13.084800    0.463200
     38          1           0       15.010700   -8.353100    3.365400
     39          1           0       16.332800   -8.194900    4.629900
     40          1           0       13.514500   -6.342600    3.156400
     41          1           0       16.383500   -3.229600    4.839000
     42          1           0       17.544100   -5.599300    4.620700
     43          1           0       18.282500   -9.736000    4.264000
     44          1           0       20.641400   -9.513700    4.974300
     45          1           0       21.052000   -5.938600    2.571100
     46          1           0       18.687600   -6.120600    1.874600
     47          1           0       22.353500   -5.403000    4.404900
     48          1           0       26.036100   -7.055700    5.395100
     49          1           0       25.201500   -9.404300    4.958700
     50          1           0       22.821900   -9.723700    4.200400
 ---------------------------------------------------------------------
                    Distance matrix (angstroms):
                    1          2          3          4          5
     1  O    0.000000
     2  C    1.244252   0.000000
     3  C    2.395290   1.535477   0.000000
     4  N    3.438540   2.503566   1.440750   0.000000
     5  N    3.726206   2.960685   2.496560   1.363994   0.000000
     6  N    4.982116   4.195367   3.552211   2.176415   1.260048
     7  C    5.605009   4.697768   3.648518   2.246626   2.195657
     8  C    4.780090   3.823608   2.526896   1.410378   2.257852
     9  C    5.623817   4.672061   3.233159   2.595886   3.642614
    10  C    6.965063   6.004599   4.587862   3.760331   4.551268
    11  C    7.541912   6.582924   5.271880   4.137881   4.524179
    12  C    6.979271   6.056485   4.921759   3.579534   3.568638
    13  N    2.296366   1.385140   2.527269   3.082840   3.320703
    14  C    2.769554   2.457128   3.868548   4.440012   4.422548
    15  C    3.442817   3.322163   4.695893   5.531798   5.746399
    16  C    3.709870   4.017215   5.439274   6.443639   6.667508
    17  S    5.157784   5.382286   6.664391   7.746522   8.117912
    18  C    5.429527   5.262490   6.394506   7.334364   7.772216
    19  C    4.591634   4.222399   5.356607   6.150034   6.512670
    20  C    3.592860   2.458318   2.915931   3.087542   3.454813
    21  C    4.607694   3.509249   3.846231   3.493093   3.434511
    22  C    5.886379   4.722282   4.783944   4.274234   4.324422
    23  C    6.339300   5.133073   4.997863   4.676045   5.091869
    24  C    5.643574   4.477284   4.319463   4.375311   5.098743
    25  C    4.291294   3.170121   3.248561   3.619401   4.376532
    26  C    7.779055   6.563241   6.304279   5.873150   6.277447
    27  C    8.598464   7.420907   7.208429   6.974703   7.511670
    28  N    9.928508   8.741587   8.460956   8.153090   8.669571
    29  C   10.512429   9.290796   8.913425   8.394476   8.786590
    30  C    9.945062   8.710473   8.282177   7.577318   7.826614
    31  C    8.576174   7.344629   6.961416   6.259858   6.489381
    32  H    3.112199   2.184027   1.127612   2.085846   3.340817
    33  H    2.454454   2.150963   1.130679   2.105112   3.025667
    34  H    5.438399   4.539529   3.102173   2.971881   4.230032
    35  H    7.746389   6.800690   5.356567   4.711841   5.605149
    36  H    8.641199   7.681828   6.364798   5.236992   5.566455
    37  H    7.724482   6.839556   5.821540   4.419960   4.116320
    38  H    2.408454   2.559610   4.059411   4.640379   4.444339
    39  H    3.772507   3.311822   4.569941   4.847865   4.626742
    40  H    3.440358   4.059692   5.521270   6.536403   6.659207
    41  H    6.423324   6.177436   7.193863   8.112818   8.618633
    42  H    5.008421   4.376784   5.313557   5.919960   6.296217
    43  H    4.629643   3.691487   4.195664   3.709248   3.237004
    44  H    6.732452   5.604675   5.661347   4.961260   4.776963
    45  H    6.347140   5.229753   4.942390   5.111602   5.987394
    46  H    4.054664   3.101388   3.178296   3.935691   4.877306
    47  H    8.291392   7.175505   7.075195   7.064718   7.701891
    48  H   11.610795  10.388723   9.984416   9.450415   9.841349
    49  H   10.670804   9.437809   8.949718   8.109972   8.252682
    50  H    8.251492   7.033799   6.611683   5.728238   5.787991
                    6          7          8          9         10
     6  N    0.000000
     7  C    1.428164   0.000000
     8  C    2.300079   1.449382   0.000000
     9  C    3.633682   2.482023   1.397914   0.000000
    10  C    4.173831   2.778700   2.374186   1.388433   0.000000
    11  C    3.778454   2.381872   2.769215   2.446720   1.407411
    12  C    2.596973   1.396994   2.468235   2.879496   2.444263
    13  N    4.437454   5.012248   4.295418   5.165375   6.415567
    14  C    5.519435   6.286473   5.698803   6.614846   7.850170
    15  C    6.869407   7.494242   6.725927   7.444370   8.723064
    16  C    7.857674   8.524384   7.701446   8.399909   9.731607
    17  S    9.289692   9.829926   8.901877   9.428655  10.747960
    18  C    8.842987   9.257652   8.341946   8.780769  10.017611
    19  C    7.542311   7.990614   7.161627   7.698686   8.911919
    20  C    4.302250   4.621583   3.937557   4.656944   5.773956
    21  C    3.957663   4.398546   4.143889   5.003853   5.889176
    22  C    4.533307   4.664476   4.514261   5.126688   5.762367
    23  C    5.327804   5.121763   4.694253   4.926400   5.512537
    24  C    5.580737   5.306701   4.506433   4.568002   5.383262
    25  C    5.132714   5.081358   4.138597   4.429629   5.520127
    26  C    6.304370   5.917738   5.628482   5.646534   5.929085
    27  C    7.627159   7.181810   6.738058   6.573941   6.854109
    28  N    8.666048   8.131312   7.781474   7.512263   7.595416
    29  C    8.590697   8.012314   7.883995   7.643706   7.519115
    30  C    7.496743   6.950409   7.020472   6.917510   6.723060
    31  C    6.242079   5.791250   5.817664   5.864923   5.862295
    32  H    4.239083   4.025450   2.689864   2.935526   4.313839
    33  H    4.021681   4.089512   2.997818   3.568525   4.879371
    34  H    4.480407   3.485619   2.182223   1.097444   2.174772
    35  H    5.274021   3.879450   3.378328   2.151101   1.101334
    36  H    4.722602   3.385030   3.869312   3.426006   2.163506
    37  H    2.946590   2.175496   3.472726   3.978791   3.446650
    38  H    5.584475   6.508588   6.003272   7.026191   8.278089
    39  H    5.560797   6.400117   6.011994   6.989444   8.118968
    40  H    7.877696   8.641850   7.868325   8.648997   9.999230
    41  H    9.641635   9.962761   9.018126   9.343268  10.528453
    42  H    7.206529   7.560301   6.786222   7.272762   8.394710
    43  H    3.715452   4.483473   4.494100   5.562328   6.414774
    44  H    4.751018   4.947521   5.097410   5.766072   6.215666
    45  H    6.442108   5.990262   5.078269   4.843666   5.564886
    46  H    5.753112   5.645686   4.502286   4.625660   5.813864
    47  H    7.987775   7.595041   6.971279   6.786984   7.237941
    48  H    9.593339   8.970218   8.879252   8.573027   8.343203
    49  H    7.766583   7.199001   7.458394   7.376318   7.010720
    50  H    5.398206   5.008670   5.261460   5.481040   5.431017
                   11         12         13         14         15
    11  C    0.000000
    12  C    1.388475   0.000000
    13  N    6.906928   6.326041   0.000000
    14  C    8.280004   7.607474   1.452871   0.000000
    15  C    9.317029   8.790139   2.487252   1.488826   0.000000
    16  C   10.381883   9.861205   3.559944   2.540229   1.380869
    17  S   11.512016  11.118114   4.873389   3.970603   2.526528
    18  C   10.776192  10.453966   4.457712   3.742627   2.323561
    19  C    9.577691   9.185424   3.229066   2.582408   1.434328
    20  C    6.252030   5.778496   1.420499   2.455810   3.250749
    21  C    6.071729   5.425984   2.451815   3.147477   4.149932
    22  C    5.883218   5.393891   3.724570   4.422630   5.223819
    23  C    5.875546   5.714959   4.242248   5.063047   5.571558
    24  C    6.054535   6.042705   3.735446   4.659178   4.934793
    25  C    6.242357   6.078259   2.467227   3.471531   3.774082
    26  C    6.201099   6.209958   5.699027   6.478753   6.915621
    27  C    7.282814   7.452445   6.535233   7.217519   7.388180
    28  N    7.947120   8.218065   7.869577   8.540863   8.697139
    29  C    7.653141   7.906191   8.448716   9.177928   9.515950
    30  C    6.655473   6.777165   7.909879   8.700722   9.249099
    31  C    5.840972   5.815403   6.544962   7.366730   7.991335
    32  H    5.228124   5.141686   2.847585   4.224039   4.790210
    33  H    5.596985   5.300776   3.421384   4.607828   5.360759
    34  H    3.446347   3.976913   5.102451   6.544726   7.180028
    35  H    2.164976   3.425577   7.221887   8.665608   9.423836
    36  H    1.100726   2.153873   7.977545   9.341380  10.373517
    37  H    2.176813   1.099307   7.038958   8.229046   9.490384
    38  H    8.646363   7.877570   2.091471   1.130183   2.140839
    39  H    8.408442   7.652732   2.092693   1.129708   2.136431
    40  H   10.606400  10.016650   3.876675   2.871737   2.196974
    41  H   11.330951  11.094654   5.343137   4.730556   3.369719
    42  H    9.020162   8.665645   3.220862   2.877781   2.223820
    43  H    6.413671   5.553786   2.689211   3.103235   4.338226
    44  H    6.102998   5.507740   4.605931   5.174348   6.056347
    45  H    6.388635   6.599054   4.621375   5.535583   5.608022
    46  H    6.716967   6.670610   2.715953   3.666005   3.661529
    47  H    7.828142   8.010991   6.279058   6.877502   6.839531
    48  H    8.440216   8.760468   9.550889  10.265199  10.571697
    49  H    6.745234   6.846031   8.678088   9.485585  10.134171
    50  H    5.197897   4.990975   6.301036   7.163711   7.975665
                   16         17         18         19         20
    16  C    0.000000
    17  S    1.667299   0.000000
    18  C    2.441733   1.672581   0.000000
    19  C    2.325151   2.526532   1.376230   0.000000
    20  C    4.528510   5.571941   4.735783   3.422454   0.000000
    21  C    5.484400   6.562553   5.640051   4.274381   1.410936
    22  C    6.596181   7.478388   6.326835   5.027971   2.429564
    23  C    6.915696   7.565723   6.260889   5.099343   2.821969
    24  C    6.183921   6.724340   5.458202   4.405129   2.430337
    25  C    4.974884   5.679356   4.634105   3.511477   1.410624
    26  C    8.254777   8.773023   7.352552   6.292019   4.278804
    27  C    8.663185   8.922189   7.383256   6.523146   5.147505
    28  N    9.963287  10.151222   8.572270   7.780141   6.473481
    29  C   10.833578  11.165422   9.623077   8.720843   7.028874
    30  C   10.607378  11.144265   9.693774   8.643030   6.507048
    31  C    9.355902   9.998428   8.624674   7.495587   5.154381
    32  H    5.586941   6.584893   6.134059   5.168223   2.859742
    33  H    5.877913   7.110745   7.058234   6.140145   4.013396
    34  H    8.054102   8.952549   8.323964   7.358477   4.651973
    35  H   10.409645  11.315272  10.540585   9.509322   6.531489
    36  H   11.458700  12.564581  11.780582  10.584510   7.263320
    37  H   10.578276  11.888616  11.226622   9.920324   6.502835
    38  H    2.640090   4.271718   4.450848   3.484135   3.345977
    39  H    3.274432   4.543951   4.085274   2.845104   2.569215
    40  H    1.089798   2.441195   3.510123   3.370770   5.061836
    41  H    3.506807   2.440386   1.088252   2.195975   5.414554
    42  H    3.354246   3.588027   2.200533   1.092168   2.948259
    43  H    5.595445   6.833533   6.086577   4.714640   2.183689
    44  H    7.426019   8.336252   7.182366   5.885223   3.424313
    45  H    6.763201   7.096066   5.770247   4.914203   3.424960
    46  H    4.655057   5.213621   4.287094   3.387298   2.184072
    47  H    8.042137   8.141086   6.568539   5.844195   4.973755
    48  H   11.879486  12.152306  10.580931   9.730262   8.131368
    49  H   11.504007  12.115036  10.694047   9.602040   7.305014
    50  H    9.343677  10.155135   8.893538   7.670620   4.989766
                   21         22         23         24         25
    21  C    0.000000
    22  C    1.390260   0.000000
    23  C    2.428883   1.401815   0.000000
    24  C    2.792347   2.413611   1.401447   0.000000
    25  C    2.427983   2.791012   2.428093   1.390587   0.000000
    26  C    3.761147   2.482173   1.456841   2.483319   3.761659
    27  C    4.859549   3.688770   2.496759   3.000331   4.356063
    28  N    6.100158   4.844605   3.750459   4.316377   5.686563
    29  C    6.441707   5.085882   4.207736   5.046309   6.410256
    30  C    5.737508   4.362256   3.760633   4.838388   6.109898
    31  C    4.365133   3.006464   2.496217   3.688567   4.863413
    32  H    3.937493   4.647160   4.540897   3.642487   2.671692
    33  H    4.945139   5.901346   6.100819   5.372113   4.297766
    34  H    5.269761   5.440515   5.043880   4.390545   4.173155
    35  H    6.725863   6.492674   6.039709   5.817489   6.076160
    36  H    7.006258   6.682176   6.614804   6.879494   7.199306
    37  H    5.962500   5.881195   6.346312   6.848200   6.926520
    38  H    3.946084   5.298356   6.047116   5.669879   4.433526
    39  H    2.746329   3.936663   4.767777   4.660302   3.712309
    40  H    5.989371   7.212495   7.645039   6.941869   5.656200
    41  H    6.261935   6.756835   6.519377   5.708187   5.101005
    42  H    3.628829   4.156988   4.134303   3.543964   2.896945
    43  H    1.102077   2.158132   3.422432   3.894354   3.432362
    44  H    2.155929   1.101523   2.170326   3.414354   3.892522
    45  H    3.893624   3.414242   2.169879   1.101288   2.156628
    46  H    3.432526   3.892364   3.420043   2.156096   1.101487
    47  H    4.946644   3.991706   2.736398   2.767653   4.016658
    48  H    7.535268   6.171675   5.311036   6.114272   7.487999
    49  H    6.427210   5.074638   4.664447   5.799943   7.018071
    50  H    4.036353   2.780150   2.736153   3.993681   4.956855
                   26         27         28         29         30
    26  C    0.000000
    27  C    1.415223   0.000000
    28  N    2.433730   1.344443   0.000000
    29  C    2.751877   2.301243   1.347812   0.000000
    30  C    2.412723   2.740953   2.424575   1.406533   0.000000
    31  C    1.403362   2.412184   2.816693   2.408594   1.394475
    32  H    5.770928   6.524306   7.756974   8.300495   7.805354
    33  H    7.374757   8.254808   9.487548   9.934033   9.297704
    34  H    5.803763   6.546344   7.517686   7.821340   7.273077
    35  H    6.291495   7.041593   7.662971   7.599891   6.940036
    36  H    6.738316   7.762207   8.267652   7.834197   6.828268
    37  H    6.746621   8.040202   8.727507   8.273679   7.041629
    38  H    7.475731   8.285688   9.608237  10.192444   9.636987
    39  H    6.105027   6.889319   8.166950   8.729499   8.212081
    40  H    9.033585   9.543197  10.861760  11.675561  11.360792
    41  H    7.450369   7.274964   8.370355   9.504201   9.730373
    42  H    5.257301   5.465881   6.715595   7.645136   7.588139
    43  H    4.639335   5.798027   6.982204   7.210514   6.389954
    44  H    2.704398   3.974145   4.927904   4.917245   4.016107
    45  H    2.706493   2.748094   3.952818   4.844108   4.896371
    46  H    4.638331   5.025055   6.321067   7.157830   6.981447
    47  H    2.193001   1.105346   2.079657   3.285035   3.845796
    48  H    3.855845   3.283105   2.081132   1.104494   2.189366
    49  H    3.417579   3.838130   3.406802   2.179492   1.097917
    50  H    2.176714   3.420341   3.917105   3.415538   2.171494
                   31         32         33         34         35
    31  C    0.000000
    32  H    6.547190   0.000000
    33  H    7.999170   1.840213   0.000000
    34  H    6.241238   2.495855   3.362119   0.000000
    35  H    6.241120   4.915405   5.587305   2.499213   0.000000
    36  H    6.209136   6.281134   6.662112   4.332469   2.466712
    37  H    6.163942   6.135406   6.194313   5.076196   4.335518
    38  H    8.278500   4.647797   4.580363   7.000424   9.144224
    39  H    6.906211   4.913595   5.418732   7.043181   8.970114
    40  H   10.065135   5.845114   5.790626   8.340915  10.721287
    41  H    8.773490   6.805932   7.887368   8.837284  10.973656
    42  H    6.475382   5.025109   6.231594   6.989981   8.972699
    43  H    5.039281   4.551832   5.202329   5.949747   7.344555
    44  H    2.754216   5.621828   6.751404   6.224308   6.970143
    45  H    3.970209   4.078537   5.901674   4.490597   5.795148
    46  H    5.800513   2.410553   4.057979   4.122116   6.264595
    47  H    3.424007   6.316428   8.101767   6.595617   7.403371
    48  H    3.419684   9.350448  10.990021   8.748931   8.337816
    49  H    2.173261   8.545186   9.934565   7.847841   7.224517
    50  H    1.100432   6.355049   7.622101   6.028404   5.954469
                   36         37         38         39         40
    36  H    0.000000
    37  H    2.505596   0.000000
    38  H    9.723778   8.447447   0.000000
    39  H    9.427155   8.168879   1.836283   0.000000
    40  H   11.699777  10.702874   2.514837   3.680358   0.000000
    41  H   12.296536  11.883670   5.505118   4.969959   4.555554
    42  H    9.981638   9.381864   3.946810   2.864345   4.351361
    43  H    7.344357   5.936762   3.663955   2.512012   5.956154
    44  H    6.795871   5.800513   5.969953   4.519057   8.009578
    45  H    7.132374   7.457745   6.554237   5.621423   7.570977
    46  H    7.687458   7.598193   4.552596   4.176061   5.334160
    47  H    8.392883   8.688951   7.981251   6.640343   8.976053
    48  H    8.510622   9.075674  11.285494   9.799864  12.740124
    49  H    6.770462   6.954976  10.368029   8.956818  12.215083
    50  H    5.580943   5.229469   7.974372   6.680578   9.957383
                   41         42         43         44         45
    41  H    0.000000
    42  H    2.647664   0.000000
    43  H    6.802210   4.217198   0.000000
    44  H    7.591965   5.004081   2.473530   0.000000
    45  H    5.854651   4.076929   4.995627   4.327274   0.000000
    46  H    4.738610   3.020002   4.352523   4.993856   2.471563
    47  H    6.368125   4.818239   5.947082   4.489249   2.311621
    48  H   10.398124   8.650714   8.281407   5.943200   5.836449
    49  H   10.765611   8.557339   6.961695   4.561439   5.910166
    50  H    9.167014   6.711371   4.539862   2.323274   4.484880
                   46         47         48         49         50
    46  H    0.000000
    47  H    4.511784   0.000000
    48  H    8.201755   4.156135   0.000000
    49  H    7.919928   4.942489   2.530400   0.000000
    50  H    5.956854   4.350824   4.344723   2.517843   0.000000
 Stoichiometry    C24H19N5OS
 Framework group  C1[X(C24H19N5OS)]
 Deg. of freedom   144
 Full point group                 C1      NOp   1
 Largest Abelian subgroup         C1      NOp   1
 Largest concise Abelian subgroup C1      NOp   1
                         Standard orientation:                         
 ---------------------------------------------------------------------
 Center     Atomic      Atomic             Coordinates (Angstroms)
 Number     Number       Type             X           Y           Z
 ---------------------------------------------------------------------
      1          8           0        3.030702   -2.739820    0.194341
      2          6           0        1.998145   -2.045750    0.178258
      3          6           0        0.760272   -2.550373    0.933714
      4          7           0       -0.406804   -2.738144    0.110040
      5          7           0       -0.403755   -3.078847   -1.210713
      6          7           0       -1.565702   -3.303636   -1.643230
      7          6           0       -2.505755   -3.145427   -0.579782
      8          6           0       -1.732965   -2.773952    0.588769
      9          6           0       -2.349015   -2.530987    1.819872
     10          6           0       -3.729675   -2.669236    1.868980
     11          6           0       -4.485633   -3.035773    0.739828
     12          6           0       -3.893887   -3.276361   -0.492981
     13          7           0        1.944272   -0.840256   -0.501811
     14          6           0        3.099311   -0.379653   -1.253185
     15          6           0        4.056363    0.473314   -0.496150
     16          6           0        5.359580    0.119957   -0.207079
     17         16           0        6.161988    1.338590    0.599742
     18          6           0        4.839755    2.362888    0.606003
     19          6           0        3.753118    1.789824   -0.014340
     20          6           0        0.835807    0.042097   -0.398972
     21          6           0        0.041448    0.311351   -1.533536
     22          6           0       -1.029523    1.193554   -1.446574
     23          6           0       -1.341188    1.830410   -0.237291
     24          6           0       -0.552276    1.564609    0.890105
     25          6           0        0.524229    0.687464    0.816051
     26          6           0       -2.462486    2.757020   -0.156857
     27          6           0       -2.374509    3.933397    0.624970
     28          7           0       -3.368091    4.832377    0.735228
     29          6           0       -4.506711    4.586826    0.057109
     30          6           0       -4.697684    3.448200   -0.746258
     31          6           0       -3.659406    2.523258   -0.851234
     32          1           0        0.497256   -1.816208    1.748168
     33          1           0        1.049191   -3.537498    1.403335
     34          1           0       -1.767743   -2.243859    2.705344
     35          1           0       -4.252300   -2.487973    2.821316
     36          1           0       -5.577070   -3.133976    0.843355
     37          1           0       -4.488377   -3.562419   -1.372316
     38          1           0        3.644753   -1.294312   -1.631611
     39          1           0        2.717957    0.207201   -2.139984
     40          1           0        5.820689   -0.835250   -0.457313
     41          1           0        4.865085    3.356297    1.049613
     42          1           0        2.770361    2.251049   -0.133890
     43          1           0        0.261713   -0.182483   -2.493841
     44          1           0       -1.637473    1.395054   -2.342759
     45          1           0       -0.786618    2.053682    1.848608
     46          1           0        1.136968    0.507655    1.713545
     47          1           0       -1.449908    4.166080    1.184221
     48          1           0       -5.302612    5.345076    0.164370
     49          1           0       -5.645560    3.294975   -1.278681
     50          1           0       -3.777078    1.617618   -1.465173
 ---------------------------------------------------------------------
 Rotational constants (GHZ):      0.1629946      0.1008527      0.0685107
 Leave Link  202 at Fri Aug 26 14:12:56 2022, MaxMem=  209715200 cpu:       0.0
 (Enter /opt/gaussian/l301.exe)
 Standard basis: 6-31G (6D, 7F)
 Ernie: Thresh=  0.10000D-02 Tol=  0.10000D-05 Strict=F.
 There are   321 symmetry adapted basis functions of A   symmetry.
 Integral buffers will be    131072 words long.
 Raffenetti 1 integral format.
 Two-electron integral symmetry is turned on.
   321 basis functions,   782 primitive gaussians,   321 cartesian basis functions
   111 alpha electrons      111 beta electrons
       nuclear repulsion energy      3004.7844337238 Hartrees.



 Warning!  S  atom   17 may be hypervalent but has no d functions.



 IExCor=    0 DFT=F Ex=HF Corr=None ExCW=0 ScaHFX=  1.000000
 ScaDFX=  1.000000  1.000000  1.000000  1.000000 ScalE2=  1.000000  1.000000
 IRadAn=      0 IRanWt=     -1 IRanGd=            0 ICorTp=0
 NAtoms=   50 NActive=   50 NUniq=   50 SFac= 1.00D+00 NAtFMM=   60 NAOKFM=F Big=F
 Leave Link  301 at Fri Aug 26 14:12:56 2022, MaxMem=  209715200 cpu:       0.2
 (Enter /opt/gaussian/l302.exe)
 NPDir=0 NMtPBC=     1 NCelOv=     1 NCel=       1 NClECP=     1 NCelD=      1
         NCelK=      1 NCelE2=     1 NClLst=     1 CellRange=     0.0.
 One-electron integrals computed using PRISM.
 NBasis=   321 RedAO= T  NBF=   321
 NBsUse=   321 1.00D-06 NBFU=   321
 Leave Link  302 at Fri Aug 26 14:12:56 2022, MaxMem=  209715200 cpu:       1.9
 (Enter /opt/gaussian/l303.exe)
 DipDrv:  MaxL=1.
 Leave Link  303 at Fri Aug 26 14:12:56 2022, MaxMem=  209715200 cpu:       0.4
 (Enter /opt/gaussian/l401.exe)
 Harris functional with IExCor=  205 diagonalized for initial guess.
 ExpMin= 1.17D-01 ExpMax= 2.19D+04 ExpMxC= 3.30D+03 IAcc=1 IRadAn=         1 AccDes= 0.00D+00
 HarFok:  IExCor=  205 AccDes= 0.00D+00 IRadAn=         1 IDoV= 1
 ScaDFX=  1.000000  1.000000  1.000000  1.000000
 FoFCou: FMM=F IPFlag=           0 FMFlag=      100000 FMFlg1=           0
         NFxFlg=           0 DoJE=T BraDBF=F KetDBF=T FulRan=T
         Omega=  0.000000  0.000000  1.000000  0.000000  0.000000 ICntrl=     500 IOpCl=  0
         NMat0=    1 NMatS0=    1 NMatT0=    0 NMatD0=    1 NMtDS0=    0 NMtDT0=    0
         I1Cent=           4 NGrid=           0.
 Petite list used in FoFCou.
 Harris En= -1664.98844438600    
 Initial guess orbital symmetries:
       Occupied  (A) (A) (A) (A) (A) (A) (A) (A) (A) (A) (A) (A)
                 (A) (A) (A) (A) (A) (A) (A) (A) (A) (A) (A) (A)
                 (A) (A) (A) (A) (A) (A) (A) (A) (A) (A) (A) (A)
                 (A) (A) (A) (A) (A) (A) (A) (A) (A) (A) (A) (A)
                 (A) (A) (A) (A) (A) (A) (A) (A) (A) (A) (A) (A)
                 (A) (A) (A) (A) (A) (A) (A) (A) (A) (A) (A) (A)
                 (A) (A) (A) (A) (A) (A) (A) (A) (A) (A) (A) (A)
                 (A) (A) (A) (A) (A) (A) (A) (A) (A) (A) (A) (A)
                 (A) (A) (A) (A) (A) (A) (A) (A) (A) (A) (A) (A)
                 (A) (A) (A)
       Virtual   (A) (A) (A) (A) (A) (A) (A) (A) (A) (A) (A) (A)
                 (A) (A) (A) (A) (A) (A) (A) (A) (A) (A) (A) (A)
                 (A) (A) (A) (A) (A) (A) (A) (A) (A) (A) (A) (A)
                 (A) (A) (A) (A) (A) (A) (A) (A) (A) (A) (A) (A)
                 (A) (A) (A) (A) (A) (A) (A) (A) (A) (A) (A) (A)
                 (A) (A) (A) (A) (A) (A) (A) (A) (A) (A) (A) (A)
                 (A) (A) (A) (A) (A) (A) (A) (A) (A) (A) (A) (A)
                 (A) (A) (A) (A) (A) (A) (A) (A) (A) (A) (A) (A)
                 (A) (A) (A) (A) (A) (A) (A) (A) (A) (A) (A) (A)
                 (A) (A) (A) (A) (A) (A) (A) (A) (A) (A) (A) (A)
                 (A) (A) (A) (A) (A) (A) (A) (A) (A) (A) (A) (A)
                 (A) (A) (A) (A) (A) (A) (A) (A) (A) (A) (A) (A)
                 (A) (A) (A) (A) (A) (A) (A) (A) (A) (A) (A) (A)
                 (A) (A) (A) (A) (A) (A) (A) (A) (A) (A) (A) (A)
                 (A) (A) (A) (A) (A) (A) (A) (A) (A) (A) (A) (A)
                 (A) (A) (A) (A) (A) (A) (A) (A) (A) (A) (A) (A)
                 (A) (A) (A) (A) (A) (A) (A) (A) (A) (A) (A) (A)
                 (A) (A) (A) (A) (A) (A)
 The electronic state of the initial guess is 1-A.
 Leave Link  401 at Fri Aug 26 14:12:56 2022, MaxMem=  209715200 cpu:       4.8
 (Enter /opt/gaussian/l502.exe)
 Closed shell SCF:
 Requested convergence on RMS density matrix=1.00D-08 within 128 cycles.
 Requested convergence on MAX density matrix=1.00D-06.
 Requested convergence on             energy=1.00D-06.
 No special actions if energy rises.
 Using DIIS extrapolation, IDIIS=  1040.
 Integral symmetry usage will be decided dynamically.
 IEnd=      332316 IEndB=      332316 NGot=   209715200 MDV=   209502887
 LenX=   209502887 LenY=   209399405
 Fock matrices will be formed incrementally for  20 cycles.
 Integral accuracy reduced to 1.0D-05 until final iterations.

 Cycle   1  Pass 0  IDiag  1:
 FoFCou: FMM=F IPFlag=           0 FMFlag=      100000 FMFlg1=           0
         NFxFlg=           0 DoJE=F BraDBF=F KetDBF=F FulRan=T
         Omega=  0.000000  0.000000  1.000000  0.000000  0.000000 ICntrl=       0 IOpCl=  0
         NMat0=    1 NMatS0=    1 NMatT0=    0 NMatD0=    1 NMtDS0=    0 NMtDT0=    0
         I1Cent=           0 NGrid=           0.
 Symmetry not used in FoFCou.
 E= -1662.91612264737    
 DIIS: error= 4.63D-02 at cycle   1 NSaved=   1.
 NSaved= 1 IEnMin= 1 EnMin= -1662.91612264737     IErMin= 1 ErrMin= 4.63D-02
 ErrMax= 4.63D-02 EMaxC= 1.00D-01 BMatC= 1.08D+00 BMatP= 1.08D+00
 IDIUse=3 WtCom= 5.37D-01 WtEn= 4.63D-01
 Coeff-Com:  0.100D+01
 Coeff-En:   0.100D+01
 Coeff:      0.100D+01
 Gap=     0.480 Goal=   None    Shift=    0.000
 GapD=    0.480 DampG=2.000 DampE=0.500 DampFc=1.0000 IDamp=-1.
 RMSDP=5.98D-03 MaxDP=1.65D-01              OVMax= 2.09D-01

 Cycle   2  Pass 0  IDiag  1:
 RMSU=  4.20D-03    CP:  9.71D-01
 E= -1663.63645670227     Delta-E=       -0.720334054897 Rises=F Damp=F
 DIIS: error= 2.49D-02 at cycle   2 NSaved=   2.
 NSaved= 2 IEnMin= 2 EnMin= -1663.63645670227     IErMin= 2 ErrMin= 2.49D-02
 ErrMax= 2.49D-02 EMaxC= 1.00D-01 BMatC= 2.14D-01 BMatP= 1.08D+00
 IDIUse=3 WtCom= 7.51D-01 WtEn= 2.49D-01
 Coeff-Com:  0.260D+00 0.740D+00
 Coeff-En:   0.000D+00 0.100D+01
 Coeff:      0.196D+00 0.804D+00
 Gap=     0.463 Goal=   None    Shift=    0.000
 RMSDP=2.86D-03 MaxDP=1.01D-01 DE=-7.20D-01 OVMax= 1.09D-01

 Cycle   3  Pass 0  IDiag  1:
 RMSU=  1.75D-03    CP:  9.71D-01  7.56D-01
 E= -1663.81303386964     Delta-E=       -0.176577167377 Rises=F Damp=F
 DIIS: error= 1.33D-02 at cycle   3 NSaved=   3.
 NSaved= 3 IEnMin= 3 EnMin= -1663.81303386964     IErMin= 3 ErrMin= 1.33D-02
 ErrMax= 1.33D-02 EMaxC= 1.00D-01 BMatC= 3.62D-02 BMatP= 2.14D-01
 IDIUse=3 WtCom= 8.67D-01 WtEn= 1.33D-01
 Coeff-Com:  0.638D-02 0.279D+00 0.715D+00
 Coeff-En:   0.000D+00 0.000D+00 0.100D+01
 Coeff:      0.553D-02 0.242D+00 0.753D+00
 Gap=     0.397 Goal=   None    Shift=    0.000
 RMSDP=9.56D-04 MaxDP=3.53D-02 DE=-1.77D-01 OVMax= 4.17D-02

 Cycle   4  Pass 0  IDiag  1:
 RMSU=  4.01D-04    CP:  9.71D-01  8.64D-01  8.26D-01
 E= -1663.84610712758     Delta-E=       -0.033073257936 Rises=F Damp=F
 DIIS: error= 3.69D-03 at cycle   4 NSaved=   4.
 NSaved= 4 IEnMin= 4 EnMin= -1663.84610712758     IErMin= 4 ErrMin= 3.69D-03
 ErrMax= 3.69D-03 EMaxC= 1.00D-01 BMatC= 3.88D-03 BMatP= 3.62D-02
 IDIUse=3 WtCom= 9.63D-01 WtEn= 3.69D-02
 Coeff-Com: -0.143D-01 0.310D-01 0.295D+00 0.688D+00
 Coeff-En:   0.000D+00 0.000D+00 0.000D+00 0.100D+01
 Coeff:     -0.138D-01 0.298D-01 0.284D+00 0.700D+00
 Gap=     0.391 Goal=   None    Shift=    0.000
 RMSDP=3.12D-04 MaxDP=1.30D-02 DE=-3.31D-02 OVMax= 1.16D-02

 Cycle   5  Pass 0  IDiag  1:
 RMSU=  1.43D-04    CP:  9.70D-01  8.54D-01  8.94D-01  7.27D-01
 E= -1663.84985181858     Delta-E=       -0.003744691000 Rises=F Damp=F
 DIIS: error= 1.18D-03 at cycle   5 NSaved=   5.
 NSaved= 5 IEnMin= 5 EnMin= -1663.84985181858     IErMin= 5 ErrMin= 1.18D-03
 ErrMax= 1.18D-03 EMaxC= 1.00D-01 BMatC= 1.64D-04 BMatP= 3.88D-03
 IDIUse=3 WtCom= 9.88D-01 WtEn= 1.18D-02
 Coeff-Com: -0.269D-02-0.153D-01 0.672D-02 0.138D+00 0.873D+00
 Coeff-En:   0.000D+00 0.000D+00 0.000D+00 0.000D+00 0.100D+01
 Coeff:     -0.266D-02-0.152D-01 0.664D-02 0.137D+00 0.875D+00
 Gap=     0.391 Goal=   None    Shift=    0.000
 RMSDP=9.74D-05 MaxDP=4.81D-03 DE=-3.74D-03 OVMax= 4.90D-03

 Cycle   6  Pass 0  IDiag  1:
 RMSU=  5.02D-05    CP:  9.70D-01  8.54D-01  9.13D-01  8.02D-01  1.08D+00
 E= -1663.85023351285     Delta-E=       -0.000381694275 Rises=F Damp=F
 DIIS: error= 4.82D-04 at cycle   6 NSaved=   6.
 NSaved= 6 IEnMin= 6 EnMin= -1663.85023351285     IErMin= 6 ErrMin= 4.82D-04
 ErrMax= 4.82D-04 EMaxC= 1.00D-01 BMatC= 3.77D-05 BMatP= 1.64D-04
 IDIUse=3 WtCom= 9.95D-01 WtEn= 4.82D-03
 Coeff-Com:  0.274D-02-0.104D-01-0.609D-01-0.147D+00 0.105D+00 0.111D+01
 Coeff-En:   0.000D+00 0.000D+00 0.000D+00 0.000D+00 0.000D+00 0.100D+01
 Coeff:      0.273D-02-0.104D-01-0.606D-01-0.146D+00 0.105D+00 0.111D+01
 Gap=     0.392 Goal=   None    Shift=    0.000
 RMSDP=6.90D-05 MaxDP=2.74D-03 DE=-3.82D-04 OVMax= 6.62D-03

 Cycle   7  Pass 0  IDiag  1:
 RMSU=  2.02D-05    CP:  9.70D-01  8.53D-01  9.25D-01  8.20D-01  1.32D+00
                    CP:  1.33D+00
 E= -1663.85036874743     Delta-E=       -0.000135234575 Rises=F Damp=F
 DIIS: error= 1.99D-04 at cycle   7 NSaved=   7.
 NSaved= 7 IEnMin= 7 EnMin= -1663.85036874743     IErMin= 7 ErrMin= 1.99D-04
 ErrMax= 1.99D-04 EMaxC= 1.00D-01 BMatC= 4.65D-06 BMatP= 3.77D-05
 IDIUse=3 WtCom= 9.98D-01 WtEn= 1.99D-03
 Coeff-Com:  0.367D-03 0.134D-02-0.320D-03-0.249D-01-0.977D-01 0.315D-01
 Coeff-Com:  0.109D+01
 Coeff-En:   0.000D+00 0.000D+00 0.000D+00 0.000D+00 0.000D+00 0.000D+00
 Coeff-En:   0.100D+01
 Coeff:      0.366D-03 0.134D-02-0.319D-03-0.249D-01-0.975D-01 0.315D-01
 Coeff:      0.109D+01
 Gap=     0.392 Goal=   None    Shift=    0.000
 RMSDP=2.38D-05 MaxDP=9.13D-04 DE=-1.35D-04 OVMax= 1.95D-03

 Cycle   8  Pass 0  IDiag  1:
 RMSU=  7.10D-06    CP:  9.70D-01  8.52D-01  9.26D-01  8.24D-01  1.38D+00
                    CP:  1.53D+00  1.34D+00
 E= -1663.85038627825     Delta-E=       -0.000017530820 Rises=F Damp=F
 DIIS: error= 8.09D-05 at cycle   8 NSaved=   8.
 NSaved= 8 IEnMin= 8 EnMin= -1663.85038627825     IErMin= 8 ErrMin= 8.09D-05
 ErrMax= 8.09D-05 EMaxC= 1.00D-01 BMatC= 8.80D-07 BMatP= 4.65D-06
 IDIUse=1 WtCom= 1.00D+00 WtEn= 0.00D+00
 Coeff-Com: -0.525D-03 0.248D-02 0.140D-01 0.256D-01-0.326D-01-0.242D+00
 Coeff-Com:  0.150D+00 0.108D+01
 Coeff:     -0.525D-03 0.248D-02 0.140D-01 0.256D-01-0.326D-01-0.242D+00
 Coeff:      0.150D+00 0.108D+01
 Gap=     0.392 Goal=   None    Shift=    0.000
 RMSDP=1.15D-05 MaxDP=4.74D-04 DE=-1.75D-05 OVMax= 9.09D-04

 Cycle   9  Pass 0  IDiag  1:
 RMSU=  2.82D-06    CP:  9.70D-01  8.52D-01  9.27D-01  8.22D-01  1.40D+00
                    CP:  1.59D+00  1.59D+00  1.23D+00
 E= -1663.85038945222     Delta-E=       -0.000003173966 Rises=F Damp=F
 DIIS: error= 3.28D-05 at cycle   9 NSaved=   9.
 NSaved= 9 IEnMin= 9 EnMin= -1663.85038945222     IErMin= 9 ErrMin= 3.28D-05
 ErrMax= 3.28D-05 EMaxC= 1.00D-01 BMatC= 9.34D-08 BMatP= 8.80D-07
 IDIUse=1 WtCom= 1.00D+00 WtEn= 0.00D+00
 Coeff-Com: -0.948D-04 0.234D-03 0.200D-02 0.483D-02 0.547D-02-0.369D-01
 Coeff-Com: -0.652D-01 0.143D+00 0.947D+00
 Coeff:     -0.948D-04 0.234D-03 0.200D-02 0.483D-02 0.547D-02-0.369D-01
 Coeff:     -0.652D-01 0.143D+00 0.947D+00
 Gap=     0.392 Goal=   None    Shift=    0.000
 RMSDP=2.45D-06 MaxDP=5.95D-05 DE=-3.17D-06 OVMax= 2.36D-04

 Initial convergence to 1.0D-05 achieved.  Increase integral accuracy.
 Cycle  10  Pass 1  IDiag  1:
 E= -1663.85040077330     Delta-E=       -0.000011321089 Rises=F Damp=F
 DIIS: error= 8.54D-05 at cycle   1 NSaved=   1.
 NSaved= 1 IEnMin= 1 EnMin= -1663.85040077330     IErMin= 1 ErrMin= 8.54D-05
 ErrMax= 8.54D-05 EMaxC= 1.00D-01 BMatC= 1.65D-06 BMatP= 1.65D-06
 IDIUse=1 WtCom= 1.00D+00 WtEn= 0.00D+00
 Coeff-Com:  0.100D+01
 Coeff:      0.100D+01
 Gap=     0.392 Goal=   None    Shift=    0.000
 RMSDP=2.45D-06 MaxDP=5.95D-05 DE=-1.13D-05 OVMax= 2.56D-04

 Cycle  11  Pass 1  IDiag  1:
 RMSU=  4.26D-05    CP:  1.00D+00
 E= -1663.85040241073     Delta-E=       -0.000001637423 Rises=F Damp=F
 DIIS: error= 1.25D-05 at cycle   2 NSaved=   2.
 NSaved= 2 IEnMin= 2 EnMin= -1663.85040241073     IErMin= 2 ErrMin= 1.25D-05
 ErrMax= 1.25D-05 EMaxC= 1.00D-01 BMatC= 1.61D-08 BMatP= 1.65D-06
 IDIUse=1 WtCom= 1.00D+00 WtEn= 0.00D+00
 Coeff-Com: -0.364D-01 0.104D+01
 Coeff:     -0.364D-01 0.104D+01
 Gap=     0.392 Goal=   None    Shift=    0.000
 RMSDP=3.36D-06 MaxDP=6.33D-05 DE=-1.64D-06 OVMax= 8.35D-05

 Cycle  12  Pass 1  IDiag  1:
 RMSU=  7.93D-07    CP:  1.00D+00  1.05D+00
 E= -1663.85040244806     Delta-E=       -0.000000037332 Rises=F Damp=F
 DIIS: error= 8.45D-06 at cycle   3 NSaved=   3.
 NSaved= 3 IEnMin= 3 EnMin= -1663.85040244806     IErMin= 3 ErrMin= 8.45D-06
 ErrMax= 8.45D-06 EMaxC= 1.00D-01 BMatC= 7.54D-09 BMatP= 1.61D-08
 IDIUse=1 WtCom= 1.00D+00 WtEn= 0.00D+00
 Coeff-Com: -0.192D-01 0.379D+00 0.640D+00
 Coeff:     -0.192D-01 0.379D+00 0.640D+00
 Gap=     0.392 Goal=   None    Shift=    0.000
 RMSDP=4.48D-07 MaxDP=1.02D-05 DE=-3.73D-08 OVMax= 3.58D-05

 Cycle  13  Pass 1  IDiag  1:
 RMSU=  3.07D-07    CP:  1.00D+00  1.05D+00  9.56D-01
 E= -1663.85040246136     Delta-E=       -0.000000013300 Rises=F Damp=F
 DIIS: error= 5.75D-06 at cycle   4 NSaved=   4.
 NSaved= 4 IEnMin= 4 EnMin= -1663.85040246136     IErMin= 4 ErrMin= 5.75D-06
 ErrMax= 5.75D-06 EMaxC= 1.00D-01 BMatC= 1.81D-09 BMatP= 7.54D-09
 IDIUse=1 WtCom= 1.00D+00 WtEn= 0.00D+00
 Coeff-Com:  0.204D-01-0.517D+00-0.235D+00 0.173D+01
 Coeff:      0.204D-01-0.517D+00-0.235D+00 0.173D+01
 Gap=     0.392 Goal=   None    Shift=    0.000
 RMSDP=5.70D-07 MaxDP=1.91D-05 DE=-1.33D-08 OVMax= 7.32D-05

 Cycle  14  Pass 1  IDiag  1:
 RMSU=  2.37D-07    CP:  1.00D+00  1.06D+00  1.26D+00  1.68D+00
 E= -1663.85040247311     Delta-E=       -0.000000011755 Rises=F Damp=F
 DIIS: error= 2.04D-06 at cycle   5 NSaved=   5.
 NSaved= 5 IEnMin= 5 EnMin= -1663.85040247311     IErMin= 5 ErrMin= 2.04D-06
 ErrMax= 2.04D-06 EMaxC= 1.00D-01 BMatC= 2.65D-10 BMatP= 1.81D-09
 IDIUse=1 WtCom= 1.00D+00 WtEn= 0.00D+00
 Coeff-Com:  0.746D-02-0.170D+00-0.164D+00 0.312D+00 0.101D+01
 Coeff:      0.746D-02-0.170D+00-0.164D+00 0.312D+00 0.101D+01
 Gap=     0.392 Goal=   None    Shift=    0.000
 RMSDP=2.15D-07 MaxDP=7.13D-06 DE=-1.18D-08 OVMax= 2.66D-05

 Cycle  15  Pass 1  IDiag  1:
 RMSU=  6.05D-08    CP:  1.00D+00  1.05D+00  1.33D+00  1.97D+00  1.38D+00
 E= -1663.85040247430     Delta-E=       -0.000000001189 Rises=F Damp=F
 DIIS: error= 7.20D-07 at cycle   6 NSaved=   6.
 NSaved= 6 IEnMin= 6 EnMin= -1663.85040247430     IErMin= 6 ErrMin= 7.20D-07
 ErrMax= 7.20D-07 EMaxC= 1.00D-01 BMatC= 4.76D-11 BMatP= 2.65D-10
 IDIUse=1 WtCom= 1.00D+00 WtEn= 0.00D+00
 Coeff-Com: -0.148D-02 0.437D-01-0.602D-02-0.217D+00 0.353D+00 0.828D+00
 Coeff:     -0.148D-02 0.437D-01-0.602D-02-0.217D+00 0.353D+00 0.828D+00
 Gap=     0.392 Goal=   None    Shift=    0.000
 RMSDP=5.28D-08 MaxDP=2.00D-06 DE=-1.19D-09 OVMax= 6.20D-06

 Cycle  16  Pass 1  IDiag  1:
 RMSU=  1.93D-08    CP:  1.00D+00  1.05D+00  1.34D+00  2.01D+00  1.49D+00
                    CP:  9.60D-01
 E= -1663.85040247442     Delta-E=       -0.000000000115 Rises=F Damp=F
 DIIS: error= 1.78D-07 at cycle   7 NSaved=   7.
 NSaved= 7 IEnMin= 7 EnMin= -1663.85040247442     IErMin= 7 ErrMin= 1.78D-07
 ErrMax= 1.78D-07 EMaxC= 1.00D-01 BMatC= 5.07D-12 BMatP= 4.76D-11
 IDIUse=1 WtCom= 1.00D+00 WtEn= 0.00D+00
 Coeff-Com: -0.947D-03 0.231D-01 0.149D-01-0.700D-01-0.333D-01 0.955D-01
 Coeff-Com:  0.971D+00
 Coeff:     -0.947D-03 0.231D-01 0.149D-01-0.700D-01-0.333D-01 0.955D-01
 Coeff:      0.971D+00
 Gap=     0.392 Goal=   None    Shift=    0.000
 RMSDP=1.95D-08 MaxDP=6.52D-07 DE=-1.15D-10 OVMax= 1.93D-06

 Cycle  17  Pass 1  IDiag  1:
 RMSU=  8.23D-09    CP:  1.00D+00  1.05D+00  1.34D+00  2.02D+00  1.52D+00
                    CP:  1.06D+00  1.26D+00
 E= -1663.85040247444     Delta-E=       -0.000000000025 Rises=F Damp=F
 DIIS: error= 1.53D-07 at cycle   8 NSaved=   8.
 NSaved= 8 IEnMin= 8 EnMin= -1663.85040247444     IErMin= 8 ErrMin= 1.53D-07
 ErrMax= 1.53D-07 EMaxC= 1.00D-01 BMatC= 1.20D-12 BMatP= 5.07D-12
 IDIUse=1 WtCom= 1.00D+00 WtEn= 0.00D+00
 Coeff-Com:  0.336D-03-0.106D-01 0.435D-02 0.569D-01-0.102D+00-0.261D+00
 Coeff-Com:  0.131D+00 0.118D+01
 Coeff:      0.336D-03-0.106D-01 0.435D-02 0.569D-01-0.102D+00-0.261D+00
 Coeff:      0.131D+00 0.118D+01
 Gap=     0.392 Goal=   None    Shift=    0.000
 RMSDP=1.14D-08 MaxDP=2.99D-07 DE=-2.55D-11 OVMax= 1.36D-06

 Cycle  18  Pass 1  IDiag  1:
 RMSU=  3.68D-09    CP:  1.00D+00  1.05D+00  1.34D+00  2.02D+00  1.53D+00
                    CP:  1.09D+00  1.59D+00  1.28D+00
 E= -1663.85040247446     Delta-E=       -0.000000000017 Rises=F Damp=F
 DIIS: error= 3.13D-08 at cycle   9 NSaved=   9.
 NSaved= 9 IEnMin= 9 EnMin= -1663.85040247446     IErMin= 9 ErrMin= 3.13D-08
 ErrMax= 3.13D-08 EMaxC= 1.00D-01 BMatC= 1.02D-13 BMatP= 1.20D-12
 IDIUse=1 WtCom= 1.00D+00 WtEn= 0.00D+00
 Coeff-Com:  0.132D-03-0.371D-02 0.111D-04 0.158D-01-0.177D-01-0.628D-01
 Coeff-Com: -0.453D-01 0.232D+00 0.882D+00
 Coeff:      0.132D-03-0.371D-02 0.111D-04 0.158D-01-0.177D-01-0.628D-01
 Coeff:     -0.453D-01 0.232D+00 0.882D+00
 Gap=     0.392 Goal=   None    Shift=    0.000
 RMSDP=2.83D-09 MaxDP=7.30D-08 DE=-1.73D-11 OVMax= 3.01D-07

 SCF Done:  E(RHF) =  -1663.85040247     A.U. after   18 cycles
             Convg  =    0.2832D-08             -V/T =  2.0000
 KE= 1.663843486484D+03 PE=-9.910244010274D+03 EE= 3.577765687591D+03
 Leave Link  502 at Fri Aug 26 14:14:24 2022, MaxMem=  209715200 cpu:     695.9
 (Enter /opt/gaussian/l601.exe)
 Copying SCF densities to generalized density rwf, IOpCl= 0 IROHF=0.

 **********************************************************************

            Population analysis using the SCF density.

 **********************************************************************

 Orbital symmetries:
       Occupied  (A) (A) (A) (A) (A) (A) (A) (A) (A) (A) (A) (A)
                 (A) (A) (A) (A) (A) (A) (A) (A) (A) (A) (A) (A)
                 (A) (A) (A) (A) (A) (A) (A) (A) (A) (A) (A) (A)
                 (A) (A) (A) (A) (A) (A) (A) (A) (A) (A) (A) (A)
                 (A) (A) (A) (A) (A) (A) (A) (A) (A) (A) (A) (A)
                 (A) (A) (A) (A) (A) (A) (A) (A) (A) (A) (A) (A)
                 (A) (A) (A) (A) (A) (A) (A) (A) (A) (A) (A) (A)
                 (A) (A) (A) (A) (A) (A) (A) (A) (A) (A) (A) (A)
                 (A) (A) (A) (A) (A) (A) (A) (A) (A) (A) (A) (A)
                 (A) (A) (A)
       Virtual   (A) (A) (A) (A) (A) (A) (A) (A) (A) (A) (A) (A)
                 (A) (A) (A) (A) (A) (A) (A) (A) (A) (A) (A) (A)
                 (A) (A) (A) (A) (A) (A) (A) (A) (A) (A) (A) (A)
                 (A) (A) (A) (A) (A) (A) (A) (A) (A) (A) (A) (A)
                 (A) (A) (A) (A) (A) (A) (A) (A) (A) (A) (A) (A)
                 (A) (A) (A) (A) (A) (A) (A) (A) (A) (A) (A) (A)
                 (A) (A) (A) (A) (A) (A) (A) (A) (A) (A) (A) (A)
[...]
             31         32         33         34         35         36
     1  O    0.000000   0.001477   0.008701   0.000000   0.000000   0.000000
     2  C    0.000000  -0.037839  -0.043120  -0.000001   0.000000   0.000000
     3  C    0.000000   0.396342   0.391773   0.000242   0.000002   0.000000
     4  N    0.000000  -0.040577  -0.042554  -0.002877  -0.000098  -0.000005
     5  N    0.000000   0.002416   0.000810   0.000016   0.000001   0.000002
     6  N    0.000000  -0.000254   0.000098  -0.000095  -0.000004  -0.000065
     7  C   -0.000006   0.000457  -0.000103   0.000890   0.000468   0.002786
     8  C    0.000026  -0.002299   0.000426  -0.032844   0.002714   0.000389
     9  C    0.000077  -0.002541   0.000198   0.372486  -0.022644   0.002569
    10  C    0.000035  -0.000018   0.000002  -0.015120   0.374088  -0.025836
    11  C   -0.000488   0.000001   0.000000   0.001910  -0.023881   0.374959
    12  C   -0.000196  -0.000005  -0.000002   0.000184   0.002314  -0.020232
    13  N    0.000000   0.002705   0.005597   0.000001   0.000000   0.000000
    14  C    0.000000  -0.000062  -0.000085   0.000000   0.000000   0.000000
    15  C    0.000000   0.000033   0.000006   0.000000   0.000000   0.000000
    16  C    0.000000  -0.000001   0.000000   0.000000   0.000000   0.000000
    17  S    0.000000  -0.000001   0.000000   0.000000   0.000000   0.000000
    18  C    0.000000   0.000000   0.000000   0.000000   0.000000   0.000000
    19  C    0.000000  -0.000001   0.000000   0.000000   0.000000   0.000000
    20  C   -0.000004  -0.000996   0.000266  -0.000012   0.000000   0.000000
    21  C    0.000251   0.000027   0.000009  -0.000039   0.000000   0.000000
    22  C   -0.003082  -0.000021  -0.000001  -0.000012   0.000001   0.000000
    23  C   -0.040318  -0.000013   0.000000   0.000027  -0.000001   0.000000
    24  C    0.001943   0.000172   0.000001   0.000258  -0.000004   0.000000
    25  C   -0.000102   0.001761   0.000046   0.000277  -0.000001   0.000000
    26  C    0.505270   0.000000   0.000000  -0.000002   0.000001   0.000000
    27  C   -0.056739   0.000000   0.000000   0.000000   0.000000   0.000000
    28  N   -0.034888   0.000000   0.000000   0.000000   0.000000   0.000000
    29  C   -0.076721   0.000000   0.000000   0.000000   0.000000   0.000000
    30  C    0.494100   0.000000   0.000000   0.000000   0.000000   0.000000
    31  C    4.992531   0.000000   0.000000   0.000000   0.000004  -0.000003
    32  H    0.000000   0.482508  -0.020331   0.001042   0.000000   0.000000
    33  H    0.000000  -0.020331   0.442486  -0.000016   0.000000   0.000000
    34  H    0.000000   0.001042  -0.000016   0.445092  -0.000042  -0.000097
    35  H    0.000004   0.000000   0.000000  -0.000042   0.456491  -0.000240
    36  H   -0.000003   0.000000   0.000000  -0.000097  -0.000240   0.458222
    37  H   -0.000001   0.000000   0.000000   0.000009  -0.000086  -0.000074
    38  H    0.000000  -0.000007   0.000002   0.000000   0.000000   0.000000
    39  H    0.000000  -0.000002   0.000001   0.000000   0.000000   0.000000
    40  H    0.000000  -0.000005   0.000000   0.000000   0.000000   0.000000
    41  H    0.000000   0.000000   0.000000   0.000000   0.000000   0.000000
    42  H    0.000000   0.000000   0.000000   0.000000   0.000000   0.000000
    43  H    0.000001   0.000000  -0.000001   0.000000   0.000000   0.000000
    44  H    0.001415   0.000000   0.000000   0.000000   0.000000   0.000000
    45  H    0.000170   0.000001   0.000000   0.000006   0.000000   0.000000
    46  H    0.000001   0.000200   0.000009   0.000003   0.000000   0.000000
    47  H    0.001995   0.000000   0.000000   0.000000   0.000000   0.000000
    48  H    0.002946   0.000000   0.000000   0.000000   0.000000   0.000000
    49  H   -0.021506   0.000000   0.000000   0.000000   0.000000   0.000000
    50  H    0.372937   0.000000   0.000000   0.000000  -0.000001   0.000017
             37         38         39         40         41         42
     1  O    0.000000   0.001746   0.000550   0.006003   0.000000   0.000000
     2  C    0.000000  -0.002600   0.006148  -0.000014   0.000000   0.000005
     3  C    0.000001   0.000381   0.000076   0.000062   0.000000   0.000000
     4  N   -0.000104  -0.000025  -0.000002   0.000000   0.000000   0.000000
     5  N   -0.000084   0.000007   0.000001   0.000000   0.000000   0.000000
     6  N    0.001148   0.000000   0.000000   0.000000   0.000000   0.000000
     7  C   -0.020065   0.000000   0.000000   0.000000   0.000000   0.000000
     8  C    0.003087   0.000000   0.000000   0.000000   0.000000   0.000000
     9  C    0.000022   0.000000   0.000000   0.000000   0.000000   0.000000
    10  C    0.002027   0.000000   0.000000   0.000000   0.000000   0.000000
    11  C   -0.020526   0.000000   0.000000   0.000000   0.000000   0.000000
    12  C    0.361826   0.000000   0.000000   0.000000   0.000000   0.000000
    13  N    0.000000  -0.040049  -0.051070  -0.000591   0.000001  -0.000289
    14  C    0.000000   0.416512   0.427031   0.000674  -0.000083  -0.001384
    15  C    0.000000  -0.047826  -0.063268  -0.012191   0.000274  -0.028984
    16  C    0.000000  -0.003306   0.002321   0.377262   0.002736   0.006357
    17  S    0.000000   0.000004  -0.000153  -0.012297  -0.017065   0.002529
    18  C    0.000000  -0.000185   0.000346   0.001628   0.382752  -0.023968
    19  C    0.000000   0.002415  -0.001967   0.001284  -0.010652   0.375380
    20  C    0.000000   0.003171  -0.004039   0.000008   0.000000   0.000557
    21  C    0.000003   0.000291   0.001037   0.000000   0.000000   0.000051
    22  C    0.000005  -0.000005  -0.000124   0.000000   0.000000  -0.000001
    23  C    0.000000   0.000000  -0.000004   0.000000   0.000000  -0.000001
    24  C    0.000000   0.000002   0.000007   0.000000   0.000000   0.000034
    25  C    0.000000  -0.000150   0.000160   0.000000  -0.000003   0.000515
    26  C    0.000000   0.000000   0.000000   0.000000   0.000000   0.000000
    27  C    0.000000   0.000000   0.000000   0.000000   0.000000   0.000000
    28  N    0.000000   0.000000   0.000000   0.000000   0.000000   0.000000
    29  C    0.000000   0.000000   0.000000   0.000000   0.000000   0.000000
    30  C    0.000000   0.000000   0.000000   0.000000   0.000000   0.000000
    31  C   -0.000001   0.000000   0.000000   0.000000   0.000000   0.000000
    32  H    0.000000  -0.000007  -0.000002  -0.000005   0.000000   0.000000
    33  H    0.000000   0.000002   0.000001   0.000000   0.000000   0.000000
    34  H    0.000009   0.000000   0.000000   0.000000   0.000000   0.000000
    35  H   -0.000086   0.000000   0.000000   0.000000   0.000000   0.000000
    36  H   -0.000074   0.000000   0.000000   0.000000   0.000000   0.000000
    37  H    0.429097   0.000000   0.000000   0.000000   0.000000   0.000000
    38  H    0.000000   0.451929  -0.022040   0.000394   0.000001   0.000008
    39  H    0.000000  -0.022040   0.512073  -0.000024  -0.000003   0.000467
    40  H    0.000000   0.000394  -0.000024   0.369274  -0.000012  -0.000067
    41  H    0.000000   0.000001  -0.000003  -0.000012   0.412829   0.000786
    42  H    0.000000   0.000008   0.000467  -0.000067   0.000786   0.450493
    43  H    0.000001   0.000001   0.000029   0.000000   0.000000   0.000001
    44  H    0.000001   0.000000   0.000002   0.000000   0.000000   0.000000
    45  H    0.000000   0.000000   0.000000   0.000000   0.000000   0.000001
    46  H    0.000000   0.000012   0.000001   0.000001   0.000000   0.000012
    47  H    0.000000   0.000000   0.000000   0.000000   0.000000   0.000000
    48  H    0.000000   0.000000   0.000000   0.000000   0.000000   0.000000
    49  H    0.000000   0.000000   0.000000   0.000000   0.000000   0.000000
    50  H    0.000006   0.000000   0.000000   0.000000   0.000000   0.000000
             43         44         45         46         47         48
     1  O   -0.000015   0.000000   0.000000  -0.000063   0.000000   0.000000
     2  C    0.000295   0.000000  -0.000001   0.000541   0.000000   0.000000
     3  C   -0.000140   0.000000  -0.000001  -0.000379   0.000000   0.000000
     4  N   -0.000968  -0.000001  -0.000001  -0.000009   0.000000   0.000000
     5  N    0.001993  -0.000005   0.000000   0.000001   0.000000   0.000000
     6  N    0.000945  -0.000005   0.000000   0.000000   0.000000   0.000000
     7  C   -0.000141   0.000031   0.000000  -0.000001   0.000000   0.000000
     8  C    0.000063   0.000022   0.000003  -0.000004   0.000000   0.000000
     9  C   -0.000001  -0.000002   0.000010  -0.000003   0.000000   0.000000
    10  C    0.000002  -0.000002  -0.000001   0.000000   0.000000   0.000000
    11  C    0.000000  -0.000007   0.000000   0.000000   0.000000   0.000000
    12  C   -0.000043   0.000013   0.000000   0.000000   0.000000   0.000000
    13  N   -0.002078  -0.000119  -0.000121  -0.001853   0.000000   0.000000
    14  C    0.000211   0.000001   0.000001  -0.000024   0.000000   0.000000
    15  C    0.000017   0.000000  -0.000002   0.000741   0.000000   0.000000
    16  C    0.000000   0.000000   0.000000   0.000113   0.000000   0.000000
    17  S    0.000000   0.000000   0.000000  -0.000024   0.000000   0.000000
    18  C    0.000000   0.000000   0.000000   0.000020   0.000000   0.000000
    19  C    0.000000   0.000000  -0.000004   0.000607   0.000000   0.000000
    20  C   -0.025593   0.001353   0.001100  -0.028100   0.000001   0.000000
    21  C    0.369953  -0.014032   0.000351   0.002427  -0.000016   0.000000
    22  C   -0.016561   0.369440   0.002132   0.000141   0.000199   0.000000
    23  C    0.001742  -0.030711  -0.028990   0.001672   0.007349   0.000009
    24  C    0.000080   0.002149   0.368436  -0.016315   0.001390   0.000000
    25  C    0.002540   0.000375  -0.014605   0.371932  -0.000050   0.000000
    26  C   -0.000124   0.001354   0.001339  -0.000131  -0.068345  -0.000828
    27  C    0.000001   0.000209   0.001717  -0.000001   0.406579   0.004148
    28  N    0.000000   0.000000  -0.000038   0.000000  -0.036044  -0.041672
    29  C    0.000000   0.000006   0.000003   0.000000   0.003650   0.401269
    30  C    0.000000   0.000011  -0.000012   0.000000  -0.000781  -0.052559
    31  C    0.000001   0.001415   0.000170   0.000001   0.001995   0.002946
    32  H    0.000000   0.000000   0.000001   0.000200   0.000000   0.000000
    33  H   -0.000001   0.000000   0.000000   0.000009   0.000000   0.000000
    34  H    0.000000   0.000000   0.000006   0.000003   0.000000   0.000000
    35  H    0.000000   0.000000   0.000000   0.000000   0.000000   0.000000
    36  H    0.000000   0.000000   0.000000   0.000000   0.000000   0.000000
    37  H    0.000001   0.000001   0.000000   0.000000   0.000000   0.000000
    38  H    0.000001   0.000000   0.000000   0.000012   0.000000   0.000000
    39  H    0.000029   0.000002   0.000000   0.000001   0.000000   0.000000
    40  H    0.000000   0.000000   0.000000   0.000001   0.000000   0.000000
    41  H    0.000000   0.000000   0.000000   0.000000   0.000000   0.000000
    42  H    0.000001   0.000000   0.000001   0.000012   0.000000   0.000000
    43  H    0.419626   0.000190   0.000008  -0.000103   0.000000   0.000000
    44  H    0.000190   0.443170  -0.000125   0.000008   0.000008   0.000000
    45  H    0.000008  -0.000125   0.443141   0.000242   0.000940   0.000000
    46  H   -0.000103   0.000008   0.000242   0.436405   0.000000   0.000000
    47  H    0.000000   0.000008   0.000940   0.000000   0.463695   0.000039
    48  H    0.000000   0.000000   0.000000   0.000000   0.000039   0.471632
    49  H    0.000000   0.000002   0.000000   0.000000   0.000012   0.001647
    50  H    0.000001   0.000577  -0.000001   0.000000  -0.000103  -0.000085
             49         50
     1  O    0.000000   0.000000
     2  C    0.000000   0.000000
     3  C    0.000000   0.000000
     4  N    0.000000   0.000001
     5  N    0.000000   0.000000
     6  N    0.000000  -0.000003
     7  C    0.000000  -0.000014
     8  C    0.000000  -0.000066
     9  C    0.000000  -0.000102
    10  C    0.000000   0.000216
    11  C   -0.000003   0.001623
    12  C    0.000000   0.000756
    13  N    0.000000   0.000000
    14  C    0.000000   0.000000
    15  C    0.000000   0.000000
    16  C    0.000000   0.000000
    17  S    0.000000   0.000000
    18  C    0.000000   0.000000
    19  C    0.000000   0.000000
    20  C    0.000000  -0.000005
    21  C    0.000000   0.000015
    22  C   -0.000002   0.001834
    23  C   -0.000091   0.000170
    24  C    0.000001   0.000117
    25  C    0.000000  -0.000006
    26  C    0.002254  -0.028840
    27  C    0.000220   0.001849
    28  N    0.003248  -0.000118
    29  C   -0.015459   0.001616
    30  C    0.365552  -0.019467
    31  C   -0.021506   0.372937
    32  H    0.000000   0.000000
    33  H    0.000000   0.000000
    34  H    0.000000   0.000000
    35  H    0.000000  -0.000001
    36  H    0.000000   0.000017
    37  H    0.000000   0.000006
    38  H    0.000000   0.000000
    39  H    0.000000   0.000000
    40  H    0.000000   0.000000
    41  H    0.000000   0.000000
    42  H    0.000000   0.000000
    43  H    0.000000   0.000001
    44  H    0.000002   0.000577
    45  H    0.000000  -0.000001
    46  H    0.000000   0.000000
    47  H    0.000012  -0.000103
    48  H    0.001647  -0.000085
    49  H    0.448653  -0.000554
    50  H   -0.000554   0.435500
 Mulliken atomic charges:
              1
     1  O   -0.611867
     2  C    0.805147
     3  C   -0.104257
     4  N   -0.881082
     5  N    0.101326
     6  N   -0.337807
     7  C   -0.014843
     8  C    0.451681
     9  C   -0.072014
    10  C   -0.205472
    11  C   -0.238240
    12  C   -0.083004
    13  N   -0.921066
    14  C   -0.105853
    15  C    0.063485
    16  C   -0.568876
    17  S    0.455979
    18  C   -0.565745
    19  C   -0.084842
    20  C    0.259898
    21  C   -0.168130
    22  C   -0.202232
    23  C   -0.010747
    24  C   -0.205562
    25  C   -0.179730
    26  C   -0.097290
    27  C    0.061215
    28  N   -0.532161
    29  C    0.059716
    30  C   -0.246923
    31  C   -0.139647
    32  H    0.215832
    33  H    0.255782
    34  H    0.228715
    35  H    0.210920
    36  H    0.207609
    37  H    0.243709
    38  H    0.239315
    39  H    0.192448
    40  H    0.268609
    41  H    0.228438
    42  H    0.217497
    43  H    0.248070
    44  H    0.224675
    45  H    0.224303
    46  H    0.231922
    47  H    0.219482
    48  H    0.213454
    49  H    0.216027
    50  H    0.232131
 Sum of Mulliken atomic charges =   0.00000
 Mulliken charges with hydrogens summed into heavy atoms:
              1
     1  O   -0.611867
     2  C    0.805147
     3  C    0.367357
     4  N   -0.881082
     5  N    0.101326
     6  N   -0.337807
     7  C   -0.014843
     8  C    0.451681
     9  C    0.156701
    10  C    0.005448
    11  C   -0.030631
    12  C    0.160706
    13  N   -0.921066
    14  C    0.325911
    15  C    0.063485
    16  C   -0.300267
    17  S    0.455979
    18  C   -0.337306
    19  C    0.132655
    20  C    0.259898
    21  C    0.079940
    22  C    0.022443
    23  C   -0.010747
    24  C    0.018741
    25  C    0.052192
    26  C   -0.097290
    27  C    0.280697
    28  N   -0.532161
    29  C    0.273170
    30  C   -0.030895
    31  C    0.092485
 Sum of Mulliken charges with hydrogens summed into heavy atoms =   0.00000
 Electronic spatial extent (au):  <R**2>=          14321.8364
 Charge=              0.0000 electrons
 Dipole moment (field-independent basis, Debye):
    X=             -5.3300    Y=              1.6028    Z=              1.9499  Tot=              5.8975
 Quadrupole moment (field-independent basis, Debye-Ang):
   XX=           -188.7580   YY=           -216.8768   ZZ=           -183.9233
   XY=             15.3280   XZ=             -0.8451   YZ=            -12.9657
 Traceless Quadrupole moment (field-independent basis, Debye-Ang):
   XX=              7.7614   YY=            -20.3575   ZZ=             12.5961
   XY=             15.3280   XZ=             -0.8451   YZ=            -12.9657
 Octapole moment (field-independent basis, Debye-Ang**2):
  XXX=           -265.4058  YYY=            -10.7250  ZZZ=             12.8610  XYY=             51.9550
  XXY=            -11.0568  XXZ=            -28.6679  XZZ=              3.3604  YZZ=             -4.8695
  YYZ=             30.2785  XYZ=              9.1830
 Hexadecapole moment (field-independent basis, Debye-Ang**3):
 XXXX=         -12125.9405 YYYY=          -7404.4753 ZZZZ=          -1063.7067 XXXY=           -162.3482
 XXXZ=             30.8469 YYYX=            458.1825 YYYZ=           -161.2203 ZZZX=            -41.5459
 ZZZY=            -37.0985 XXYY=          -3241.7957 XXZZ=          -2270.7181 YYZZ=          -1383.5315
 XXYZ=            -24.7071 YYXZ=             83.2605 ZZXY=            -19.4306
 N-N= 3.057377933378D+03 E-N=-1.001666171934D+04  KE= 1.665311509635D+03
 No NMR shielding tensors so no spin-rotation constants.
 Leave Link  601 at Fri Aug 26 14:42:12 2022, MaxMem=  209715200 cpu:       1.4
 (Enter /opt/gaussian/l9999.exe)
 1\1\GINC-LQCAPF-6\FOpt\RHF\6-31G\C24H19N5O1S1\LQCAPF-6\26-Aug-2022\0\\
 #p opt hf/6-31G\\Mol08.out\\0,1\O,15.2691429945,-8.2414572634,1.055261
 9704\C,16.4590507675,-8.3601442062,1.3380154893\C,17.412650863,-8.7438
 728785,0.215246431\N,18.2892649702,-9.8475462468,0.5242189261\N,17.792
 359724,-10.9732943472,1.103054202\N,18.7190004428,-11.833323738,1.2283
 796328\C,19.8901278445,-11.3058728601,0.7116578773\C,19.6149488675,-10
 .0230995553,0.253341601\C,20.6053391347,-9.2271555988,-0.331045064\C,2
 1.8611136865,-9.7778121564,-0.4239033358\C,22.1459441935,-11.081503809
 2,0.0422810242\C,21.1673254566,-11.8578526452,0.6129670763\N,16.929125
 3965,-8.1138561985,2.5869372295\C,15.9388779457,-7.7996220945,3.638856
 7699\C,15.6282995096,-6.3279894649,3.75049965\C,14.6971373102,-5.69979
 08702,3.0096649245\S,14.5942467882,-3.9563920591,3.3893878666\C,15.886
 6199323,-4.1636221234,4.6092216459\C,16.307199204,-5.4362733579,4.6698
 18806\C,18.315672815,-8.0122668137,2.9260216363\C,18.9367663532,-9.034
 133429,3.6330447251\C,20.2678520767,-8.9207676506,3.99317023\C,21.0097
 448922,-7.7878902672,3.6549123453\C,20.372752329,-6.7639902658,2.95822
 82068\C,19.0358458039,-6.8707861087,2.6031618789\C,22.4433584636,-7.68
 15203626,4.0251428496\C,22.959304291,-6.5135577434,4.5825340181\N,24.2
 368935402,-6.374814298,4.9235325001\C,25.0757698551,-7.3911552279,4.73
 36234483\C,24.6592884074,-8.5950927739,4.1894177827\C,23.3289372735,-8
 .7397325589,3.8298280902\H,18.026306043,-7.8939632397,-0.045681221\H,1
 6.7838508437,-8.9894260834,-0.6257641305\H,20.4056678569,-8.2372391519
 ,-0.6886348603\H,22.6524812438,-9.2038825908,-0.8654590514\H,23.142076
 241,-11.4638943308,-0.0621394537\H,21.3592989827,-12.8505756041,0.9672
 746802\H,15.0435096352,-8.3536553092,3.412542848\H,16.3387732949,-8.16
 75575629,4.572904297\H,14.0731841248,-6.1263690864,2.2571904147\H,16.2
 18902693,-3.326664575,5.1804529208\H,17.0740803733,-5.7673038514,5.340
 9981307\H,18.3800908455,-9.9158210173,3.8821530831\H,20.7311462872,-9.
 7135956996,4.547269895\H,20.9225024565,-5.8857656002,2.6804626835\H,18
 .5492957182,-6.0666182481,2.0856442343\H,22.3255015117,-5.6719402735,4
 .7751809008\H,26.0935644407,-7.2309554397,5.0234093504\H,25.3583567362
 ,-9.3941060197,4.0442488029\H,22.9844495393,-9.6526773428,3.3838660415
 \\Version=EM64L-G09RevC.01\State=1-A\HF=-1663.8991208\RMSD=5.987e-09\R
 MSF=4.642e-06\Dipole=2.2982926,0.0413069,-0.3156807\Quadrupole=-5.1622
 138,-4.4228534,9.5850672,-13.0463023,-11.069065,-6.0375284\PG=C01 [X(C
 24H19N5O1S1)]\\@


 SACRED COWS MAKE GREAT HAMBURGERS -- ROBERT REISNER
 Job cpu time:  0 days  3 hours 51 minutes 39.0 seconds.
 File lengths (MBytes):  RWF=     71 Int=      0 D2E=      0 Chk=     10 Scr=      1
 Normal termination of Gaussian 09 at Fri Aug 26 14:42:12 2022.
