 Entering Gaussian System, Link 0=g09
 Input=Mol01.gjf
 Output=Mol01.log
 Initial command:
 /opt/gaussian/l1.exe /home/scr/lqcapf-6/Gau-212125.inp -scrdir=/home/scr/lqcapf-6/
 Entering Link 1 = /opt/gaussian/l1.exe PID=    212128.
  
 Copyright (c) 1988,1990,1992,1993,1995,1998,2003,2009,2011,
            Gaussian, Inc.  All Rights Reserved.
  
 This is part of the Gaussian(R) 09 program.  It is based on
 the Gaussian(R) 03 system (copyright 2003, Gaussian, Inc.),
 the Gaussian(R) 98 system (copyright 1998, Gaussian, Inc.),
 the Gaussian(R) 94 system (copyright 1995, Gaussian, Inc.),
 the Gaussian 92(TM) system (copyright 1992, Gaussian, Inc.),
 the Gaussian 90(TM) system (copyright 1990, Gaussian, Inc.),
 the Gaussian 88(TM) system (copyright 1988, Gaussian, Inc.),
 the Gaussian 86(TM) system (copyright 1986, Carnegie Mellon
 University), and the Gaussian 82(TM) system (copyright 1983,
 Carnegie Mellon University). Gaussian is a federally registered
 trademark of Gaussian, Inc.
  
 This software contains proprietary and confidential information,
 including trade secrets, belonging to Gaussian, Inc.
  
 This software is provided under written license and may be
 used, copied, transmitted, or stored only in accord with that
 written license.
  
 The following legend is applicable only to US Government
 contracts under FAR:
  
                    RESTRICTED RIGHTS LEGEND
  
 Use, reproduction and disclosure by the US Government is
 subject to restrictions as set forth in subparagraphs (a)
 and (c) of the Commercial Computer Software - Restricted
 Rights clause in FAR 52.227-19.
  
 Gaussian, Inc.
 340 Quinnipiac St., Bldg. 40, Wallingford CT 06492
  
  
 ---------------------------------------------------------------
 Warning -- This program may not be used in any manner that
 competes with the business of Gaussian, Inc. or will provide
 assistance to any competitor of Gaussian, Inc.  The licensee
 of this program is prohibited from giving any competitor of
 Gaussian, Inc. access to this program.  By using this program,
 the user acknowledges that Gaussian, Inc. is engaged in the
 business of creating and licensing software in the field of
 computational chemistry and represents and warrants to the
 licensee that it is not a competitor of Gaussian, Inc. and that
 it will not use this program in any manner prohibited above.
 ---------------------------------------------------------------
  

 Cite this work as:
 Gaussian 09, Revision C.01,
 M. J. Frisch, G. W. Trucks, H. B. Schlegel, G. E. Scuseria, 
 M. A. Robb, J. R. Cheeseman, G. Scalmani, V. Barone, B. Mennucci, 
 G. A. Petersson, H. Nakatsuji, M. Caricato, X. Li, H. P. Hratchian, 
 A. F. Izmaylov, J. Bloino, G. Zheng, J. L. Sonnenberg, M. Hada, 
 M. Ehara, K. Toyota, R. Fukuda, J. Hasegawa, M. Ishida, T. Nakajima, 
 Y. Honda, O. Kitao, H. Nakai, T. Vreven, J. A. Montgomery, Jr., 
 J. E. Peralta, F. Ogliaro, M. Bearpark, J. J. Heyd, E. Brothers, 
 K. N. Kudin, V. N. Staroverov, T. Keith, R. Kobayashi, J. Normand, 
 K. Raghavachari, A. Rendell, J. C. Burant, S. S. Iyengar, J. Tomasi, 
 M. Cossi, N. Rega, J. M. Millam, M. Klene, J. E. Knox, J. B. Cross, 
 V. Bakken, C. Adamo, J. Jaramillo, R. Gomperts, R. E. Stratmann, 
 O. Yazyev, A. J. Austin, R. Cammi, C. Pomelli, J. W. Ochterski, 
 R. L. Martin, K. Morokuma, V. G. Zakrzewski, G. A. Voth, 
 P. Salvador, J. J. Dannenberg, S. Dapprich, A. D. Daniels, 
 O. Farkas, J. B. Foresman, J. V. Ortiz, J. Cioslowski, 
 and D. J. Fox, Gaussian, Inc., Wallingford CT, 2010.
 
 ******************************************
 Gaussian 09:  EM64L-G09RevC.01 23-Sep-2011
                26-Aug-2022 
 ******************************************
 %nprocshared=8
 Will use up to    8 processors via shared memory.
 %mem=1600MB
 ---------------
 #p opt hf/6-31G
 ---------------
 1/18=20,19=15,38=1/1,3;
 2/9=110,12=2,17=6,18=5,40=1/2;
 3/5=1,6=6,11=9,16=1,25=1,30=1,71=1/1,2,3;
 4//1;
 5/5=2,38=5/2;
 6/7=2,8=2,9=2,10=2,28=1/1;
 7//1,2,3,16;
 1/18=20,19=15/3(2);
 2/9=110/2;
 99//99;
 2/9=110/2;
 3/5=1,6=6,11=9,16=1,25=1,30=1,71=1/1,2,3;
 4/5=5,16=3/1;
 5/5=2,38=5/2;
 7//1,2,3,16;
 1/18=20,19=15/3(-5);
 2/9=110/2;
 6/7=2,8=2,9=2,10=2,19=2,28=1/1;
 99/9=1/99;
 Leave Link    1 at Fri Aug 26 12:16:47 2022, MaxMem=  209715200 cpu:       0.1
 (Enter /opt/gaussian/l101.exe)
 ---------
 Mol01.out
 ---------
 Charge =  0 Multiplicity = 1
 Symbolic Z-Matrix:
 O                     21.0704  -6.8411   -0.6537 
 C                     21.7682  -7.7914   -0.2601 
 C                     23.2029  -7.5607    0.2505 
 N                     23.6044  -6.1805    0.3365 
 N                     23.037   -5.2708    1.1972 
 N                     23.319   -4.0869    0.8911 
 C                     24.093   -4.0776   -0.3157 
 C                     24.6721  -3.0629   -1.0763 
 C                     25.3843  -3.4366   -2.2115 
 C                     25.5359  -4.7831   -2.5799 
 C                     24.976   -5.8198   -1.8399 
 C                     24.2499  -5.4648   -0.7028 
 N                     21.2726  -9.0951   -0.2579 
 C                     22.0838  -10.2472   0.0718 
 C                     22.0375  -11.3659  -0.9117 
 C                     21.9898  -12.7391  -0.4955 
 C                     22.0225  -13.5931  -1.5748 
 S                     22.0917  -12.7581  -3.0198 
 C                     22.0944  -11.2612  -2.2872 
 C                     19.8872  -9.3168   -0.5072 
 C                     19.1168  -10.124    0.3521 
 C                     17.757   -10.3103   0.136 
 C                     17.1056  -9.6788   -0.9431 
 C                     17.8859  -8.8909   -1.8232 
 C                     19.2445  -8.7157   -1.609 
 N                     15.7228  -9.7658   -1.1689 
 C                     14.7877  -10.4868  -0.4385 
 O                     15.0902  -11.2657   0.4822 
 C                     13.355   -10.228   -0.8034 
 C                     12.4707  -11.3824  -1.1855 
 C                     12.862   -10.3684  -2.2181 
 H                     23.2919  -8.0043    1.2849 
 H                     23.9242  -8.0701   -0.4505 
 H                     24.571   -2.0076   -0.7842 
 H                     25.8448  -2.657    -2.8384 
 H                     26.1217  -5.0264   -3.48 
 H                     25.0997  -6.8674   -2.1428 
 H                     23.1668  -9.9402    0.1647 
 H                     21.761   -10.6387   1.083 
 H                     21.931   -13.0443   0.5513 
 H                     22.0039  -14.6804  -1.524 
 H                     22.1217  -10.3286  -2.8485 
 H                     19.5788  -10.6199   1.2199 
 H                     17.1946  -10.9517   0.8352 
 H                     17.4237  -8.3895   -2.6878 
 H                     19.8142  -8.0639   -2.2907 
 H                     15.3715  -9.1881   -1.9007 
 H                     12.9351  -9.424    -0.1643 
 H                     12.9099  -12.3956  -1.2269 
 H                     11.4338  -11.394   -0.8047 
 H                     12.1036  -9.6514   -2.5821 
 H                     13.568   -10.6608  -3.0158 
 
 NAtoms=     52 NQM=        0 NQMF=       0 NMMI=     52 NMMIF=      0
                NMic=       0 NMicF=      0.
                    Isotopes and Nuclear Properties:
 (Nuclear quadrupole moments (NQMom) in fm**2, nuclear magnetic moments (NMagM)
  in nuclear magnetons)

  Atom         1           2           3           4           5           6           7           8           9          10
 IAtWgt=          16          12          12          14          14          14          12          12          12          12
 AtmWgt=  15.9949146  12.0000000  12.0000000  14.0030740  14.0030740  14.0030740  12.0000000  12.0000000  12.0000000  12.0000000
 NucSpn=           0           0           0           2           2           2           0           0           0           0
 AtZEff=   0.0000000   0.0000000   0.0000000   0.0000000   0.0000000   0.0000000   0.0000000   0.0000000   0.0000000   0.0000000
 NQMom=    0.0000000   0.0000000   0.0000000   2.0440000   2.0440000   2.0440000   0.0000000   0.0000000   0.0000000   0.0000000
 NMagM=    0.0000000   0.0000000   0.0000000   0.4037610   0.4037610   0.4037610   0.0000000   0.0000000   0.0000000   0.0000000

  Atom        11          12          13          14          15          16          17          18          19          20
 IAtWgt=          12          12          14          12          12          12          12          32          12          12
 AtmWgt=  12.0000000  12.0000000  14.0030740  12.0000000  12.0000000  12.0000000  12.0000000  31.9720718  12.0000000  12.0000000
 NucSpn=           0           0           2           0           0           0           0           0           0           0
 AtZEff=   0.0000000   0.0000000   0.0000000   0.0000000   0.0000000   0.0000000   0.0000000   0.0000000   0.0000000   0.0000000
 NQMom=    0.0000000   0.0000000   2.0440000   0.0000000   0.0000000   0.0000000   0.0000000   0.0000000   0.0000000   0.0000000
 NMagM=    0.0000000   0.0000000   0.4037610   0.0000000   0.0000000   0.0000000   0.0000000   0.0000000   0.0000000   0.0000000

  Atom        21          22          23          24          25          26          27          28          29          30
 IAtWgt=          12          12          12          12          12          14          12          16          12          12
 AtmWgt=  12.0000000  12.0000000  12.0000000  12.0000000  12.0000000  14.0030740  12.0000000  15.9949146  12.0000000  12.0000000
 NucSpn=           0           0           0           0           0           2           0           0           0           0
 AtZEff=   0.0000000   0.0000000   0.0000000   0.0000000   0.0000000   0.0000000   0.0000000   0.0000000   0.0000000   0.0000000
 NQMom=    0.0000000   0.0000000   0.0000000   0.0000000   0.0000000   2.0440000   0.0000000   0.0000000   0.0000000   0.0000000
 NMagM=    0.0000000   0.0000000   0.0000000   0.0000000   0.0000000   0.4037610   0.0000000   0.0000000   0.0000000   0.0000000

  Atom        31          32          33          34          35          36          37          38          39          40
 IAtWgt=          12           1           1           1           1           1           1           1           1           1
 AtmWgt=  12.0000000   1.0078250   1.0078250   1.0078250   1.0078250   1.0078250   1.0078250   1.0078250   1.0078250   1.0078250
 NucSpn=           0           1           1           1           1           1           1           1           1           1
 AtZEff=   0.0000000   0.0000000   0.0000000   0.0000000   0.0000000   0.0000000   0.0000000   0.0000000   0.0000000   0.0000000
 NQMom=    0.0000000   0.0000000   0.0000000   0.0000000   0.0000000   0.0000000   0.0000000   0.0000000   0.0000000   0.0000000
 NMagM=    0.0000000   2.7928460   2.7928460   2.7928460   2.7928460   2.7928460   2.7928460   2.7928460   2.7928460   2.7928460

  Atom        41          42          43          44          45          46          47          48          49          50
 IAtWgt=           1           1           1           1           1           1           1           1           1           1
 AtmWgt=   1.0078250   1.0078250   1.0078250   1.0078250   1.0078250   1.0078250   1.0078250   1.0078250   1.0078250   1.0078250
 NucSpn=           1           1           1           1           1           1           1           1           1           1
 AtZEff=   0.0000000   0.0000000   0.0000000   0.0000000   0.0000000   0.0000000   0.0000000   0.0000000   0.0000000   0.0000000
 NQMom=    0.0000000   0.0000000   0.0000000   0.0000000   0.0000000   0.0000000   0.0000000   0.0000000   0.0000000   0.0000000
 NMagM=    2.7928460   2.7928460   2.7928460   2.7928460   2.7928460   2.7928460   2.7928460   2.7928460   2.7928460   2.7928460

  Atom        51          52
 IAtWgt=           1           1
 AtmWgt=   1.0078250   1.0078250
 NucSpn=           1           1
 AtZEff=   0.0000000   0.0000000
 NQMom=    0.0000000   0.0000000
 NMagM=    2.7928460   2.7928460
 Leave Link  101 at Fri Aug 26 12:16:47 2022, MaxMem=  209715200 cpu:       0.7
 (Enter /opt/gaussian/l103.exe)

 GradGradGradGradGradGradGradGradGradGradGradGradGradGradGradGradGradGrad
 Berny optimization.
 Initialization pass.
                           ----------------------------
                           !    Initial Parameters    !
                           ! (Angstroms and Degrees)  !
 --------------------------                            --------------------------
 ! Name  Definition              Value          Derivative Info.                !
 --------------------------------------------------------------------------------
 ! R1    R(1,2)                  1.2429         estimate D2E/DX2                !
 ! R2    R(2,3)                  1.5402         estimate D2E/DX2                !
 ! R3    R(2,13)                 1.3947         estimate D2E/DX2                !
 ! R4    R(3,4)                  1.44           estimate D2E/DX2                !
 ! R5    R(3,32)                 1.129          estimate D2E/DX2                !
 ! R6    R(3,33)                 1.1275         estimate D2E/DX2                !
 ! R7    R(4,5)                  1.3749         estimate D2E/DX2                !
 ! R8    R(4,12)                 1.4174         estimate D2E/DX2                !
 ! R9    R(5,6)                  1.2549         estimate D2E/DX2                !
 ! R10   R(6,7)                  1.4337         estimate D2E/DX2                !
 ! R11   R(7,8)                  1.3941         estimate D2E/DX2                !
 ! R12   R(7,12)                 1.4487         estimate D2E/DX2                !
 ! R13   R(8,9)                  1.3912         estimate D2E/DX2                !
 ! R14   R(8,34)                 1.0996         estimate D2E/DX2                !
 ! R15   R(9,10)                 1.4042         estimate D2E/DX2                !
 ! R16   R(9,35)                 1.1013         estimate D2E/DX2                !
 ! R17   R(10,11)                1.3913         estimate D2E/DX2                !
 ! R18   R(10,36)                1.1012         estimate D2E/DX2                !
 ! R19   R(11,12)                1.3951         estimate D2E/DX2                !
 ! R20   R(11,37)                1.0975         estimate D2E/DX2                !
 ! R21   R(13,14)                1.4471         estimate D2E/DX2                !
 ! R22   R(13,20)                1.425          estimate D2E/DX2                !
 ! R23   R(14,15)                1.4903         estimate D2E/DX2                !
 ! R24   R(14,38)                1.1295         estimate D2E/DX2                !
 ! R25   R(14,39)                1.1314         estimate D2E/DX2                !
 ! R26   R(15,16)                1.4357         estimate D2E/DX2                !
 ! R27   R(15,19)                1.3807         estimate D2E/DX2                !
 ! R28   R(16,17)                1.3767         estimate D2E/DX2                !
 ! R29   R(16,40)                1.092          estimate D2E/DX2                !
 ! R30   R(17,18)                1.6703         estimate D2E/DX2                !
 ! R31   R(17,41)                1.0886         estimate D2E/DX2                !
 ! R32   R(18,19)                1.6666         estimate D2E/DX2                !
 ! R33   R(19,42)                1.0888         estimate D2E/DX2                !
 ! R34   R(20,21)                1.4084         estimate D2E/DX2                !
 ! R35   R(20,25)                1.4101         estimate D2E/DX2                !
 ! R36   R(21,22)                1.3894         estimate D2E/DX2                !
 ! R37   R(21,43)                1.1011         estimate D2E/DX2                !
 ! R38   R(22,23)                1.4098         estimate D2E/DX2                !
 ! R39   R(22,44)                1.103          estimate D2E/DX2                !
 ! R40   R(23,24)                1.4157         estimate D2E/DX2                !
 ! R41   R(23,26)                1.4038         estimate D2E/DX2                !
 ! R42   R(24,25)                1.3865         estimate D2E/DX2                !
 ! R43   R(24,45)                1.1012         estimate D2E/DX2                !
 ! R44   R(25,46)                1.1019         estimate D2E/DX2                !
 ! R45   R(26,27)                1.3884         estimate D2E/DX2                !
 ! R46   R(26,47)                0.9963         estimate D2E/DX2                !
 ! R47   R(27,28)                1.2433         estimate D2E/DX2                !
 ! R48   R(27,29)                1.5009         estimate D2E/DX2                !
 ! R49   R(29,30)                1.5035         estimate D2E/DX2                !
 ! R50   R(29,31)                1.5047         estimate D2E/DX2                !
 ! R51   R(29,48)                1.1096         estimate D2E/DX2                !
 ! R52   R(30,31)                1.4992         estimate D2E/DX2                !
 ! R53   R(30,49)                1.1051         estimate D2E/DX2                !
 ! R54   R(30,50)                1.1047         estimate D2E/DX2                !
 ! R55   R(31,51)                1.1053         estimate D2E/DX2                !
 ! R56   R(31,52)                1.1047         estimate D2E/DX2                !
 ! A1    A(1,2,3)              120.8909         estimate D2E/DX2                !
 ! A2    A(1,2,13)             121.042          estimate D2E/DX2                !
 ! A3    A(3,2,13)             118.0653         estimate D2E/DX2                !
 ! A4    A(2,3,4)              115.0294         estimate D2E/DX2                !
 ! A5    A(2,3,32)             108.5604         estimate D2E/DX2                !
 ! A6    A(2,3,33)             108.7921         estimate D2E/DX2                !
 ! A7    A(4,3,32)             107.4515         estimate D2E/DX2                !
 ! A8    A(4,3,33)             106.9663         estimate D2E/DX2                !
 ! A9    A(32,3,33)            109.9801         estimate D2E/DX2                !
 ! A10   A(3,4,5)              123.8146         estimate D2E/DX2                !
 ! A11   A(3,4,12)             124.5524         estimate D2E/DX2                !
 ! A12   A(5,4,12)             108.2322         estimate D2E/DX2                !
 ! A13   A(4,5,6)              112.2577         estimate D2E/DX2                !
 ! A14   A(5,6,7)              109.4356         estimate D2E/DX2                !
 ! A15   A(6,7,8)              133.489          estimate D2E/DX2                !
 ! A16   A(6,7,12)             106.0913         estimate D2E/DX2                !
 ! A17   A(8,7,12)             120.4097         estimate D2E/DX2                !
 ! A18   A(7,8,9)              117.5368         estimate D2E/DX2                !
 ! A19   A(7,8,34)             121.0238         estimate D2E/DX2                !
 ! A20   A(9,8,34)             121.4389         estimate D2E/DX2                !
 ! A21   A(8,9,10)             121.7971         estimate D2E/DX2                !
 ! A22   A(8,9,35)             119.2346         estimate D2E/DX2                !
 ! A23   A(10,9,35)            118.9681         estimate D2E/DX2                !
 ! A24   A(9,10,11)            122.1075         estimate D2E/DX2                !
 ! A25   A(9,10,36)            118.9314         estimate D2E/DX2                !
 ! A26   A(11,10,36)           118.9601         estimate D2E/DX2                !
 ! A27   A(10,11,12)           116.9589         estimate D2E/DX2                !
 ! A28   A(10,11,37)           121.2707         estimate D2E/DX2                !
 ! A29   A(12,11,37)           121.7701         estimate D2E/DX2                !
 ! A30   A(4,12,7)             103.7832         estimate D2E/DX2                !
 ! A31   A(4,12,11)            134.9256         estimate D2E/DX2                !
 ! A32   A(7,12,11)            121.1861         estimate D2E/DX2                !
 ! A33   A(2,13,14)            123.0489         estimate D2E/DX2                !
 ! A34   A(2,13,20)            119.3808         estimate D2E/DX2                !
 ! A35   A(14,13,20)           117.4509         estimate D2E/DX2                !
 ! A36   A(13,14,15)           115.4592         estimate D2E/DX2                !
 ! A37   A(13,14,38)           109.8671         estimate D2E/DX2                !
 ! A38   A(13,14,39)           108.6142         estimate D2E/DX2                !
 ! A39   A(15,14,38)           106.7444         estimate D2E/DX2                !
 ! A40   A(15,14,39)           108.737          estimate D2E/DX2                !
 ! A41   A(38,14,39)           107.1044         estimate D2E/DX2                !
 ! A42   A(14,15,16)           121.8512         estimate D2E/DX2                !
 ! A43   A(14,15,19)           126.8182         estimate D2E/DX2                !
 ! A44   A(16,15,19)           111.2672         estimate D2E/DX2                !
 ! A45   A(15,16,17)           111.4241         estimate D2E/DX2                !
 ! A46   A(15,16,40)           123.1633         estimate D2E/DX2                !
 ! A47   A(17,16,40)           125.4121         estimate D2E/DX2                !
 ! A48   A(16,17,18)           111.6601         estimate D2E/DX2                !
 ! A49   A(16,17,41)           125.6317         estimate D2E/DX2                !
 ! A50   A(18,17,41)           122.7079         estimate D2E/DX2                !
 ! A51   A(17,18,19)            93.9445         estimate D2E/DX2                !
 ! A52   A(15,19,18)           111.7013         estimate D2E/DX2                !
 ! A53   A(15,19,42)           125.4204         estimate D2E/DX2                !
 ! A54   A(18,19,42)           122.8711         estimate D2E/DX2                !
 ! A55   A(13,20,21)           120.9469         estimate D2E/DX2                !
 ! A56   A(13,20,25)           120.8971         estimate D2E/DX2                !
 ! A57   A(21,20,25)           118.1477         estimate D2E/DX2                !
 ! A58   A(20,21,22)           121.1522         estimate D2E/DX2                !
 ! A59   A(20,21,43)           120.6286         estimate D2E/DX2                !
 ! A60   A(22,21,43)           118.2179         estimate D2E/DX2                !
 ! A61   A(21,22,23)           120.743          estimate D2E/DX2                !
 ! A62   A(21,22,44)           118.581          estimate D2E/DX2                !
 ! A63   A(23,22,44)           120.6705         estimate D2E/DX2                !
 ! A64   A(22,23,24)           118.0643         estimate D2E/DX2                !
 ! A65   A(22,23,26)           123.4004         estimate D2E/DX2                !
 ! A66   A(24,23,26)           118.517          estimate D2E/DX2                !
 ! A67   A(23,24,25)           120.9552         estimate D2E/DX2                !
 ! A68   A(23,24,45)           120.6758         estimate D2E/DX2                !
 ! A69   A(25,24,45)           118.363          estimate D2E/DX2                !
 ! A70   A(20,25,24)           120.8949         estimate D2E/DX2                !
 ! A71   A(20,25,46)           119.995          estimate D2E/DX2                !
 ! A72   A(24,25,46)           119.0647         estimate D2E/DX2                !
 ! A73   A(23,26,27)           127.6604         estimate D2E/DX2                !
 ! A74   A(23,26,47)           115.4373         estimate D2E/DX2                !
 ! A75   A(27,26,47)           116.7449         estimate D2E/DX2                !
 ! A76   A(26,27,28)           123.4363         estimate D2E/DX2                !
 ! A77   A(26,27,29)           115.179          estimate D2E/DX2                !
 ! A78   A(28,27,29)           121.3516         estimate D2E/DX2                !
 ! A79   A(27,29,30)           119.3939         estimate D2E/DX2                !
 ! A80   A(27,29,31)           121.684          estimate D2E/DX2                !
 ! A81   A(27,29,48)           110.2513         estimate D2E/DX2                !
 ! A82   A(30,29,48)           118.6946         estimate D2E/DX2                !
 ! A83   A(31,29,48)           119.0223         estimate D2E/DX2                !
 ! A84   A(29,30,49)           118.6675         estimate D2E/DX2                !
 ! A85   A(29,30,50)           118.198          estimate D2E/DX2                !
 ! A86   A(31,30,49)           119.3797         estimate D2E/DX2                !
 ! A87   A(31,30,50)           119.3095         estimate D2E/DX2                !
 ! A88   A(49,30,50)           112.1073         estimate D2E/DX2                !
 ! A89   A(29,31,51)           118.2872         estimate D2E/DX2                !
 ! A90   A(29,31,52)           119.6191         estimate D2E/DX2                !
 ! A91   A(30,31,51)           119.1093         estimate D2E/DX2                !
 ! A92   A(30,31,52)           119.023          estimate D2E/DX2                !
 ! A93   A(51,31,52)           111.8645         estimate D2E/DX2                !
 ! D1    D(1,2,3,4)              5.0171         estimate D2E/DX2                !
 ! D2    D(1,2,3,32)           125.4096         estimate D2E/DX2                !
 ! D3    D(1,2,3,33)          -114.9215         estimate D2E/DX2                !
 ! D4    D(13,2,3,4)          -174.4972         estimate D2E/DX2                !
 ! D5    D(13,2,3,32)          -54.1047         estimate D2E/DX2                !
 ! D6    D(13,2,3,33)           65.5642         estimate D2E/DX2                !
 ! D7    D(1,2,13,14)          174.0789         estimate D2E/DX2                !
 ! D8    D(1,2,13,20)           -9.9983         estimate D2E/DX2                !
 ! D9    D(3,2,13,14)           -6.4076         estimate D2E/DX2                !
 ! D10   D(3,2,13,20)          169.5152         estimate D2E/DX2                !
 ! D11   D(2,3,4,5)             65.4131         estimate D2E/DX2                !
 ! D12   D(2,3,4,12)           -91.2904         estimate D2E/DX2                !
 ! D13   D(32,3,4,5)           -55.5866         estimate D2E/DX2                !
 ! D14   D(32,3,4,12)          147.7099         estimate D2E/DX2                !
 ! D15   D(33,3,4,5)          -173.646          estimate D2E/DX2                !
 ! D16   D(33,3,4,12)           29.6505         estimate D2E/DX2                !
 ! D17   D(3,4,5,6)           -164.6577         estimate D2E/DX2                !
 ! D18   D(12,4,5,6)            -4.7141         estimate D2E/DX2                !
 ! D19   D(3,4,12,7)           163.8739         estimate D2E/DX2                !
 ! D20   D(3,4,12,11)          -19.9952         estimate D2E/DX2                !
 ! D21   D(5,4,12,7)             4.1142         estimate D2E/DX2                !
 ! D22   D(5,4,12,11)         -179.7549         estimate D2E/DX2                !
 ! D23   D(4,5,6,7)              3.0978         estimate D2E/DX2                !
 ! D24   D(5,6,7,8)           -179.1372         estimate D2E/DX2                !
 ! D25   D(5,6,7,12)            -0.3264         estimate D2E/DX2                !
 ! D26   D(6,7,8,9)            179.2698         estimate D2E/DX2                !
 ! D27   D(6,7,8,34)            -0.482          estimate D2E/DX2                !
 ! D28   D(12,7,8,9)             0.5947         estimate D2E/DX2                !
 ! D29   D(12,7,8,34)         -179.1571         estimate D2E/DX2                !
 ! D30   D(6,7,12,4)            -2.3655         estimate D2E/DX2                !
 ! D31   D(6,7,12,11)         -179.1641         estimate D2E/DX2                !
 ! D32   D(8,7,12,4)           176.6342         estimate D2E/DX2                !
 ! D33   D(8,7,12,11)           -0.1644         estimate D2E/DX2                !
 ! D34   D(7,8,9,10)            -0.7689         estimate D2E/DX2                !
 ! D35   D(7,8,9,35)           179.3909         estimate D2E/DX2                !
 ! D36   D(34,8,9,10)          178.9818         estimate D2E/DX2                !
 ! D37   D(34,8,9,35)           -0.8584         estimate D2E/DX2                !
 ! D38   D(8,9,10,11)            0.5106         estimate D2E/DX2                !
 ! D39   D(8,9,10,36)         -179.1207         estimate D2E/DX2                !
 ! D40   D(35,9,10,11)        -179.6487         estimate D2E/DX2                !
 ! D41   D(35,9,10,36)           0.72           estimate D2E/DX2                !
 ! D42   D(9,10,11,12)          -0.0493         estimate D2E/DX2                !
 ! D43   D(9,10,11,37)         179.7453         estimate D2E/DX2                !
 ! D44   D(36,10,11,12)        179.5819         estimate D2E/DX2                !
 ! D45   D(36,10,11,37)         -0.6235         estimate D2E/DX2                !
 ! D46   D(10,11,12,4)        -175.7225         estimate D2E/DX2                !
 ! D47   D(10,11,12,7)          -0.1159         estimate D2E/DX2                !
 ! D48   D(37,11,12,4)           4.484          estimate D2E/DX2                !
 ! D49   D(37,11,12,7)        -179.9094         estimate D2E/DX2                !
 ! D50   D(2,13,14,15)        -129.0946         estimate D2E/DX2                !
 ! D51   D(2,13,14,38)          -8.343          estimate D2E/DX2                !
 ! D52   D(2,13,14,39)         108.5094         estimate D2E/DX2                !
 ! D53   D(20,13,14,15)         54.9088         estimate D2E/DX2                !
 ! D54   D(20,13,14,38)        175.6604         estimate D2E/DX2                !
 ! D55   D(20,13,14,39)        -67.4872         estimate D2E/DX2                !
 ! D56   D(2,13,20,21)        -129.8412         estimate D2E/DX2                !
 ! D57   D(2,13,20,25)          49.0896         estimate D2E/DX2                !
 ! D58   D(14,13,20,21)         46.308          estimate D2E/DX2                !
 ! D59   D(14,13,20,25)       -134.7612         estimate D2E/DX2                !
 ! D60   D(13,14,15,16)       -139.3729         estimate D2E/DX2                !
 ! D61   D(13,14,15,19)         43.7795         estimate D2E/DX2                !
 ! D62   D(38,14,15,16)         98.1954         estimate D2E/DX2                !
 ! D63   D(38,14,15,19)        -78.6522         estimate D2E/DX2                !
 ! D64   D(39,14,15,16)        -17.0424         estimate D2E/DX2                !
 ! D65   D(39,14,15,19)        166.11           estimate D2E/DX2                !
 ! D66   D(14,15,16,17)       -176.8758         estimate D2E/DX2                !
 ! D67   D(14,15,16,40)          3.3572         estimate D2E/DX2                !
 ! D68   D(19,15,16,17)          0.4165         estimate D2E/DX2                !
 ! D69   D(19,15,16,40)       -179.3505         estimate D2E/DX2                !
 ! D70   D(14,15,19,18)        177.0427         estimate D2E/DX2                !
 ! D71   D(14,15,19,42)         -3.9143         estimate D2E/DX2                !
 ! D72   D(16,15,19,18)         -0.0841         estimate D2E/DX2                !
 ! D73   D(16,15,19,42)        178.9589         estimate D2E/DX2                !
 ! D74   D(15,16,17,18)         -0.566          estimate D2E/DX2                !
 ! D75   D(15,16,17,41)        179.6005         estimate D2E/DX2                !
 ! D76   D(40,16,17,18)        179.1946         estimate D2E/DX2                !
 ! D77   D(40,16,17,41)         -0.6389         estimate D2E/DX2                !
 ! D78   D(16,17,18,19)          0.4514         estimate D2E/DX2                !
 ! D79   D(41,17,18,19)       -179.7094         estimate D2E/DX2                !
 ! D80   D(17,18,19,15)         -0.2056         estimate D2E/DX2                !
 ! D81   D(17,18,19,42)       -179.2771         estimate D2E/DX2                !
 ! D82   D(13,20,21,22)        178.0296         estimate D2E/DX2                !
 ! D83   D(13,20,21,43)         -1.5582         estimate D2E/DX2                !
 ! D84   D(25,20,21,22)         -0.9299         estimate D2E/DX2                !
 ! D85   D(25,20,21,43)        179.4823         estimate D2E/DX2                !
 ! D86   D(13,20,25,24)       -177.5639         estimate D2E/DX2                !
 ! D87   D(13,20,25,46)         -0.0395         estimate D2E/DX2                !
 ! D88   D(21,20,25,24)          1.3962         estimate D2E/DX2                !
 ! D89   D(21,20,25,46)        178.9205         estimate D2E/DX2                !
 ! D90   D(20,21,22,23)         -0.8856         estimate D2E/DX2                !
 ! D91   D(20,21,22,44)        179.9648         estimate D2E/DX2                !
 ! D92   D(43,21,22,23)        178.7119         estimate D2E/DX2                !
 ! D93   D(43,21,22,44)         -0.4378         estimate D2E/DX2                !
 ! D94   D(21,22,23,24)          2.1988         estimate D2E/DX2                !
 ! D95   D(21,22,23,26)       -176.2225         estimate D2E/DX2                !
 ! D96   D(44,22,23,24)       -178.6694         estimate D2E/DX2                !
 ! D97   D(44,22,23,26)          2.9093         estimate D2E/DX2                !
 ! D98   D(22,23,24,25)         -1.7355         estimate D2E/DX2                !
 ! D99   D(22,23,24,45)        179.1737         estimate D2E/DX2                !
 ! D100  D(26,23,24,25)        176.7646         estimate D2E/DX2                !
 ! D101  D(26,23,24,45)         -2.3262         estimate D2E/DX2                !
 ! D102  D(22,23,26,27)         -2.1926         estimate D2E/DX2                !
 ! D103  D(22,23,26,47)        173.06           estimate D2E/DX2                !
 ! D104  D(24,23,26,27)        179.3928         estimate D2E/DX2                !
 ! D105  D(24,23,26,47)         -5.3546         estimate D2E/DX2                !
 ! D106  D(23,24,25,20)         -0.0566         estimate D2E/DX2                !
 ! D107  D(23,24,25,46)       -177.6037         estimate D2E/DX2                !
 ! D108  D(45,24,25,20)        179.0547         estimate D2E/DX2                !
 ! D109  D(45,24,25,46)          1.5076         estimate D2E/DX2                !
 ! D110  D(23,26,27,28)         -6.3326         estimate D2E/DX2                !
 ! D111  D(23,26,27,29)        171.5992         estimate D2E/DX2                !
 ! D112  D(47,26,27,28)        178.4683         estimate D2E/DX2                !
 ! D113  D(47,26,27,29)         -3.5999         estimate D2E/DX2                !
 ! D114  D(26,27,29,30)        125.0054         estimate D2E/DX2                !
 ! D115  D(26,27,29,31)         54.3411         estimate D2E/DX2                !
 ! D116  D(26,27,29,48)        -92.3175         estimate D2E/DX2                !
 ! D117  D(28,27,29,30)        -57.0156         estimate D2E/DX2                !
 ! D118  D(28,27,29,31)       -127.68           estimate D2E/DX2                !
 ! D119  D(28,27,29,48)         85.6615         estimate D2E/DX2                !
 ! D120  D(27,29,30,49)         -2.3649         estimate D2E/DX2                !
 ! D121  D(27,29,30,50)        138.879          estimate D2E/DX2                !
 ! D122  D(48,29,30,49)       -141.9391         estimate D2E/DX2                !
 ! D123  D(48,29,30,50)         -0.6952         estimate D2E/DX2                !
 ! D124  D(27,29,31,51)       -142.9368         estimate D2E/DX2                !
 ! D125  D(27,29,31,52)         -0.5229         estimate D2E/DX2                !
 ! D126  D(48,29,31,51)          0.9275         estimate D2E/DX2                !
 ! D127  D(48,29,31,52)        143.3414         estimate D2E/DX2                !
 ! D128  D(49,30,31,51)        144.066          estimate D2E/DX2                !
 ! D129  D(49,30,31,52)          1.2784         estimate D2E/DX2                !
 ! D130  D(50,30,31,51)         -0.1629         estimate D2E/DX2                !
 ! D131  D(50,30,31,52)       -142.9506         estimate D2E/DX2                !
 --------------------------------------------------------------------------------
 Trust Radius=3.00D-01 FncErr=1.00D-07 GrdErr=1.00D-07
 Number of steps in this run=    290 maximum allowed number of steps=    312.
 GradGradGradGradGradGradGradGradGradGradGradGradGradGradGradGradGradGrad

 Leave Link  103 at Fri Aug 26 12:16:47 2022, MaxMem=  209715200 cpu:       0.1
 (Enter /opt/gaussian/l202.exe)
 Stoichiometry    C23H21N5O2S
 Framework group  C1[X(C23H21N5O2S)]
 Deg. of freedom   150
 Full point group                 C1      NOp   1
 Largest Abelian subgroup         C1      NOp   1
 Largest concise Abelian subgroup C1      NOp   1
                         Standard orientation:                         
 ---------------------------------------------------------------------
 Center     Atomic      Atomic             Coordinates (Angstroms)
 Number     Number       Type             X           Y           Z
 ---------------------------------------------------------------------
      1          8           0        1.584036   -1.328234   -0.001673
      2          6           0        1.679733   -0.235885   -0.586933
      3          6           0        3.026911    0.235799   -1.165661
      4          7           0        4.098578   -0.721504   -1.072652
      5          7           0        4.110683   -1.923678   -1.739685
      6          7           0        4.971344   -2.713281   -1.280740
      7          6           0        5.615277   -2.112137   -0.149587
      8          6           0        6.631907   -2.528156    0.708828
      9          6           0        7.021980   -1.651538    1.716272
     10          6           0        6.433365   -0.385267    1.864101
     11          6           0        5.421095    0.062655    1.021184
     12          6           0        5.009368   -0.805937    0.010110
     13          7           0        0.569950    0.593380   -0.748057
     14          6           0        0.654265    1.924419   -1.309579
     15          6           0        0.008997    3.000816   -0.505896
     16          6           0       -0.751250    4.052521   -1.119994
     17          6           0       -1.190958    4.965344   -0.187962
     18         16           0       -0.712230    4.548289    1.357005
     19          6           0        0.092248    3.175580    0.861118
     20          6           0       -0.726754    0.095816   -0.429275
     21          6           0       -1.794587    0.221745   -1.338869
     22          6           0       -3.050359   -0.297603   -1.049424
     23          6           0       -3.285369   -0.983548    0.159634
     24          6           0       -2.219645   -1.084660    1.086046
     25          6           0       -0.970788   -0.556348    0.796888
     26          7           0       -4.508311   -1.596233    0.475420
     27          6           0       -5.672269   -1.606697   -0.281435
     28          8           0       -5.813645   -0.953418   -1.329824
     29          6           0       -6.756818   -2.510822    0.227554
     30          6           0       -8.123266   -1.944698    0.497643
     31          6           0       -7.270427   -2.412428    1.638462
     32          1           0        2.883274    0.478089   -2.258981
     33          1           0        3.359406    1.157149   -0.607339
     34          1           0        7.108309   -3.511879    0.588282
     35          1           0        7.815650   -1.955833    2.416509
     36          1           0        6.788581    0.276567    2.669294
     37          1           0        4.967784    1.053597    1.151798
     38          1           0        1.737093    2.218941   -1.438061
     39          1           0        0.188326    1.911649   -2.340469
     40          1           0       -0.946979    4.099781   -2.193237
     41          1           0       -1.780785    5.855219   -0.400973
     42          1           0        0.600110    2.505743    1.553173
     43          1           0       -1.651771    0.731035   -2.304614
     44          1           0       -3.856383   -0.174278   -1.792178
     45          1           0       -2.359676   -1.599191    2.049485
     46          1           0       -0.152811   -0.687498    1.523407
     47          1           0       -4.511915   -2.138911    1.310985
     48          1           0       -6.678690   -3.510084   -0.248421
     49          1           0       -8.286746   -0.861604    0.351469
     50          1           0       -9.003786   -2.541890    0.200402
     51          1           0       -7.540450   -3.346618    2.163944
     52          1           0       -6.837635   -1.663996    2.326065
 ---------------------------------------------------------------------
 Rotational constants (GHZ):      0.1851624      0.0609001      0.0504106
 Leave Link  202 at Fri Aug 26 12:16:47 2022, MaxMem=  209715200 cpu:       0.0
 (Enter /opt/gaussian/l301.exe)
 Standard basis: 6-31G (6D, 7F)
 Ernie: Thresh=  0.10000D-02 Tol=  0.10000D-05 Strict=F.
 There are   325 symmetry adapted basis functions of A   symmetry.
 Integral buffers will be    131072 words long.
 Raffenetti 1 integral format.
 Two-electron integral symmetry is turned on.
   325 basis functions,   790 primitive gaussians,   325 cartesian basis functions
   113 alpha electrons      113 beta electrons
       nuclear repulsion energy      2927.7606328250 Hartrees.



 Warning!  S  atom   18 may be hypervalent but has no d functions.



 IExCor=    0 DFT=F Ex=HF Corr=None ExCW=0 ScaHFX=  1.000000
 ScaDFX=  1.000000  1.000000  1.000000  1.000000 ScalE2=  1.000000  1.000000
 IRadAn=      0 IRanWt=     -1 IRanGd=            0 ICorTp=0
 NAtoms=   52 NActive=   52 NUniq=   52 SFac= 1.00D+00 NAtFMM=   60 NAOKFM=F Big=F
 Leave Link  301 at Fri Aug 26 12:16:47 2022, MaxMem=  209715200 cpu:       0.3
 (Enter /opt/gaussian/l302.exe)
 NPDir=0 NMtPBC=     1 NCelOv=     1 NCel=       1 NClECP=     1 NCelD=      1
         NCelK=      1 NCelE2=     1 NClLst=     1 CellRange=     0.0.
 One-electron integrals computed using PRISM.
 NBasis=   325 RedAO= T  NBF=   325
 NBsUse=   325 1.00D-06 NBFU=   325
 Leave Link  302 at Fri Aug 26 12:16:47 2022, MaxMem=  209715200 cpu:       2.1
 (Enter /opt/gaussian/l303.exe)
 DipDrv:  MaxL=1.
 Leave Link  303 at Fri Aug 26 12:16:47 2022, MaxMem=  209715200 cpu:       0.5
 (Enter /opt/gaussian/l401.exe)
 Harris functional with IExCor=  205 diagonalized for initial guess.
 ExpMin= 1.17D-01 ExpMax= 2.19D+04 ExpMxC= 3.30D+03 IAcc=1 IRadAn=         1 AccDes= 0.00D+00
 HarFok:  IExCor=  205 AccDes= 0.00D+00 IRadAn=         1 IDoV= 1
 ScaDFX=  1.000000  1.000000  1.000000  1.000000
 FoFCou: FMM=F IPFlag=           0 FMFlag=      100000 FMFlg1=           0
         NFxFlg=           0 DoJE=T BraDBF=F KetDBF=T FulRan=T
         Omega=  0.000000  0.000000  1.000000  0.000000  0.000000 ICntrl=     500 IOpCl=  0
         NMat0=    1 NMatS0=    1 NMatT0=    0 NMatD0=    1 NMtDS0=    0 NMtDT0=    0
         I1Cent=           4 NGrid=           0.
 Petite list used in FoFCou.
 Harris En= -1703.18742889153    
 Initial guess orbital symmetries:
       Occupied  (A) (A) (A) (A) (A) (A) (A) (A) (A) (A) (A) (A)
                 (A) (A) (A) (A) (A) (A) (A) (A) (A) (A) (A) (A)
                 (A) (A) (A) (A) (A) (A) (A) (A) (A) (A) (A) (A)
                 (A) (A) (A) (A) (A) (A) (A) (A) (A) (A) (A) (A)
                 (A) (A) (A) (A) (A) (A) (A) (A) (A) (A) (A) (A)
                 (A) (A) (A) (A) (A) (A) (A) (A) (A) (A) (A) (A)
                 (A) (A) (A) (A) (A) (A) (A) (A) (A) (A) (A) (A)
                 (A) (A) (A) (A) (A) (A) (A) (A) (A) (A) (A) (A)
                 (A) (A) (A) (A) (A) (A) (A) (A) (A) (A) (A) (A)
                 (A) (A) (A) (A) (A)
       Virtual   (A) (A) (A) (A) (A) (A) (A) (A) (A) (A) (A) (A)
                 (A) (A) (A) (A) (A) (A) (A) (A) (A) (A) (A) (A)
                 (A) (A) (A) (A) (A) (A) (A) (A) (A) (A) (A) (A)
                 (A) (A) (A) (A) (A) (A) (A) (A) (A) (A) (A) (A)
                 (A) (A) (A) (A) (A) (A) (A) (A) (A) (A) (A) (A)
                 (A) (A) (A) (A) (A) (A) (A) (A) (A) (A) (A) (A)
                 (A) (A) (A) (A) (A) (A) (A) (A) (A) (A) (A) (A)
                 (A) (A) (A) (A) (A) (A) (A) (A) (A) (A) (A) (A)
                 (A) (A) (A) (A) (A) (A) (A) (A) (A) (A) (A) (A)
                 (A) (A) (A) (A) (A) (A) (A) (A) (A) (A) (A) (A)
                 (A) (A) (A) (A) (A) (A) (A) (A) (A) (A) (A) (A)
                 (A) (A) (A) (A) (A) (A) (A) (A) (A) (A) (A) (A)
                 (A) (A) (A) (A) (A) (A) (A) (A) (A) (A) (A) (A)
                 (A) (A) (A) (A) (A) (A) (A) (A) (A) (A) (A) (A)
                 (A) (A) (A) (A) (A) (A) (A) (A) (A) (A) (A) (A)
                 (A) (A) (A) (A) (A) (A) (A) (A) (A) (A) (A) (A)
                 (A) (A) (A) (A) (A) (A) (A) (A) (A) (A) (A) (A)
                 (A) (A) (A) (A) (A) (A) (A) (A)
 The electronic state of the initial guess is 1-A.
 Leave Link  401 at Fri Aug 26 12:16:48 2022, MaxMem=  209715200 cpu:       4.6
 (Enter /opt/gaussian/l502.exe)
 Closed shell SCF:
 Requested convergence on RMS density matrix=1.00D-08 within 128 cycles.
 Requested convergence on MAX density matrix=1.00D-06.
 Requested convergence on             energy=1.00D-06.
 No special actions if energy rises.
 Using DIIS extrapolation, IDIIS=  1040.
 Integral symmetry usage will be decided dynamically.
 IEnd=      340136 IEndB=      340136 NGot=   209715200 MDV=   209497655
 LenX=   209497655 LenY=   209391589
 Fock matrices will be formed incrementally for  20 cycles.
 Integral accuracy reduced to 1.0D-05 until final iterations.

 Cycle   1  Pass 0  IDiag  1:
 FoFCou: FMM=F IPFlag=           0 FMFlag=      100000 FMFlg1=           0
         NFxFlg=           0 DoJE=F BraDBF=F KetDBF=F FulRan=T
         Omega=  0.000000  0.000000  1.000000  0.000000  0.000000 ICntrl=       0 IOpCl=  0
         NMat0=    1 NMatS0=    1 NMatT0=    0 NMatD0=    1 NMtDS0=    0 NMtDT0=    0
         I1Cent=           0 NGrid=           0.
 Symmetry not used in FoFCou.
 E= -1700.93689199703    
 DIIS: error= 4.64D-02 at cycle   1 NSaved=   1.
 NSaved= 1 IEnMin= 1 EnMin= -1700.93689199703     IErMin= 1 ErrMin= 4.64D-02
 ErrMax= 4.64D-02 EMaxC= 1.00D-01 BMatC= 1.18D+00 BMatP= 1.18D+00
 IDIUse=3 WtCom= 5.36D-01 WtEn= 4.64D-01
 Coeff-Com:  0.100D+01
 Coeff-En:   0.100D+01
 Coeff:      0.100D+01
 Gap=     0.433 Goal=   None    Shift=    0.000
 GapD=    0.433 DampG=2.000 DampE=0.500 DampFc=1.0000 IDamp=-1.
 RMSDP=6.03D-03 MaxDP=1.60D-01              OVMax= 2.10D-01

 Cycle   2  Pass 0  IDiag  1:
 RMSU=  4.25D-03    CP:  9.78D-01
 E= -1701.70203009070     Delta-E=       -0.765138093666 Rises=F Damp=F
 DIIS: error= 2.29D-02 at cycle   2 NSaved=   2.
 NSaved= 2 IEnMin= 2 EnMin= -1701.70203009070     IErMin= 2 ErrMin= 2.29D-02
 ErrMax= 2.29D-02 EMaxC= 1.00D-01 BMatC= 2.53D-01 BMatP= 1.18D+00
 IDIUse=3 WtCom= 7.71D-01 WtEn= 2.29D-01
 Coeff-Com:  0.277D+00 0.723D+00
 Coeff-En:   0.000D+00 0.100D+01
 Coeff:      0.213D+00 0.787D+00
 Gap=     0.427 Goal=   None    Shift=    0.000
 RMSDP=2.88D-03 MaxDP=9.14D-02 DE=-7.65D-01 OVMax= 9.42D-02

 Cycle   3  Pass 0  IDiag  1:
 RMSU=  1.67D-03    CP:  9.77D-01  7.24D-01
 E= -1701.91480426976     Delta-E=       -0.212774179066 Rises=F Damp=F
 DIIS: error= 8.71D-03 at cycle   3 NSaved=   3.
 NSaved= 3 IEnMin= 3 EnMin= -1701.91480426976     IErMin= 3 ErrMin= 8.71D-03
 ErrMax= 8.71D-03 EMaxC= 1.00D-01 BMatC= 3.25D-02 BMatP= 2.53D-01
 IDIUse=3 WtCom= 9.13D-01 WtEn= 8.71D-02
 Coeff-Com:  0.435D-02 0.249D+00 0.746D+00
 Coeff-En:   0.000D+00 0.000D+00 0.100D+01
 Coeff:      0.397D-02 0.228D+00 0.768D+00
 Gap=     0.391 Goal=   None    Shift=    0.000
 RMSDP=8.04D-04 MaxDP=2.79D-02 DE=-2.13D-01 OVMax= 3.66D-02

 Cycle   4  Pass 0  IDiag  1:
 RMSU=  3.39D-04    CP:  9.78D-01  8.20D-01  8.78D-01
 E= -1701.94448162957     Delta-E=       -0.029677359808 Rises=F Damp=F
 DIIS: error= 2.74D-03 at cycle   4 NSaved=   4.
 NSaved= 4 IEnMin= 4 EnMin= -1701.94448162957     IErMin= 4 ErrMin= 2.74D-03
 ErrMax= 2.74D-03 EMaxC= 1.00D-01 BMatC= 2.76D-03 BMatP= 3.25D-02
 IDIUse=3 WtCom= 9.73D-01 WtEn= 2.74D-02
 Coeff-Com: -0.150D-01 0.241D-01 0.272D+00 0.718D+00
 Coeff-En:   0.000D+00 0.000D+00 0.000D+00 0.100D+01
 Coeff:     -0.146D-01 0.234D-01 0.265D+00 0.726D+00
 Gap=     0.384 Goal=   None    Shift=    0.000
 RMSDP=2.54D-04 MaxDP=8.66D-03 DE=-2.97D-02 OVMax= 9.47D-03

 Cycle   5  Pass 0  IDiag  1:
 RMSU=  1.30D-04    CP:  9.77D-01  8.13D-01  9.39D-01  8.19D-01
 E= -1701.94728783481     Delta-E=       -0.002806205240 Rises=F Damp=F
 DIIS: error= 8.91D-04 at cycle   5 NSaved=   5.
 NSaved= 5 IEnMin= 5 EnMin= -1701.94728783481     IErMin= 5 ErrMin= 8.91D-04
 ErrMax= 8.91D-04 EMaxC= 1.00D-01 BMatC= 1.34D-04 BMatP= 2.76D-03
 IDIUse=3 WtCom= 9.91D-01 WtEn= 8.91D-03
 Coeff-Com: -0.836D-03-0.177D-01-0.338D-01 0.369D-01 0.102D+01
 Coeff-En:   0.000D+00 0.000D+00 0.000D+00 0.000D+00 0.100D+01
 Coeff:     -0.829D-03-0.176D-01-0.335D-01 0.366D-01 0.102D+01
 Gap=     0.385 Goal=   None    Shift=    0.000
 RMSDP=1.05D-04 MaxDP=4.94D-03 DE=-2.81D-03 OVMax= 5.72D-03

 Cycle   6  Pass 0  IDiag  1:
 RMSU=  4.89D-05    CP:  9.77D-01  8.12D-01  9.64D-01  8.96D-01  1.20D+00
 E= -1701.94768923554     Delta-E=       -0.000401400731 Rises=F Damp=F
 DIIS: error= 4.42D-04 at cycle   6 NSaved=   6.
 NSaved= 6 IEnMin= 6 EnMin= -1701.94768923554     IErMin= 6 ErrMin= 4.42D-04
 ErrMax= 4.42D-04 EMaxC= 1.00D-01 BMatC= 3.73D-05 BMatP= 1.34D-04
 IDIUse=3 WtCom= 9.96D-01 WtEn= 4.42D-03
 Coeff-Com:  0.281D-02-0.970D-02-0.600D-01-0.154D+00 0.211D+00 0.101D+01
 Coeff-En:   0.000D+00 0.000D+00 0.000D+00 0.000D+00 0.000D+00 0.100D+01
 Coeff:      0.280D-02-0.966D-02-0.598D-01-0.153D+00 0.210D+00 0.101D+01
 Gap=     0.385 Goal=   None    Shift=    0.000
 RMSDP=6.43D-05 MaxDP=2.15D-03 DE=-4.01D-04 OVMax= 5.77D-03

 Cycle   7  Pass 0  IDiag  1:
 RMSU=  1.90D-05    CP:  9.77D-01  8.11D-01  9.75D-01  9.19D-01  1.47D+00
                    CP:  1.22D+00
 E= -1701.94780993277     Delta-E=       -0.000120697227 Rises=F Damp=F
 DIIS: error= 2.51D-04 at cycle   7 NSaved=   7.
 NSaved= 7 IEnMin= 7 EnMin= -1701.94780993277     IErMin= 7 ErrMin= 2.51D-04
 ErrMax= 2.51D-04 EMaxC= 1.00D-01 BMatC= 4.91D-06 BMatP= 3.73D-05
 IDIUse=3 WtCom= 9.97D-01 WtEn= 2.51D-03
 Coeff-Com:  0.369D-03 0.125D-02 0.824D-03-0.249D-01-0.105D+00 0.945D-01
 Coeff-Com:  0.103D+01
 Coeff-En:   0.000D+00 0.000D+00 0.000D+00 0.000D+00 0.000D+00 0.000D+00
 Coeff-En:   0.100D+01
 Coeff:      0.368D-03 0.124D-02 0.822D-03-0.248D-01-0.105D+00 0.943D-01
 Coeff:      0.103D+01
 Gap=     0.385 Goal=   None    Shift=    0.000
 RMSDP=2.26D-05 MaxDP=8.70D-04 DE=-1.21D-04 OVMax= 1.66D-03

 Cycle   8  Pass 0  IDiag  1:
 RMSU=  7.32D-06    CP:  9.77D-01  8.10D-01  9.77D-01  9.25D-01  1.53D+00
                    CP:  1.40D+00  1.28D+00
 E= -1701.94782704805     Delta-E=       -0.000017115283 Rises=F Damp=F
 DIIS: error= 7.57D-05 at cycle   8 NSaved=   8.
 NSaved= 8 IEnMin= 8 EnMin= -1701.94782704805     IErMin= 8 ErrMin= 7.57D-05
 ErrMax= 7.57D-05 EMaxC= 1.00D-01 BMatC= 1.08D-06 BMatP= 4.91D-06
 IDIUse=1 WtCom= 1.00D+00 WtEn= 0.00D+00
 Coeff-Com: -0.552D-03 0.252D-02 0.149D-01 0.272D-01-0.656D-01-0.219D+00
 Coeff-Com:  0.222D+00 0.102D+01
 Coeff:     -0.552D-03 0.252D-02 0.149D-01 0.272D-01-0.656D-01-0.219D+00
 Coeff:      0.222D+00 0.102D+01
 Gap=     0.385 Goal=   None    Shift=    0.000
 RMSDP=1.10D-05 MaxDP=4.34D-04 DE=-1.71D-05 OVMax= 8.20D-04

 Cycle   9  Pass 0  IDiag  1:
 RMSU=  3.01D-06    CP:  9.77D-01  8.09D-01  9.77D-01  9.24D-01  1.55D+00
                    CP:  1.47D+00  1.54D+00  1.16D+00
 E= -1701.94783063211     Delta-E=       -0.000003584057 Rises=F Damp=F
 DIIS: error= 2.36D-05 at cycle   9 NSaved=   9.
 NSaved= 9 IEnMin= 9 EnMin= -1701.94783063211     IErMin= 9 ErrMin= 2.36D-05
 ErrMax= 2.36D-05 EMaxC= 1.00D-01 BMatC= 1.25D-07 BMatP= 1.08D-06
 IDIUse=1 WtCom= 1.00D+00 WtEn= 0.00D+00
 Coeff-Com: -0.159D-03 0.458D-03 0.351D-02 0.800D-02-0.244D-02-0.622D-01
 Coeff-Com: -0.389D-01 0.215D+00 0.877D+00
 Coeff:     -0.159D-03 0.458D-03 0.351D-02 0.800D-02-0.244D-02-0.622D-01
 Coeff:     -0.389D-01 0.215D+00 0.877D+00
 Gap=     0.385 Goal=   None    Shift=    0.000
 RMSDP=2.45D-06 MaxDP=5.55D-05 DE=-3.58D-06 OVMax= 2.30D-04

 Initial convergence to 1.0D-05 achieved.  Increase integral accuracy.
 Cycle  10  Pass 1  IDiag  1:
 E= -1701.94783357495     Delta-E=       -0.000002942838 Rises=F Damp=F
 DIIS: error= 8.14D-05 at cycle   1 NSaved=   1.
 NSaved= 1 IEnMin= 1 EnMin= -1701.94783357495     IErMin= 1 ErrMin= 8.14D-05
 ErrMax= 8.14D-05 EMaxC= 1.00D-01 BMatC= 1.16D-06 BMatP= 1.16D-06
 IDIUse=1 WtCom= 1.00D+00 WtEn= 0.00D+00
 Coeff-Com:  0.100D+01
 Coeff:      0.100D+01
 Gap=     0.385 Goal=   None    Shift=    0.000
 RMSDP=2.45D-06 MaxDP=5.55D-05 DE=-2.94D-06 OVMax= 1.30D-04

 Cycle  11  Pass 1  IDiag  1:
 RMSU=  3.45D-05    CP:  1.00D+00
 E= -1701.94783478981     Delta-E=       -0.000001214864 Rises=F Damp=F
 DIIS: error= 9.49D-06 at cycle   2 NSaved=   2.
 NSaved= 2 IEnMin= 2 EnMin= -1701.94783478981     IErMin= 2 ErrMin= 9.49D-06
 ErrMax= 9.49D-06 EMaxC= 1.00D-01 BMatC= 1.53D-08 BMatP= 1.16D-06
 IDIUse=1 WtCom= 1.00D+00 WtEn= 0.00D+00
 Coeff-Com: -0.388D-01 0.104D+01
 Coeff:     -0.388D-01 0.104D+01
 Gap=     0.385 Goal=   None    Shift=    0.000
 RMSDP=2.81D-06 MaxDP=5.20D-05 DE=-1.21D-06 OVMax= 8.06D-05

 Cycle  12  Pass 1  IDiag  1:
 RMSU=  7.07D-07    CP:  1.00D+00  1.05D+00
 E= -1701.94783483053     Delta-E=       -0.000000040723 Rises=F Damp=F
 DIIS: error= 7.69D-06 at cycle   3 NSaved=   3.
 NSaved= 3 IEnMin= 3 EnMin= -1701.94783483053     IErMin= 3 ErrMin= 7.69D-06
 ErrMax= 7.69D-06 EMaxC= 1.00D-01 BMatC= 7.98D-09 BMatP= 1.53D-08
 IDIUse=1 WtCom= 1.00D+00 WtEn= 0.00D+00
 Coeff-Com: -0.226D-01 0.382D+00 0.640D+00
 Coeff:     -0.226D-01 0.382D+00 0.640D+00
 Gap=     0.385 Goal=   None    Shift=    0.000
 RMSDP=3.91D-07 MaxDP=1.06D-05 DE=-4.07D-08 OVMax= 3.14D-05

 Cycle  13  Pass 1  IDiag  1:
 RMSU=  2.69D-07    CP:  1.00D+00  1.06D+00  1.06D+00
 E= -1701.94783484389     Delta-E=       -0.000000013354 Rises=F Damp=F
 DIIS: error= 4.46D-06 at cycle   4 NSaved=   4.
 NSaved= 4 IEnMin= 4 EnMin= -1701.94783484389     IErMin= 4 ErrMin= 4.46D-06
 ErrMax= 4.46D-06 EMaxC= 1.00D-01 BMatC= 2.00D-09 BMatP= 7.98D-09
 IDIUse=1 WtCom= 1.00D+00 WtEn= 0.00D+00
 Coeff-Com:  0.256D-01-0.602D+00-0.324D+00 0.190D+01
 Coeff:      0.256D-01-0.602D+00-0.324D+00 0.190D+01
 Gap=     0.385 Goal=   None    Shift=    0.000
 RMSDP=6.56D-07 MaxDP=1.39D-05 DE=-1.34D-08 OVMax= 8.58D-05

 Cycle  14  Pass 1  IDiag  1:
 RMSU=  2.30D-07    CP:  1.00D+00  1.06D+00  1.49D+00  1.96D+00
 E= -1701.94783485782     Delta-E=       -0.000000013929 Rises=F Damp=F
 DIIS: error= 1.63D-06 at cycle   5 NSaved=   5.
 NSaved= 5 IEnMin= 5 EnMin= -1701.94783485782     IErMin= 5 ErrMin= 1.63D-06
 ErrMax= 1.63D-06 EMaxC= 1.00D-01 BMatC= 1.98D-10 BMatP= 2.00D-09
 IDIUse=1 WtCom= 1.00D+00 WtEn= 0.00D+00
 Coeff-Com:  0.693D-02-0.145D+00-0.153D+00 0.312D+00 0.979D+00
 Coeff:      0.693D-02-0.145D+00-0.153D+00 0.312D+00 0.979D+00
 Gap=     0.385 Goal=   None    Shift=    0.000
 RMSDP=1.73D-07 MaxDP=3.62D-06 DE=-1.39D-08 OVMax= 2.21D-05

 Cycle  15  Pass 1  IDiag  1:
 RMSU=  4.97D-08    CP:  1.00D+00  1.06D+00  1.55D+00  2.25D+00  1.29D+00
 E= -1701.94783485868     Delta-E=       -0.000000000862 Rises=F Damp=F
 DIIS: error= 3.83D-07 at cycle   6 NSaved=   6.
 NSaved= 6 IEnMin= 6 EnMin= -1701.94783485868     IErMin= 6 ErrMin= 3.83D-07
 ErrMax= 3.83D-07 EMaxC= 1.00D-01 BMatC= 3.42D-11 BMatP= 1.98D-10
 IDIUse=1 WtCom= 1.00D+00 WtEn= 0.00D+00
 Coeff-Com: -0.271D-02 0.685D-01 0.146D-01-0.238D+00 0.261D+00 0.897D+00
 Coeff:     -0.271D-02 0.685D-01 0.146D-01-0.238D+00 0.261D+00 0.897D+00
 Gap=     0.385 Goal=   None    Shift=    0.000
 RMSDP=4.96D-08 MaxDP=9.07D-07 DE=-8.62D-10 OVMax= 5.24D-06

 Cycle  16  Pass 1  IDiag  1:
 RMSU=  1.98D-08    CP:  1.00D+00  1.06D+00  1.55D+00  2.29D+00  1.40D+00
                    CP:  1.02D+00
 E= -1701.94783485877     Delta-E=       -0.000000000093 Rises=F Damp=F
 DIIS: error= 1.39D-07 at cycle   7 NSaved=   7.
 NSaved= 7 IEnMin= 7 EnMin= -1701.94783485877     IErMin= 7 ErrMin= 1.39D-07
 ErrMax= 1.39D-07 EMaxC= 1.00D-01 BMatC= 4.07D-12 BMatP= 3.42D-11
 IDIUse=1 WtCom= 1.00D+00 WtEn= 0.00D+00
 Coeff-Com: -0.829D-03 0.172D-01 0.155D-01-0.374D-01-0.112D+00-0.569D-01
 Coeff-Com:  0.117D+01
 Coeff:     -0.829D-03 0.172D-01 0.155D-01-0.374D-01-0.112D+00-0.569D-01
 Coeff:      0.117D+01
 Gap=     0.385 Goal=   None    Shift=    0.000
 RMSDP=2.09D-08 MaxDP=4.49D-07 DE=-9.28D-11 OVMax= 2.18D-06

 Cycle  17  Pass 1  IDiag  1:
 RMSU=  7.29D-09    CP:  1.00D+00  1.06D+00  1.55D+00  2.31D+00  1.42D+00
                    CP:  1.17D+00  1.36D+00
 E= -1701.94783485882     Delta-E=       -0.000000000052 Rises=F Damp=F
 DIIS: error= 9.21D-08 at cycle   8 NSaved=   8.
 NSaved= 8 IEnMin= 8 EnMin= -1701.94783485882     IErMin= 8 ErrMin= 9.21D-08
 ErrMax= 9.21D-08 EMaxC= 1.00D-01 BMatC= 1.13D-12 BMatP= 4.07D-12
 IDIUse=1 WtCom= 1.00D+00 WtEn= 0.00D+00
 Coeff-Com:  0.413D-03-0.115D-01 0.492D-03 0.483D-01-0.884D-01-0.248D+00
 Coeff-Com:  0.351D+00 0.947D+00
 Coeff:      0.413D-03-0.115D-01 0.492D-03 0.483D-01-0.884D-01-0.248D+00
 Coeff:      0.351D+00 0.947D+00
 Gap=     0.385 Goal=   None    Shift=    0.000
 RMSDP=8.38D-09 MaxDP=2.31D-07 DE=-5.18D-11 OVMax= 9.18D-07

 SCF Done:  E(RHF) =  -1701.94783486     A.U. after   17 cycles
             Convg  =    0.8377D-08             -V/T =  2.0001
 KE= 1.701844865781D+03 PE=-9.848805168550D+03 EE= 3.517251835085D+03
 Leave Link  502 at Fri Aug 26 12:18:00 2022, MaxMem=  209715200 cpu:     548.1
 (Enter /opt/gaussian/l601.exe)
 Copying SCF densities to generalized density rwf, IOpCl= 0 IROHF=0.

 **********************************************************************

            Population analysis using the SCF density.

 **********************************************************************

 Orbital symmetries:
       Occupied  (A) (A) (A) (A) (A) (A) (A) (A) (A) (A) (A) (A)
                 (A) (A) (A) (A) (A) (A) (A) (A) (A) (A) (A) (A)
                 (A) (A) (A) (A) (A) (A) (A) (A) (A) (A) (A) (A)
                 (A) (A) (A) (A) (A) (A) (A) (A) (A) (A) (A) (A)
                 (A) (A) (A) (A) (A) (A) (A) (A) (A) (A) (A) (A)
                 (A) (A) (A) (A) (A) (A) (A) (A) (A) (A) (A) (A)
                 (A) (A) (A) (A) (A) (A) (A) (A) (A) (A) (A) (A)
                 (A) (A) (A) (A) (A) (A) (A) (A) (A) (A) (A) (A)
                 (A) (A) (A) (A) (A) (A) (A) (A) (A) (A) (A) (A)
                 (A) (A) (A) (A) (A)
       Virtual   (A) (A) (A) (A) (A) (A) (A) (A) (A) (A) (A) (A)
                 (A) (A) (A) (A) (A) (A) (A) (A) (A) (A) (A) (A)
                 (A) (A) (A) (A) (A) (A) (A) (A) (A) (A) (A) (A)
                 (A) (A) (A) (A) (A) (A) (A) (A) (A) (A) (A) (A)
                 (A) (A) (A) (A) (A) (A) (A) (A) (A) (A) (A) (A)
                 (A) (A) (A) (A) (A) (A) (A) (A) (A) (A) (A) (A)
                 (A) (A) (A) (A) (A) (A) (A) (A) (A) (A) (A) (A)
                 (A) (A) (A) (A) (A) (A) (A) (A) (A) (A) (A) (A)
                 (A) (A) (A) (A) (A) (A) (A) (A) (A) (A) (A) (A)
                 (A) (A) (A) (A) (A) (A) (A) (A) (A) (A) (A) (A)
                 (A) (A) (A) (A) (A) (A) (A) (A) (A) (A) (A) (A)
                 (A) (A) (A) (A) (A) (A) (A) (A) (A) (A) (A) (A)
                 (A) (A) (A) (A) (A) (A) (A) (A) (A) (A) (A) (A)
                 (A) (A) (A) (A) (A) (A) (A) (A) (A) (A) (A) (A)
                 (A) (A) (A) (A) (A) (A) (A) (A) (A) (A) (A) (A)
                 (A) (A) (A) (A) (A) (A) (A) (A) (A) (A) (A) (A)
                 (A) (A) (A) (A) (A) (A) (A) (A) (A) (A) (A) (A)
                 (A) (A) (A) (A) (A) (A) (A) (A)
 The electronic state is 1-A.
 Alpha  occ. eigenvalues --  -91.98505 -20.54839 -20.54195 -15.67248 -15.65811
 Alpha  occ. eigenvalues --  -15.62368 -15.61887 -15.61223 -11.39307 -11.38379
 Alpha  occ. eigenvalues --  -11.33155 -11.31047 -11.30940 -11.29911 -11.28523
 Alpha  occ. eigenvalues --  -11.28403 -11.27892 -11.27611 -11.26766 -11.26688
 Alpha  occ. eigenvalues --  -11.26626 -11.26547 -11.26518 -11.25893 -11.25729
 Alpha  occ. eigenvalues --  -11.25371 -11.25368 -11.24842 -11.24639 -11.24518
 Alpha  occ. eigenvalues --  -11.23429  -9.00895  -6.69051  -6.68880  -6.68597
 Alpha  occ. eigenvalues --   -1.46464  -1.40542  -1.39639  -1.27960  -1.26115
 Alpha  occ. eigenvalues --   -1.24591  -1.21481  -1.17586  -1.17305  -1.14088
 Alpha  occ. eigenvalues --   -1.05746  -1.05296  -1.05009  -1.02906  -1.02128
 Alpha  occ. eigenvalues --   -1.00574  -0.99881  -0.93941  -0.91628  -0.88780
 Alpha  occ. eigenvalues --   -0.86022  -0.84891  -0.84629  -0.83720  -0.80963
 Alpha  occ. eigenvalues --   -0.78601  -0.78208  -0.76424  -0.75451  -0.73396
 Alpha  occ. eigenvalues --   -0.72258  -0.72005  -0.71657  -0.70618  -0.69600
 Alpha  occ. eigenvalues --   -0.67436  -0.67035  -0.65755  -0.65163  -0.63837
 Alpha  occ. eigenvalues --   -0.63437  -0.62729  -0.61818  -0.61508  -0.60840
 Alpha  occ. eigenvalues --   -0.59317  -0.58800  -0.58669  -0.58389  -0.57781
 Alpha  occ. eigenvalues --   -0.55770  -0.55429  -0.55239  -0.54361  -0.53876
 Alpha  occ. eigenvalues --   -0.53560  -0.52946  -0.52711  -0.52052  -0.50989
 Alpha  occ. eigenvalues --   -0.50452  -0.49833  -0.49625  -0.48270  -0.45997
 Alpha  occ. eigenvalues --   -0.45258  -0.44528  -0.43763  -0.42481  -0.41538
 Alpha  occ. eigenvalues --   -0.41420  -0.39422  -0.35539  -0.33993  -0.33866
 Alpha  occ. eigenvalues --   -0.33605  -0.32826  -0.29261
 Alpha virt. eigenvalues --    0.09258   0.11223   0.12048   0.14112   0.14666
 Alpha virt. eigenvalues --    0.15689   0.18358   0.19062   0.19563   0.20045
 Alpha virt. eigenvalues --    0.21062   0.21873   0.22609   0.23581   0.23664
 Alpha virt. eigenvalues --    0.24320   0.24959   0.25614   0.25857   0.26333
 Alpha virt. eigenvalues --    0.27567   0.28651   0.29041   0.29189   0.29772
 Alpha virt. eigenvalues --    0.30675   0.31108   0.31255   0.32253   0.32927
 Alpha virt. eigenvalues --    0.33801   0.35002   0.35379   0.35943   0.36424
 Alpha virt. eigenvalues --    0.37501   0.38384   0.38891   0.39473   0.40300
 Alpha virt. eigenvalues --    0.40793   0.41730   0.42834   0.43107   0.43754
 Alpha virt. eigenvalues --    0.44035   0.45068   0.46528   0.47406   0.47878
 Alpha virt. eigenvalues --    0.48748   0.49506   0.50856   0.51310   0.51858
 Alpha virt. eigenvalues --    0.52908   0.53006   0.53683   0.55121   0.56056
 Alpha virt. eigenvalues --    0.57375   0.58064   0.59052   0.61471   0.63315
 Alpha virt. eigenvalues --    0.64502   0.67006   0.69954   0.70620   0.71805
 Alpha virt. eigenvalues --    0.72685   0.73021   0.74149   0.74528   0.74963
 Alpha virt. eigenvalues --    0.75146   0.75997   0.77058   0.77496   0.78103
 Alpha virt. eigenvalues --    0.78401   0.79329   0.79341   0.80056   0.80868
 Alpha virt. eigenvalues --    0.81323   0.81831   0.82205   0.82759   0.82932
 Alpha virt. eigenvalues --    0.83550   0.83906   0.84381   0.85058   0.85358
 Alpha virt. eigenvalues --    0.85699   0.85774   0.86241   0.87100   0.87619
 Alpha virt. eigenvalues --    0.87842   0.88380   0.89541   0.90172   0.90349
 Alpha virt. eigenvalues --    0.90525   0.90887   0.91585   0.92068   0.92093
 Alpha virt. eigenvalues --    0.93125   0.93504   0.94275   0.94629   0.95755
 Alpha virt. eigenvalues --    0.96375   0.96790   0.99036   0.99645   1.00010
 Alpha virt. eigenvalues --    1.01003   1.02382   1.02660   1.05465   1.05727
 Alpha virt. eigenvalues --    1.05996   1.06848   1.09018   1.09156   1.09417
 Alpha virt. eigenvalues --    1.09653   1.10095   1.10762   1.11030   1.12096
 Alpha virt. eigenvalues --    1.12323   1.12513   1.12766   1.12913   1.13138
 Alpha virt. eigenvalues --    1.14042   1.14625   1.15340   1.16078   1.16947
 Alpha virt. eigenvalues --    1.17172   1.18029   1.18896   1.19454   1.20448
 Alpha virt. eigenvalues --    1.21816   1.21964   1.22222   1.22736   1.22934
 Alpha virt. eigenvalues --    1.23932   1.25019   1.25490   1.26225   1.26752
 Alpha virt. eigenvalues --    1.27349   1.28325   1.29294   1.29960   1.31077
 Alpha virt. eigenvalues --    1.31695   1.33037   1.33486   1.35930   1.36231
 Alpha virt. eigenvalues --    1.37114   1.38317   1.39676   1.40184   1.40548
 Alpha virt. eigenvalues --    1.42153   1.42548   1.44164   1.44682   1.45605
 Alpha virt. eigenvalues --    1.48795   1.49871   1.50100   1.53415   1.55371
 Alpha virt. eigenvalues --    1.56313   1.58135   1.58474   1.62345   1.62721
 Alpha virt. eigenvalues --    1.64954   1.65918   1.67230   1.69015   1.69676
 Alpha virt. eigenvalues --    1.72034   1.72857   1.74566   1.76088   1.83522
 Alpha virt. eigenvalues --    1.84677   1.87990   1.92641   1.94019   1.98493
 Alpha virt. eigenvalues --    2.01754   2.03296   2.08165   2.21535   2.22941
 Alpha virt. eigenvalues --    2.29939   2.35875
          Condensed to atoms (all electrons):
 Mulliken atomic charges:
              1
     1  O   -0.586488
     2  C    0.802959
     3  C   -0.139430
     4  N   -0.797176
     5  N    0.126896
     6  N   -0.314461
     7  C    0.034989
     8  C   -0.104411
     9  C   -0.234848
    10  C   -0.200273
    11  C   -0.119023
    12  C    0.387447
    13  N   -0.985045
    14  C   -0.110579
    15  C    0.060548
    16  C   -0.111377
    17  C   -0.598344
    18  S    0.574785
    19  C   -0.592295
    20  C    0.326358
    21  C   -0.189404
    22  C   -0.206648
    23  C    0.383584
    24  C   -0.260128
    25  C   -0.129359
    26  N   -1.030439
    27  C    0.793329
    28  O   -0.615648
    29  C   -0.290520
    30  C   -0.316788
    31  C   -0.354673
    32  H    0.242607
    33  H    0.218640
    34  H    0.247023
    35  H    0.209853
    36  H    0.211473
    37  H    0.219692
    38  H    0.195765
    39  H    0.190034
    40  H    0.219427
    41  H    0.246941
    42  H    0.244603
    43  H    0.211761
    44  H    0.295203
    45  H    0.203214
    46  H    0.243389
    47  H    0.392331
    48  H    0.233232
    49  H    0.206473
    50  H    0.189614
    51  H    0.188356
    52  H    0.186828
 Sum of Mulliken atomic charges =   0.00000
 Mulliken charges with hydrogens summed into heavy atoms:
              1
     1  O   -0.586488
     2  C    0.802959
     3  C    0.321817
     4  N   -0.797176
     5  N    0.126896
     6  N   -0.314461
     7  C    0.034989
     8  C    0.142612
     9  C   -0.024995
    10  C    0.011200
    11  C    0.100669
    12  C    0.387447
    13  N   -0.985045
    14  C    0.275220
    15  C    0.060548
    16  C    0.108050
    17  C   -0.351402
    18  S    0.574785
    19  C   -0.347692
    20  C    0.326358
    21  C    0.022357
    22  C    0.088555
    23  C    0.383584
    24  C   -0.056913
    25  C    0.114030
    26  N   -0.638108
    27  C    0.793329
    28  O   -0.615648
    29  C   -0.057288
    30  C    0.079299
    31  C    0.020511
 Sum of Mulliken charges with hydrogens summed into heavy atoms =   0.00000
 Electronic spatial extent (au):  <R**2>=          20514.2225
 Charge=              0.0000 electrons
 Dipole moment (field-independent basis, Debye):
    X=             -0.5734    Y=              4.2102    Z=              4.0953  Tot=              5.9013
 Quadrupole moment (field-independent basis, Debye-Ang):
   XX=           -172.2955   YY=           -187.4546   ZZ=           -186.3538
   XY=             27.9195   XZ=             -1.4513   YZ=            -20.7577
 Traceless Quadrupole moment (field-independent basis, Debye-Ang):
   XX=              9.7391   YY=             -5.4200   ZZ=             -4.3192
   XY=             27.9195   XZ=             -1.4513   YZ=            -20.7577
 Octapole moment (field-independent basis, Debye-Ang**2):
  XXX=            -18.2214  YYY=             17.7509  ZZZ=              8.8675  XYY=           -117.5032
  XXY=            -91.3120  XXZ=            221.7127  XZZ=              3.2530  YZZ=             19.7061
  YYZ=              7.2170  XYZ=             -2.2355
 Hexadecapole moment (field-independent basis, Debye-Ang**3):
 XXXX=         -19395.2497 YYYY=          -5840.8054 ZZZZ=          -1522.5344 XXXY=            583.0758
 XXXZ=            127.9720 YYYX=             83.5105 YYYZ=           -204.6609 ZZZX=             45.0259
 ZZZY=            -82.0960 XXYY=          -4027.8721 XXZZ=          -3829.5775 YYZZ=          -1302.7655
 XXYZ=           -372.1719 YYXZ=            116.8792 ZZXY=             97.0193
 N-N= 2.927760632825D+03 E-N=-9.848805175345D+03  KE= 1.701844865781D+03
 No NMR shielding tensors so no spin-rotation constants.
 Leave Link  601 at Fri Aug 26 12:18:01 2022, MaxMem=  209715200 cpu:       1.6
 (Enter /opt/gaussian/l701.exe)
 Compute integral first derivatives.
 ... and contract with generalized density number  0.
 Leave Link  701 at Fri Aug 26 12:18:01 2022, MaxMem=  209715200 cpu:       1.4
 (Enter /opt/gaussian/l702.exe)
 L702 exits ... SP integral derivatives will be done elsewhere.
 Leave Link  702 at Fri Aug 26 12:18:01 2022, MaxMem=  209715200 cpu:       0.2
 (Enter /opt/gaussian/l703.exe)
 Compute integral first derivatives, UseDBF=F ICtDFT=           0.
 Integral derivatives from FoFDir, PRISM(SPDF).
 Calling FoFJK, ICntrl=      2127 FMM=F ISym2X=0 I1Cent= 0 IOpClX= 0 NMat=1 NMatS=1 NMatT=0.
 FoFCou: FMM=F IPFlag=           0 FMFlag=      100000 FMFlg1=         800
         NFxFlg=           0 DoJE=F BraDBF=F KetDBF=F FulRan=T
         Omega=  0.000000  0.000000  1.000000  0.000000  0.000000 ICntrl=    2127 IOpCl=  0
         NMat0=    1 NMatS0=    1 NMatT0=    0 NMatD0=    1 NMtDS0=    0 NMtDT0=    0
         I1Cent=           0 NGrid=           0.
 Symmetry not used in FoFCou.
 Leave Link  703 at Fri Aug 26 12:18:28 2022, MaxMem=  209715200 cpu:     206.8
 (Enter /opt/gaussian/l716.exe)
 Dipole        =-2.25592165D-01 1.65640737D+00 1.61120508D+00
 ***** Axes restored to original set *****
 -------------------------------------------------------------------
 Center     Atomic                   Forces (Hartrees/Bohr)
 Number     Number              X              Y              Z
 -------------------------------------------------------------------
      1        8           0.027215567   -0.021791741    0.013930651
      2        6          -0.025400140    0.013176682   -0.010600662
      3        6           0.011139591   -0.021300780    0.019605203
      4        7           0.005391958    0.025979551   -0.049754218
      5        7          -0.000625531   -0.014728052    0.009136074
      6        7           0.015824807    0.003227364   -0.026893341
      7        6          -0.001682092   -0.049357057    0.001714640
      8        6          -0.004326433    0.009920730    0.006748820
      9        6           0.005203820    0.013409693   -0.005762904
     10        6           0.005631965   -0.006229114   -0.009968415
     11        6          -0.001736443   -0.010873180    0.000271797
     12        6          -0.010044819    0.033531060    0.031148960
     13        7           0.013769588    0.026217130   -0.005442700
     14        6           0.026589336   -0.003131504    0.036923854
     15        6          -0.002140908   -0.008511036   -0.024534607
     16        6           0.000858536   -0.010351173   -0.008134082
     17        6          -0.003248933   -0.032867109    0.077983207
     18       16           0.002624653   -0.029574396   -0.088220222
     19        6          -0.000166536    0.069831449    0.051233282
     20        6          -0.028222994   -0.000216166   -0.004786075
     21        6           0.015639723    0.005158867   -0.001901940
     22        6          -0.014666976   -0.009049722    0.007963103
     23        6           0.023945111    0.001955800    0.002991879
     24        6          -0.011561341   -0.001963762    0.000409681
     25        6           0.012401488    0.003018695   -0.001993359
     26        7          -0.015745189   -0.009383360    0.011279011
     27        6           0.016259580   -0.006297289    0.007268895
     28        8          -0.007623336    0.018547097   -0.022114761
     29        6           0.000646062    0.011148191    0.013726696
     30        6          -0.013817946   -0.019889727    0.010824166
     31        6          -0.004573092    0.012888400   -0.028124896
     32        1           0.000024710    0.008870562   -0.029375429
     33        1          -0.016986784    0.012222990    0.023166130
     34        1           0.001118612   -0.019438037   -0.005176533
     35        1          -0.008197217   -0.014615802    0.011939648
     36        1          -0.011256367    0.004482639    0.016003570
     37        1          -0.000769213    0.017710701    0.004117093
     38        1          -0.032049020   -0.007561409    0.002112756
     39        1           0.013487746    0.008833265   -0.024783427
     40        1           0.000928220    0.001483778   -0.016397953
     41        1          -0.000220936    0.016861424   -0.004164188
     42        1          -0.000890714   -0.016311030    0.005942737
     43        1          -0.008874671    0.010137165   -0.016308479
     44        1           0.011196936    0.016250210   -0.018515685
     45        1           0.005762058   -0.009332122    0.015484574
     46        1          -0.012092522   -0.015004782    0.015194320
     47        1          -0.000968372   -0.003079792    0.003273770
     48        1           0.005649120   -0.017388108   -0.015223984
     49        1          -0.006234518    0.022216730    0.000548749
     50        1           0.020603872    0.001979630   -0.008359009
     51        1           0.014305899   -0.014501334    0.008475619
     52        1          -0.012095914    0.003687781    0.017117982
 -------------------------------------------------------------------
 Cartesian Forces:  Max     0.088220222 RMS     0.019172999
 Leave Link  716 at Fri Aug 26 12:18:28 2022, MaxMem=  209715200 cpu:       0.2
 (Enter /opt/gaussian/l103.exe)

 GradGradGradGradGradGradGradGradGradGradGradGradGradGradGradGradGradGrad
 Berny optimization.
 Internal  Forces:  Max     0.060588263 RMS     0.010732127
 Search for a local minimum.
 Step number   1 out of a maximum of  290
 All quantities printed in internal units (Hartrees-Bohrs-Radians)
 RMS Force = .10732D-01 SwitMx=.10000D-02 MixMth= 1
 Mixed Optimization -- RFO/linear search
 Second derivative matrix not updated -- first step.
 ITU=  0
     Eigenvalues ---    0.00234   0.00754   0.00846   0.00895   0.01069
     Eigenvalues ---    0.01163   0.01206   0.01361   0.01363   0.01514
     Eigenvalues ---    0.01585   0.01635   0.01641   0.01721   0.01756
     Eigenvalues ---    0.01762   0.01773   0.01777   0.01845   0.01850
     Eigenvalues ---    0.01905   0.01940   0.02029   0.02041   0.02042
     Eigenvalues ---    0.02049   0.02054   0.02087   0.02093   0.02103
     Eigenvalues ---    0.02128   0.02130   0.02136   0.02152   0.02179
     Eigenvalues ---    0.02184   0.02187   0.02245   0.02282   0.02305
     Eigenvalues ---    0.02581   0.03136   0.03149   0.03586   0.03934
     Eigenvalues ---    0.04819   0.04860   0.06481   0.06604   0.10195
     Eigenvalues ---    0.10286   0.10351   0.10525   0.10961   0.13449
     Eigenvalues ---    0.13587   0.15976   0.15986   0.15998   0.15998
     Eigenvalues ---    0.15998   0.16000   0.16000   0.16000   0.16000
     Eigenvalues ---    0.16000   0.16000   0.16000   0.16000   0.16118
     Eigenvalues ---    0.17331   0.21998   0.21999   0.22009   0.22055
     Eigenvalues ---    0.22168   0.22508   0.22577   0.22944   0.23238
     Eigenvalues ---    0.23488   0.23997   0.24439   0.24634   0.24950
     Eigenvalues ---    0.24957   0.24958   0.24963   0.24985   0.24990
     Eigenvalues ---    0.24995   0.24999   0.25000   0.25000   0.26821
     Eigenvalues ---    0.27971   0.28499   0.30438   0.30620   0.30666
     Eigenvalues ---    0.30819   0.32126   0.32281   0.32644   0.33099
     Eigenvalues ---    0.33127   0.33170   0.33173   0.33355   0.33420
     Eigenvalues ---    0.33476   0.33540   0.33554   0.33555   0.33560
     Eigenvalues ---    0.33722   0.33960   0.34586   0.34948   0.34970
     Eigenvalues ---    0.34985   0.37694   0.37974   0.38244   0.38628
     Eigenvalues ---    0.39588   0.40098   0.40383   0.41264   0.41716
     Eigenvalues ---    0.41872   0.42774   0.43164   0.43747   0.44009
     Eigenvalues ---    0.44994   0.45868   0.46039   0.46162   0.46506
     Eigenvalues ---    0.46827   0.46892   0.47593   0.47704   0.48129
     Eigenvalues ---    0.48339   0.49018   0.77087   0.85749   0.85898
 RFO step:  Lambda=-7.40613583D-02 EMin= 2.33822512D-03
 Linear search not attempted -- first point.
 Maximum step size (   0.300) exceeded in Quadratic search.
    -- Step size scaled by   0.722
 Iteration  1 RMS(Cart)=  0.06538243 RMS(Int)=  0.00089499
 Iteration  2 RMS(Cart)=  0.00205406 RMS(Int)=  0.00007722
 Iteration  3 RMS(Cart)=  0.00000198 RMS(Int)=  0.00007722
 Iteration  4 RMS(Cart)=  0.00000000 RMS(Int)=  0.00007722
 Variable       Old X    -DE/DX   Delta X   Delta X   Delta X     New X
                                 (Linear)    (Quad)   (Total)
    R1        2.34883  -0.03635   0.00000  -0.02813  -0.02813   2.32070
    R2        2.91061  -0.01261   0.00000  -0.02537  -0.02537   2.88524
    R3        2.63565  -0.01814   0.00000  -0.02429  -0.02429   2.61136
    R4        2.72117  -0.00920   0.00000  -0.01413  -0.01413   2.70704
    R5        2.13354  -0.03040   0.00000  -0.05765  -0.05765   2.07589
    R6        2.13059  -0.03079   0.00000  -0.05817  -0.05817   2.07242
    R7        2.59815  -0.01093   0.00000  -0.01268  -0.01272   2.58544
    R8        2.67851  -0.03273   0.00000  -0.04826  -0.04827   2.63025
    R9        2.37147  -0.00376   0.00000  -0.00196  -0.00199   2.36948
   R10        2.70932  -0.02662   0.00000  -0.03992  -0.03989   2.66943
   R11        2.63445  -0.01170   0.00000  -0.01638  -0.01636   2.61809
   R12        2.73768  -0.04584   0.00000  -0.07591  -0.07583   2.66185
   R13        2.62907  -0.01105   0.00000  -0.01394  -0.01395   2.61512
   R14        2.07801  -0.02013   0.00000  -0.03534  -0.03534   2.04267
   R15        2.65354  -0.00745   0.00000  -0.00885  -0.00888   2.64467
   R16        2.08114  -0.02057   0.00000  -0.03628  -0.03628   2.04486
   R17        2.62926  -0.00986   0.00000  -0.01230  -0.01233   2.61693
   R18        2.08088  -0.02006   0.00000  -0.03536  -0.03536   2.04551
   R19        2.63632  -0.00931   0.00000  -0.01316  -0.01315   2.62316
   R20        2.07398  -0.01813   0.00000  -0.03164  -0.03164   2.04234
   R21        2.73461   0.01404   0.00000   0.02203   0.02203   2.75664
   R22        2.69287   0.01013   0.00000   0.01490   0.01490   2.70776
   R23        2.81620   0.01131   0.00000   0.02000   0.02000   2.83620
   R24        2.13444  -0.03261   0.00000  -0.06192  -0.06192   2.07252
   R25        2.13798  -0.02906   0.00000  -0.05544  -0.05544   2.08254
   R26        2.71304   0.00330   0.00000   0.00125   0.00109   2.71413
   R27        2.60905  -0.02117   0.00000  -0.02814  -0.02822   2.58083
   R28        2.60157  -0.01945   0.00000  -0.02586  -0.02590   2.57567
   R29        2.06352  -0.01618   0.00000  -0.02783  -0.02783   2.03569
   R30        3.15649   0.05575   0.00000   0.08810   0.08823   3.24472
   R31        2.05724  -0.01703   0.00000  -0.02902  -0.02902   2.02822
   R32        3.14934   0.06059   0.00000   0.09469   0.09479   3.24413
   R33        2.05759  -0.01706   0.00000  -0.02908  -0.02908   2.02851
   R34        2.66142  -0.02133   0.00000  -0.02980  -0.02980   2.63162
   R35        2.66468  -0.02034   0.00000  -0.02871  -0.02871   2.63597
   R36        2.62561  -0.00432   0.00000  -0.00555  -0.00555   2.62005
   R37        2.08079  -0.02114   0.00000  -0.03726  -0.03726   2.04353
   R38        2.66416  -0.01961   0.00000  -0.02739  -0.02739   2.63676
   R39        2.08433  -0.02690   0.00000  -0.04765  -0.04765   2.03669
   R40        2.67530  -0.02212   0.00000  -0.03163  -0.03163   2.64367
   R41        2.65282   0.00375   0.00000   0.00517   0.00517   2.65800
   R42        2.62010  -0.00733   0.00000  -0.00970  -0.00969   2.61040
   R43        2.08090  -0.01883   0.00000  -0.03319  -0.03319   2.04771
[...]
 ! D121  D(27,29,30,50)        142.8399         -DE/DX =    0.0                 !
 ! D122  D(48,29,30,49)       -144.7899         -DE/DX =    0.0                 !
 ! D123  D(48,29,30,50)         -3.1157         -DE/DX =    0.0                 !
 ! D124  D(27,29,31,51)       -142.9329         -DE/DX =    0.0                 !
 ! D125  D(27,29,31,52)         -1.2178         -DE/DX =    0.0                 !
 ! D126  D(48,29,31,51)          3.1736         -DE/DX =    0.0                 !
 ! D127  D(48,29,31,52)        144.8887         -DE/DX =    0.0                 !
 ! D128  D(49,30,31,51)        147.2047         -DE/DX =    0.0                 !
 ! D129  D(49,30,31,52)          0.006          -DE/DX =    0.0                 !
 ! D130  D(50,30,31,51)         -0.0263         -DE/DX =    0.0                 !
 ! D131  D(50,30,31,52)       -147.2251         -DE/DX =    0.0                 !
 --------------------------------------------------------------------------------
 GradGradGradGradGradGradGradGradGradGradGradGradGradGradGradGradGradGrad

 Largest change from initial coordinates is atom   41       3.647 Angstoms.
 Leave Link  103 at Fri Aug 26 13:42:23 2022, MaxMem=  209715200 cpu:       0.8
 (Enter /opt/gaussian/l202.exe)
 Stoichiometry    C23H21N5O2S
 Framework group  C1[X(C23H21N5O2S)]
 Deg. of freedom   150
 Full point group                 C1      NOp   1
 RotChk:  IX=0 Diff= 2.31D-15
 Largest Abelian subgroup         C1      NOp   1
 Largest concise Abelian subgroup C1      NOp   1
                         Standard orientation:                         
 ---------------------------------------------------------------------
 Center     Atomic      Atomic             Coordinates (Angstroms)
 Number     Number       Type             X           Y           Z
 ---------------------------------------------------------------------
      1          8           0        1.139392   -1.478442   -0.089549
      2          6           0        1.302061   -0.433514   -0.700125
      3          6           0        2.661315   -0.085269   -1.294860
      4          7           0        3.637406   -1.101070   -1.048117
      5          7           0        3.954935   -1.984875   -2.036120
      6          7           0        4.800095   -2.822823   -1.599556
      7          6           0        5.077064   -2.530783   -0.273363
      8          6           0        5.935297   -3.151543    0.633057
      9          6           0        6.004842   -2.621397    1.898113
     10          6           0        5.232723   -1.494503    2.258501
     11          6           0        4.382131   -0.878675    1.371659
     12          6           0        4.319866   -1.423179    0.086420
     13          7           0        0.295872    0.478565   -0.883763
     14          6           0        0.508114    1.780008   -1.519873
     15          6           0        1.063563    2.851571   -0.610804
     16          6           0        1.462519    4.143916   -1.134573
     17          6           0        1.917526    4.993377   -0.202147
     18         16           0        1.892896    4.261113    1.427763
     19          6           0        1.230567    2.756888    0.718778
     20          6           0       -1.038714    0.152386   -0.456196
     21          6           0       -2.051157    0.036461   -1.394866
     22          6           0       -3.356821   -0.243304   -1.021161
     23          6           0       -3.657227   -0.432509    0.324413
     24          6           0       -2.634740   -0.336157    1.266968
     25          6           0       -1.340511   -0.044611    0.882898
     26          7           0       -4.947193   -0.734453    0.805113
     27          6           0       -6.119592   -0.813176    0.114760
     28          8           0       -6.208121   -0.613183   -1.096536
     29          6           0       -7.307092   -1.160438    0.929959
     30          6           0       -8.389813   -2.001765    0.279812
     31          6           0       -8.640948   -0.556562    0.531479
     32          1           0        2.577883    0.004673   -2.368022
     33          1           0        3.010739    0.860492   -0.903233
     34          1           0        6.510151   -4.006628    0.339807
     35          1           0        6.649971   -3.064562    2.630720
     36          1           0        5.312853   -1.113050    3.258028
     37          1           0        3.793271   -0.031091    1.659475
     38          1           0        1.153372    1.674906   -2.383032
     39          1           0       -0.447256    2.109999   -1.901637
     40          1           0        1.399150    4.397603   -2.174113
     41          1           0        2.269561    5.991591   -0.332433
     42          1           0        1.002038    1.932773    1.353914
     43          1           0       -1.824622    0.153839   -2.437215
     44          1           0       -4.124876   -0.321453   -1.756620
     45          1           0       -2.850742   -0.491219    2.307601
     46          1           0       -0.566224    0.001177    1.620513
     47          1           0       -4.997641   -0.914187    1.779533
     48          1           0       -7.133600   -1.313416    1.977276
     49          1           0       -8.211441   -2.307647   -0.731121
     50          1           0       -8.877167   -2.731493    0.896138
     51          1           0       -9.304895   -0.272405    1.324183
     52          1           0       -8.630677    0.104519   -0.311291
 ---------------------------------------------------------------------
 Rotational constants (GHZ):      0.1899541      0.0599872      0.0509153
 Leave Link  202 at Fri Aug 26 13:42:23 2022, MaxMem=  209715200 cpu:       0.0
 (Enter /opt/gaussian/l601.exe)
 Copying SCF densities to generalized density rwf, IOpCl= 0 IROHF=0.

 **********************************************************************

            Population analysis using the SCF density.

 **********************************************************************

 Orbital symmetries:
       Occupied  (A) (A) (A) (A) (A) (A) (A) (A) (A) (A) (A) (A)
                 (A) (A) (A) (A) (A) (A) (A) (A) (A) (A) (A) (A)
                 (A) (A) (A) (A) (A) (A) (A) (A) (A) (A) (A) (A)
                 (A) (A) (A) (A) (A) (A) (A) (A) (A) (A) (A) (A)
                 (A) (A) (A) (A) (A) (A) (A) (A) (A) (A) (A) (A)
                 (A) (A) (A) (A) (A) (A) (A) (A) (A) (A) (A) (A)
                 (A) (A) (A) (A) (A) (A) (A) (A) (A) (A) (A) (A)
                 (A) (A) (A) (A) (A) (A) (A) (A) (A) (A) (A) (A)
                 (A) (A) (A) (A) (A) (A) (A) (A) (A) (A) (A) (A)
                 (A) (A) (A) (A) (A)
       Virtual   (A) (A) (A) (A) (A) (A) (A) (A) (A) (A) (A) (A)
                 (A) (A) (A) (A) (A) (A) (A) (A) (A) (A) (A) (A)
                 (A) (A) (A) (A) (A) (A) (A) (A) (A) (A) (A) (A)
                 (A) (A) (A) (A) (A) (A) (A) (A) (A) (A) (A) (A)
                 (A) (A) (A) (A) (A) (A) (A) (A) (A) (A) (A) (A)
                 (A) (A) (A) (A) (A) (A) (A) (A) (A) (A) (A) (A)
                 (A) (A) (A) (A) (A) (A) (A) (A) (A) (A) (A) (A)
                 (A) (A) (A) (A) (A) (A) (A) (A) (A) (A) (A) (A)
                 (A) (A) (A) (A) (A) (A) (A) (A) (A) (A) (A) (A)
                 (A) (A) (A) (A) (A) (A) (A) (A) (A) (A) (A) (A)
                 (A) (A) (A) (A) (A) (A) (A) (A) (A) (A) (A) (A)
                 (A) (A) (A) (A) (A) (A) (A) (A) (A) (A) (A) (A)
                 (A) (A) (A) (A) (A) (A) (A) (A) (A) (A) (A) (A)
                 (A) (A) (A) (A) (A) (A) (A) (A) (A) (A) (A) (A)
                 (A) (A) (A) (A) (A) (A) (A) (A) (A) (A) (A) (A)
                 (A) (A) (A) (A) (A) (A) (A) (A) (A) (A) (A) (A)
                 (A) (A) (A) (A) (A) (A) (A) (A) (A) (A) (A) (A)
                 (A) (A) (A) (A) (A) (A) (A) (A)
 The electronic state is 1-A.
 Alpha  occ. eigenvalues --  -91.98452 -20.54578 -20.53752 -15.66186 -15.65279
 Alpha  occ. eigenvalues --  -15.61679 -15.61561 -15.60968 -11.38506 -11.38185
 Alpha  occ. eigenvalues --  -11.30956 -11.30788 -11.30361 -11.29380 -11.29329
 Alpha  occ. eigenvalues --  -11.28876 -11.28759 -11.27645 -11.26465 -11.26386
 Alpha  occ. eigenvalues --  -11.25982 -11.25349 -11.25225 -11.25204 -11.25156
 Alpha  occ. eigenvalues --  -11.24999 -11.24901 -11.24769 -11.24698 -11.24009
 Alpha  occ. eigenvalues --  -11.23728  -9.00235  -6.68368  -6.68234  -6.67970
 Alpha  occ. eigenvalues --   -1.47298  -1.41844  -1.40833  -1.28342  -1.27210
 Alpha  occ. eigenvalues --   -1.24733  -1.19654  -1.17659  -1.17517  -1.15922
 Alpha  occ. eigenvalues --   -1.06484  -1.05807  -1.05241  -1.03796  -1.03016
 Alpha  occ. eigenvalues --   -1.01211  -1.00808  -0.94921  -0.92628  -0.88748
 Alpha  occ. eigenvalues --   -0.86817  -0.86069  -0.84854  -0.84300  -0.81837
 Alpha  occ. eigenvalues --   -0.80325  -0.79203  -0.77577  -0.75697  -0.74195
 Alpha  occ. eigenvalues --   -0.73105  -0.72739  -0.72321  -0.72096  -0.70511
 Alpha  occ. eigenvalues --   -0.68634  -0.66175  -0.65577  -0.65398  -0.64841
 Alpha  occ. eigenvalues --   -0.63817  -0.63036  -0.62450  -0.61918  -0.61715
 Alpha  occ. eigenvalues --   -0.61190  -0.60906  -0.60470  -0.59631  -0.59323
 Alpha  occ. eigenvalues --   -0.57361  -0.56137  -0.54867  -0.54334  -0.53610
 Alpha  occ. eigenvalues --   -0.53429  -0.53066  -0.52554  -0.52412  -0.51791
 Alpha  occ. eigenvalues --   -0.51084  -0.50436  -0.49346  -0.47938  -0.45513
 Alpha  occ. eigenvalues --   -0.45332  -0.44423  -0.42859  -0.42593  -0.42373
 Alpha  occ. eigenvalues --   -0.42076  -0.39822  -0.36298  -0.35439  -0.34819
 Alpha  occ. eigenvalues --   -0.33575  -0.32036  -0.31162
 Alpha virt. eigenvalues --    0.09992   0.10965   0.12055   0.13236   0.15898
 Alpha virt. eigenvalues --    0.16454   0.17115   0.19021   0.19942   0.20128
 Alpha virt. eigenvalues --    0.20750   0.21191   0.22801   0.23697   0.24128
 Alpha virt. eigenvalues --    0.24567   0.25181   0.25628   0.27149   0.27621
 Alpha virt. eigenvalues --    0.27965   0.29059   0.29624   0.29710   0.30028
 Alpha virt. eigenvalues --    0.32213   0.32485   0.32923   0.33203   0.33560
 Alpha virt. eigenvalues --    0.33787   0.35983   0.36452   0.37263   0.37420
 Alpha virt. eigenvalues --    0.37569   0.38434   0.39076   0.40407   0.40915
 Alpha virt. eigenvalues --    0.41277   0.42498   0.42667   0.43851   0.44657
 Alpha virt. eigenvalues --    0.44980   0.45216   0.46434   0.47257   0.48702
 Alpha virt. eigenvalues --    0.49010   0.49420   0.51121   0.52210   0.52474
 Alpha virt. eigenvalues --    0.52833   0.53510   0.54192   0.55299   0.56577
 Alpha virt. eigenvalues --    0.58460   0.58726   0.59429   0.61059   0.61789
 Alpha virt. eigenvalues --    0.63285   0.64631   0.70478   0.71335   0.72583
 Alpha virt. eigenvalues --    0.73205   0.73586   0.73762   0.74269   0.74528
 Alpha virt. eigenvalues --    0.75270   0.76258   0.76876   0.77773   0.77857
 Alpha virt. eigenvalues --    0.78521   0.79333   0.79889   0.80399   0.81496
 Alpha virt. eigenvalues --    0.81560   0.82226   0.82874   0.83295   0.83794
 Alpha virt. eigenvalues --    0.83893   0.85019   0.85283   0.85795   0.85919
 Alpha virt. eigenvalues --    0.86099   0.86251   0.86747   0.87239   0.87918
 Alpha virt. eigenvalues --    0.88480   0.89096   0.89685   0.90205   0.90298
 Alpha virt. eigenvalues --    0.90677   0.91150   0.91639   0.92352   0.92690
 Alpha virt. eigenvalues --    0.94029   0.94476   0.94702   0.95594   0.96261
 Alpha virt. eigenvalues --    0.96812   0.97554   0.99100   1.00065   1.00530
 Alpha virt. eigenvalues --    1.00648   1.01919   1.02816   1.05771   1.05868
 Alpha virt. eigenvalues --    1.07175   1.08167   1.08408   1.09462   1.10725
 Alpha virt. eigenvalues --    1.11615   1.11837   1.12649   1.12840   1.13102
 Alpha virt. eigenvalues --    1.13217   1.13777   1.14329   1.14495   1.15115
 Alpha virt. eigenvalues --    1.15909   1.16254   1.16622   1.17629   1.17827
 Alpha virt. eigenvalues --    1.19020   1.19771   1.21148   1.21487   1.21947
 Alpha virt. eigenvalues --    1.22454   1.23144   1.23604   1.23939   1.25104
 Alpha virt. eigenvalues --    1.25664   1.25925   1.27208   1.27510   1.27907
 Alpha virt. eigenvalues --    1.29574   1.30064   1.31388   1.31605   1.32048
 Alpha virt. eigenvalues --    1.32800   1.33680   1.34387   1.36627   1.36896
 Alpha virt. eigenvalues --    1.38198   1.38733   1.39696   1.40044   1.41682
 Alpha virt. eigenvalues --    1.43142   1.44265   1.44890   1.46120   1.47721
 Alpha virt. eigenvalues --    1.49151   1.49806   1.51207   1.52858   1.54540
 Alpha virt. eigenvalues --    1.56880   1.58142   1.60023   1.60881   1.61004
 Alpha virt. eigenvalues --    1.62175   1.65102   1.66305   1.67305   1.69801
 Alpha virt. eigenvalues --    1.71846   1.73353   1.76673   1.77525   1.84647
 Alpha virt. eigenvalues --    1.88927   1.91694   1.92757   1.99351   2.07028
 Alpha virt. eigenvalues --    2.08550   2.11395   2.18665   2.22950   2.26207
 Alpha virt. eigenvalues --    2.34445   2.41672
          Condensed to atoms (all electrons):
 Mulliken atomic charges:
              1
     1  O   -0.569213
     2  C    0.790414
     3  C   -0.130564
     4  N   -0.882678
     5  N    0.098671
     6  N   -0.335562
     7  C   -0.019198
     8  C   -0.078645
     9  C   -0.233814
    10  C   -0.205284
    11  C   -0.067777
    12  C    0.487320
    13  N   -0.976329
    14  C   -0.075390
    15  C    0.079462
    16  C   -0.105519
    17  C   -0.551027
    18  S    0.472885
    19  C   -0.594516
    20  C    0.297844
    21  C   -0.187085
    22  C   -0.181342
    23  C    0.391121
    24  C   -0.263504
    25  C   -0.131355
    26  N   -1.061448
    27  C    0.886049
    28  O   -0.643765
    29  C   -0.384316
    30  C   -0.307255
    31  C   -0.307994
    32  H    0.251044
    33  H    0.234414
    34  H    0.240436
    35  H    0.203388
    36  H    0.203967
    37  H    0.221453
    38  H    0.186768
    39  H    0.222167
    40  H    0.221120
    41  H    0.237122
    42  H    0.236584
    43  H    0.216205
    44  H    0.293067
    45  H    0.204615
    46  H    0.223229
    47  H    0.387013
    48  H    0.191189
    49  H    0.223399
    50  H    0.185450
    51  H    0.184585
    52  H    0.222603
 Sum of Mulliken atomic charges =   0.00000
 Mulliken charges with hydrogens summed into heavy atoms:
              1
     1  O   -0.569213
     2  C    0.790414
     3  C    0.354894
     4  N   -0.882678
     5  N    0.098671
     6  N   -0.335562
     7  C   -0.019198
     8  C    0.161791
     9  C   -0.030427
    10  C   -0.001318
    11  C    0.153677
    12  C    0.487320
    13  N   -0.976329
    14  C    0.333545
    15  C    0.079462
    16  C    0.115600
    17  C   -0.313905
    18  S    0.472885
    19  C   -0.357933
    20  C    0.297844
    21  C    0.029119
    22  C    0.111725
    23  C    0.391121
    24  C   -0.058889
    25  C    0.091874
    26  N   -0.674436
    27  C    0.886049
    28  O   -0.643765
    29  C   -0.193127
    30  C    0.101593
    31  C    0.099194
 Sum of Mulliken charges with hydrogens summed into heavy atoms =   0.00000
 Electronic spatial extent (au):  <R**2>=          20493.9385
 Charge=              0.0000 electrons
 Dipole moment (field-independent basis, Debye):
    X=             -2.6797    Y=              5.4531    Z=              4.2877  Tot=              7.4365
 Quadrupole moment (field-independent basis, Debye-Ang):
   XX=           -178.1839   YY=           -193.9946   ZZ=           -180.5371
   XY=             20.1207   XZ=             -8.9780   YZ=            -23.2601
 Traceless Quadrupole moment (field-independent basis, Debye-Ang):
   XX=              6.0547   YY=             -9.7561   ZZ=              3.7014
   XY=             20.1207   XZ=             -8.9780   YZ=            -23.2601
 Octapole moment (field-independent basis, Debye-Ang**2):
  XXX=           -215.5060  YYY=             72.1471  ZZZ=             25.6655  XYY=            -12.2955
  XXY=            -53.4700  XXZ=            247.8514  XZZ=            -35.8348  YZZ=             19.4346
  YYZ=             -7.9683  XYZ=            -43.4115
 Hexadecapole moment (field-independent basis, Debye-Ang**3):
 XXXX=         -19466.4939 YYYY=          -5269.8455 ZZZZ=          -1681.0686 XXXY=            283.6444
 XXXZ=           -541.0588 YYYX=            294.8206 YYYZ=           -239.6283 ZZZX=             78.3082
 ZZZY=           -128.2578 XXYY=          -4246.8125 XXZZ=          -3748.3259 YYZZ=          -1301.8842
 XXYZ=           -466.6823 YYXZ=             98.4623 ZZXY=            114.3392
 N-N= 2.947089236618D+03 E-N=-9.888564319228D+03  KE= 1.703440750371D+03
 No NMR shielding tensors so no spin-rotation constants.
 Leave Link  601 at Fri Aug 26 13:42:23 2022, MaxMem=  209715200 cpu:       1.4
 (Enter /opt/gaussian/l9999.exe)
 1\1\GINC-LQCAPF-6\FOpt\RHF\6-31G\C23H21N5O2S1\LQCAPF-6\26-Aug-2022\0\\
 #p opt hf/6-31G\\Mol01.out\\0,1\O,21.0825038833,-7.0102603243,-0.46660
 13387\C,21.6586363658,-8.0309170544,-0.1238618677\C,23.0955258565,-7.9
 791265346,0.3813335777\N,23.6179395228,-6.6478129593,0.3945211686\N,23
 .675334392,-5.9579260649,1.568765167\N,24.1246071524,-4.7921692634,1.3
 538128253\C,24.3798817986,-4.6528845868,-0.0012600044\C,24.8813965613,
 -3.5716421024,-0.7243798582\C,25.03435434,-3.7372961441,-2.0791566961\
 C,24.6924300055,-4.9560433137,-2.7065972244\C,24.1946645506,-6.0255873
 363,-2.0012282211\C,24.0449449885,-5.8488797976,-0.6233455446\N,21.065
 8633794,-9.2654900463,-0.1736147792\C,21.7823405701,-10.5049655741,0.1
 326463439\C,22.610391556,-11.060531865,-1.002631033\C,23.4881039318,-1
 2.1975767669,-0.8016172108\C,24.1410627862,-12.5845801124,-1.907015534
 9\S,23.7232576589,-11.5639546831,-3.3131405925\C,22.6241691455,-10.612
 2856836,-2.2689361996\C,19.6733472824,-9.3659823054,-0.5216497834\C,18
 .7663016301,-9.8470894949,0.4086111626\C,17.4217085863,-9.9909883536,0
 .1019422868\C,16.9656830392,-9.6260303999,-1.1611722252\C,17.874717843
 1,-9.1226956977,-2.0904104483\C,19.2137515813,-8.9959796323,-1.7766122
 862\N,15.6190657273,-9.7198978717,-1.5662237688\C,14.5566155501,-10.23
 71730214,-0.8873048967\O,14.644085135,-10.7246603408,0.2395391746\C,13
 .2619374849,-10.1766235633,-1.6052457582\C,12.0055207087,-9.964149566,
 -0.7811836907\C,12.2711319594,-11.3026743867,-1.3751685278\H,23.137016
 7184,-8.334198475,1.400612925\H,23.7286441999,-8.6144242544,-0.2232246
 267\H,25.1321942497,-2.6554061762,-0.229167842\H,25.4156284544,-2.9340
 644932,-2.678113254\H,24.8232461175,-5.0439152685,-3.7677977015\H,23.9
 285894091,-6.9414492559,-2.4894821711\H,22.4142015837,-10.3682084893,1
 .001263609\H,21.0436148359,-11.2408869511,0.4156191443\H,23.6043807778
 ,-12.6852811412,0.1458222838\H,24.8376398503,-13.3845102306,-2.0175895
 849\H,22.0641859899,-9.8094155068,-2.6891831024\H,19.1033306559,-10.10
 57584258,1.3940492384\H,16.7390179298,-10.370090105,0.8279798575\H,17.
 5340756635,-8.8265576048,-3.065030154\H,19.8904303443,-8.5849144454,-2
 .4969061045\H,15.4288182548,-9.3555516512,-2.4692188787\H,13.2836066,-
 9.7374037366,-2.583505857\H,12.1431102741,-9.8517996422,0.2751360684\H
 ,11.2403589632,-9.3459694796,-1.2080980506\H,11.6919442895,-11.6237313
 304,-2.2186230008\H,12.5863898653,-12.08598849,-0.7160570143\\Version=
 EM64L-G09RevC.01\State=1-A\HF=-1702.0125423\RMSD=4.097e-09\RMSF=5.665e
 -06\Dipole=-0.345371,-1.9403586,-2.1623601\Quadrupole=14.9760545,-9.12
 57232,-5.8503314,-10.5948848,9.3049437,-15.4236703\PG=C01 [X(C23H21N5O
 2S1)]\\@


 FOR THE NATURE OF THE CHEMICAL BOND
 IS THE PROBLEM AT THE HEART OF ALL CHEMISTRY.

                     -- BRYCE CRAWFORD, JR., 1953
 Job cpu time:  0 days 10 hours 52 minutes 47.5 seconds.
 File lengths (MBytes):  RWF=     72 Int=      0 D2E=      0 Chk=     11 Scr=      1
 Normal termination of Gaussian 09 at Fri Aug 26 13:42:23 2022.
