 Entering Gaussian System, Link 0=g09
 Input=Mol19.gjf
 Output=Mol19.log
 Initial command:
 /opt/gaussian/l1.exe /home/scr/lqcapf-6/Gau-255177.inp -scrdir=/home/scr/lqcapf-6/
 Entering Link 1 = /opt/gaussian/l1.exe PID=    255179.
  
 Copyright (c) 1988,1990,1992,1993,1995,1998,2003,2009,2011,
            Gaussian, Inc.  All Rights Reserved.
  
 This is part of the Gaussian(R) 09 program.  It is based on
 the Gaussian(R) 03 system (copyright 2003, Gaussian, Inc.),
 the Gaussian(R) 98 system (copyright 1998, Gaussian, Inc.),
 the Gaussian(R) 94 system (copyright 1995, Gaussian, Inc.),
 the Gaussian 92(TM) system (copyright 1992, Gaussian, Inc.),
 the Gaussian 90(TM) system (copyright 1990, Gaussian, Inc.),
 the Gaussian 88(TM) system (copyright 1988, Gaussian, Inc.),
 the Gaussian 86(TM) system (copyright 1986, Carnegie Mellon
 University), and the Gaussian 82(TM) system (copyright 1983,
 Carnegie Mellon University). Gaussian is a federally registered
 trademark of Gaussian, Inc.
  
 This software contains proprietary and confidential information,
 including trade secrets, belonging to Gaussian, Inc.
  
 This software is provided under written license and may be
 used, copied, transmitted, or stored only in accord with that
 written license.
  
 The following legend is applicable only to US Government
 contracts under FAR:
  
                    RESTRICTED RIGHTS LEGEND
  
 Use, reproduction and disclosure by the US Government is
 subject to restrictions as set forth in subparagraphs (a)
 and (c) of the Commercial Computer Software - Restricted
 Rights clause in FAR 52.227-19.
  
 Gaussian, Inc.
 340 Quinnipiac St., Bldg. 40, Wallingford CT 06492
  
  
 ---------------------------------------------------------------
 Warning -- This program may not be used in any manner that
 competes with the business of Gaussian, Inc. or will provide
 assistance to any competitor of Gaussian, Inc.  The licensee
 of this program is prohibited from giving any competitor of
 Gaussian, Inc. access to this program.  By using this program,
 the user acknowledges that Gaussian, Inc. is engaged in the
 business of creating and licensing software in the field of
 computational chemistry and represents and warrants to the
 licensee that it is not a competitor of Gaussian, Inc. and that
 it will not use this program in any manner prohibited above.
 ---------------------------------------------------------------
  

 Cite this work as:
 Gaussian 09, Revision C.01,
 M. J. Frisch, G. W. Trucks, H. B. Schlegel, G. E. Scuseria, 
 M. A. Robb, J. R. Cheeseman, G. Scalmani, V. Barone, B. Mennucci, 
 G. A. Petersson, H. Nakatsuji, M. Caricato, X. Li, H. P. Hratchian, 
 A. F. Izmaylov, J. Bloino, G. Zheng, J. L. Sonnenberg, M. Hada, 
 M. Ehara, K. Toyota, R. Fukuda, J. Hasegawa, M. Ishida, T. Nakajima, 
 Y. Honda, O. Kitao, H. Nakai, T. Vreven, J. A. Montgomery, Jr., 
 J. E. Peralta, F. Ogliaro, M. Bearpark, J. J. Heyd, E. Brothers, 
 K. N. Kudin, V. N. Staroverov, T. Keith, R. Kobayashi, J. Normand, 
 K. Raghavachari, A. Rendell, J. C. Burant, S. S. Iyengar, J. Tomasi, 
 M. Cossi, N. Rega, J. M. Millam, M. Klene, J. E. Knox, J. B. Cross, 
 V. Bakken, C. Adamo, J. Jaramillo, R. Gomperts, R. E. Stratmann, 
 O. Yazyev, A. J. Austin, R. Cammi, C. Pomelli, J. W. Ochterski, 
 R. L. Martin, K. Morokuma, V. G. Zakrzewski, G. A. Voth, 
 P. Salvador, J. J. Dannenberg, S. Dapprich, A. D. Daniels, 
 O. Farkas, J. B. Foresman, J. V. Ortiz, J. Cioslowski, 
 and D. J. Fox, Gaussian, Inc., Wallingford CT, 2010.
 
 ******************************************
 Gaussian 09:  EM64L-G09RevC.01 23-Sep-2011
                26-Aug-2022 
 ******************************************
 %nprocshared=8
 Will use up to    8 processors via shared memory.
 %mem=1600MB
 ---------------
 #p opt hf/6-31G
 ---------------
 1/18=20,19=15,38=1/1,3;
 2/9=110,12=2,17=6,18=5,40=1/2;
 3/5=1,6=6,11=9,16=1,25=1,30=1,71=1/1,2,3;
 4//1;
 5/5=2,38=5/2;
 6/7=2,8=2,9=2,10=2,28=1/1;
 7//1,2,3,16;
 1/18=20,19=15/3(2);
 2/9=110/2;
 99//99;
 2/9=110/2;
 3/5=1,6=6,11=9,16=1,25=1,30=1,71=1/1,2,3;
 4/5=5,16=3/1;
 5/5=2,38=5/2;
 7//1,2,3,16;
 1/18=20,19=15/3(-5);
 2/9=110/2;
 6/7=2,8=2,9=2,10=2,19=2,28=1/1;
 99/9=1/99;
 Leave Link    1 at Fri Aug 26 20:57:22 2022, MaxMem=  209715200 cpu:       0.1
 (Enter /opt/gaussian/l101.exe)
 ---------
 Mol19.out
 ---------
 Charge =  0 Multiplicity = 1
 Symbolic Z-Matrix:
 O                     20.9947  -8.3691   -2.8426 
 C                     21.3576  -9.0221   -1.8513 
 C                     22.6485  -8.6592   -1.0911 
 N                     22.9967  -7.2623   -1.1701 
 N                     22.1143  -6.2534   -0.8658 
 N                     22.4998  -5.1386   -1.2936 
 C                     23.7214  -5.3062   -2.0228 
 C                     24.5707  -4.4178   -2.6815 
 C                     25.7183  -4.9431   -3.265 
 C                     26.0221  -6.313    -3.201 
 C                     25.1941  -7.2255   -2.5559 
 C                     24.0341  -6.7195   -1.9661 
 N                     20.5908  -10.0791  -1.3323 
 C                     21.2399  -11.2458  -0.7793 
 C                     21.7233  -12.2665  -1.7525 
 C                     21.9399  -13.6293  -1.3569 
 C                     22.4071  -14.3892  -2.4061 
 S                     22.5613  -13.4841  -3.8008 
 C                     22.0332  -12.0757  -3.0844 
 C                     19.2135  -10.1804  -1.6688 
 C                     18.6075  -11.4258  -1.9324 
 C                     17.2369  -11.5095  -2.1489 
 C                     16.4302  -10.3647  -2.1162 
 C                     17.0369  -9.1205   -1.8918 
 C                     18.4055  -9.0213   -1.6763 
 C                     15.0087  -10.4636  -2.3126 
 C                     14.1346  -11.4668  -1.8514 
 N                     12.8633  -11.1118  -2.3 
 N                     12.8669  -9.978    -3.0034 
 C                     14.1514  -9.5428   -3.0371 
 H                     22.5294  -8.9061    0.0044 
 H                     23.4958  -9.2612   -1.5241 
 H                     24.3354  -3.3451   -2.7345 
 H                     26.4098  -4.2701   -3.7939 
 H                     26.946   -6.6756   -3.6783 
 H                     25.442   -8.2935   -2.5163 
 H                     22.1266  -10.9105  -0.1629 
 H                     20.5098  -11.7416  -0.072 
 H                     21.7424  -13.9952  -0.3474 
 H                     22.6474  -15.4501  -2.3587 
 H                     21.932   -11.1368  -3.6301 
 H                     19.2169  -12.3422  -1.9785 
 H                     16.7808  -12.4875  -2.3635 
 H                     16.4201  -8.2085   -1.8763 
 H                     18.8593  -8.0285   -1.5265 
 H                     14.3213  -12.3577  -1.2542 
 H                     14.4503  -8.6339   -3.5599 
 H                     12.0142  -11.6021  -2.1447 
 
 NAtoms=     48 NQM=        0 NQMF=       0 NMMI=     48 NMMIF=      0
                NMic=       0 NMicF=      0.
                    Isotopes and Nuclear Properties:
 (Nuclear quadrupole moments (NQMom) in fm**2, nuclear magnetic moments (NMagM)
  in nuclear magnetons)

  Atom         1           2           3           4           5           6           7           8           9          10
 IAtWgt=          16          12          12          14          14          14          12          12          12          12
 AtmWgt=  15.9949146  12.0000000  12.0000000  14.0030740  14.0030740  14.0030740  12.0000000  12.0000000  12.0000000  12.0000000
 NucSpn=           0           0           0           2           2           2           0           0           0           0
 AtZEff=   0.0000000   0.0000000   0.0000000   0.0000000   0.0000000   0.0000000   0.0000000   0.0000000   0.0000000   0.0000000
 NQMom=    0.0000000   0.0000000   0.0000000   2.0440000   2.0440000   2.0440000   0.0000000   0.0000000   0.0000000   0.0000000
 NMagM=    0.0000000   0.0000000   0.0000000   0.4037610   0.4037610   0.4037610   0.0000000   0.0000000   0.0000000   0.0000000

  Atom        11          12          13          14          15          16          17          18          19          20
 IAtWgt=          12          12          14          12          12          12          12          32          12          12
 AtmWgt=  12.0000000  12.0000000  14.0030740  12.0000000  12.0000000  12.0000000  12.0000000  31.9720718  12.0000000  12.0000000
 NucSpn=           0           0           2           0           0           0           0           0           0           0
 AtZEff=   0.0000000   0.0000000   0.0000000   0.0000000   0.0000000   0.0000000   0.0000000   0.0000000   0.0000000   0.0000000
 NQMom=    0.0000000   0.0000000   2.0440000   0.0000000   0.0000000   0.0000000   0.0000000   0.0000000   0.0000000   0.0000000
 NMagM=    0.0000000   0.0000000   0.4037610   0.0000000   0.0000000   0.0000000   0.0000000   0.0000000   0.0000000   0.0000000

  Atom        21          22          23          24          25          26          27          28          29          30
 IAtWgt=          12          12          12          12          12          12          12          14          14          12
 AtmWgt=  12.0000000  12.0000000  12.0000000  12.0000000  12.0000000  12.0000000  12.0000000  14.0030740  14.0030740  12.0000000
 NucSpn=           0           0           0           0           0           0           0           2           2           0
 AtZEff=   0.0000000   0.0000000   0.0000000   0.0000000   0.0000000   0.0000000   0.0000000   0.0000000   0.0000000   0.0000000
 NQMom=    0.0000000   0.0000000   0.0000000   0.0000000   0.0000000   0.0000000   0.0000000   2.0440000   2.0440000   0.0000000
 NMagM=    0.0000000   0.0000000   0.0000000   0.0000000   0.0000000   0.0000000   0.0000000   0.4037610   0.4037610   0.0000000

  Atom        31          32          33          34          35          36          37          38          39          40
 IAtWgt=           1           1           1           1           1           1           1           1           1           1
 AtmWgt=   1.0078250   1.0078250   1.0078250   1.0078250   1.0078250   1.0078250   1.0078250   1.0078250   1.0078250   1.0078250
 NucSpn=           1           1           1           1           1           1           1           1           1           1
 AtZEff=   0.0000000   0.0000000   0.0000000   0.0000000   0.0000000   0.0000000   0.0000000   0.0000000   0.0000000   0.0000000
 NQMom=    0.0000000   0.0000000   0.0000000   0.0000000   0.0000000   0.0000000   0.0000000   0.0000000   0.0000000   0.0000000
 NMagM=    2.7928460   2.7928460   2.7928460   2.7928460   2.7928460   2.7928460   2.7928460   2.7928460   2.7928460   2.7928460

  Atom        41          42          43          44          45          46          47          48
 IAtWgt=           1           1           1           1           1           1           1           1
 AtmWgt=   1.0078250   1.0078250   1.0078250   1.0078250   1.0078250   1.0078250   1.0078250   1.0078250
 NucSpn=           1           1           1           1           1           1           1           1
 AtZEff=   0.0000000   0.0000000   0.0000000   0.0000000   0.0000000   0.0000000   0.0000000   0.0000000
 NQMom=    0.0000000   0.0000000   0.0000000   0.0000000   0.0000000   0.0000000   0.0000000   0.0000000
 NMagM=    2.7928460   2.7928460   2.7928460   2.7928460   2.7928460   2.7928460   2.7928460   2.7928460
 Leave Link  101 at Fri Aug 26 20:57:23 2022, MaxMem=  209715200 cpu:       0.8
 (Enter /opt/gaussian/l103.exe)

 GradGradGradGradGradGradGradGradGradGradGradGradGradGradGradGradGradGrad
 Berny optimization.
 Initialization pass.
                           ----------------------------
                           !    Initial Parameters    !
                           ! (Angstroms and Degrees)  !
 --------------------------                            --------------------------
 ! Name  Definition              Value          Derivative Info.                !
 --------------------------------------------------------------------------------
 ! R1    R(1,2)                  1.2413         estimate D2E/DX2                !
 ! R2    R(2,3)                  1.5414         estimate D2E/DX2                !
 ! R3    R(2,13)                 1.4052         estimate D2E/DX2                !
 ! R4    R(3,4)                  1.4418         estimate D2E/DX2                !
 ! R5    R(3,31)                 1.1293         estimate D2E/DX2                !
 ! R6    R(3,32)                 1.126          estimate D2E/DX2                !
 ! R7    R(4,5)                  1.3744         estimate D2E/DX2                !
 ! R8    R(4,12)                 1.4158         estimate D2E/DX2                !
 ! R9    R(5,6)                  1.2548         estimate D2E/DX2                !
 ! R10   R(6,7)                  1.4325         estimate D2E/DX2                !
 ! R11   R(7,8)                  1.3944         estimate D2E/DX2                !
 ! R12   R(7,12)                 1.4486         estimate D2E/DX2                !
 ! R13   R(8,9)                  1.3905         estimate D2E/DX2                !
 ! R14   R(8,33)                 1.0995         estimate D2E/DX2                !
 ! R15   R(9,10)                 1.4046         estimate D2E/DX2                !
 ! R16   R(9,34)                 1.1004         estimate D2E/DX2                !
 ! R17   R(10,11)                1.3908         estimate D2E/DX2                !
 ! R18   R(10,35)                1.1013         estimate D2E/DX2                !
 ! R19   R(11,12)                1.3962         estimate D2E/DX2                !
 ! R20   R(11,36)                1.0971         estimate D2E/DX2                !
 ! R21   R(13,14)                1.4451         estimate D2E/DX2                !
 ! R22   R(13,20)                1.4214         estimate D2E/DX2                !
 ! R23   R(14,15)                1.4908         estimate D2E/DX2                !
 ! R24   R(14,37)                1.1308         estimate D2E/DX2                !
 ! R25   R(14,38)                1.131          estimate D2E/DX2                !
 ! R26   R(15,16)                1.4355         estimate D2E/DX2                !
 ! R27   R(15,19)                1.3807         estimate D2E/DX2                !
 ! R28   R(16,17)                1.3772         estimate D2E/DX2                !
 ! R29   R(16,39)                1.0918         estimate D2E/DX2                !
 ! R30   R(17,18)                1.6698         estimate D2E/DX2                !
 ! R31   R(17,40)                1.0888         estimate D2E/DX2                !
 ! R32   R(18,19)                1.666          estimate D2E/DX2                !
 ! R33   R(19,41)                1.0907         estimate D2E/DX2                !
 ! R34   R(20,21)                1.4099         estimate D2E/DX2                !
 ! R35   R(20,25)                1.413          estimate D2E/DX2                !
 ! R36   R(21,22)                1.3901         estimate D2E/DX2                !
 ! R37   R(21,42)                1.1015         estimate D2E/DX2                !
 ! R38   R(22,23)                1.4009         estimate D2E/DX2                !
 ! R39   R(22,43)                1.1003         estimate D2E/DX2                !
 ! R40   R(23,24)                1.4023         estimate D2E/DX2                !
 ! R41   R(23,26)                1.4384         estimate D2E/DX2                !
 ! R42   R(24,25)                1.389          estimate D2E/DX2                !
 ! R43   R(24,44)                1.1011         estimate D2E/DX2                !
 ! R44   R(25,45)                1.1018         estimate D2E/DX2                !
 ! R45   R(26,27)                1.4082         estimate D2E/DX2                !
 ! R46   R(26,30)                1.4518         estimate D2E/DX2                !
 ! R47   R(27,28)                1.3941         estimate D2E/DX2                !
 ! R48   R(27,46)                1.0887         estimate D2E/DX2                !
 ! R49   R(28,29)                1.3343         estimate D2E/DX2                !
 ! R50   R(28,48)                0.9927         estimate D2E/DX2                !
 ! R51   R(29,30)                1.3566         estimate D2E/DX2                !
 ! R52   R(30,47)                1.0903         estimate D2E/DX2                !
 ! A1    A(1,2,3)              120.987          estimate D2E/DX2                !
 ! A2    A(1,2,13)             122.0822         estimate D2E/DX2                !
 ! A3    A(3,2,13)             116.8679         estimate D2E/DX2                !
 ! A4    A(2,3,4)              113.7862         estimate D2E/DX2                !
 ! A5    A(2,3,31)             109.7933         estimate D2E/DX2                !
 ! A6    A(2,3,32)             108.341          estimate D2E/DX2                !
 ! A7    A(4,3,31)             106.8849         estimate D2E/DX2                !
 ! A8    A(4,3,32)             108.3725         estimate D2E/DX2                !
 ! A9    A(31,3,32)            109.6045         estimate D2E/DX2                !
 ! A10   A(3,4,5)              122.9564         estimate D2E/DX2                !
 ! A11   A(3,4,12)             125.3953         estimate D2E/DX2                !
 ! A12   A(5,4,12)             108.2686         estimate D2E/DX2                !
 ! A13   A(4,5,6)              112.2989         estimate D2E/DX2                !
 ! A14   A(5,6,7)              109.3659         estimate D2E/DX2                !
 ! A15   A(6,7,8)              133.2593         estimate D2E/DX2                !
 ! A16   A(6,7,12)             106.1589         estimate D2E/DX2                !
 ! A17   A(8,7,12)             120.5704         estimate D2E/DX2                !
 ! A18   A(7,8,9)              117.4014         estimate D2E/DX2                !
 ! A19   A(7,8,33)             120.9313         estimate D2E/DX2                !
 ! A20   A(9,8,33)             121.6673         estimate D2E/DX2                !
 ! A21   A(8,9,10)             121.8588         estimate D2E/DX2                !
 ! A22   A(8,9,34)             119.2947         estimate D2E/DX2                !
 ! A23   A(10,9,34)            118.8464         estimate D2E/DX2                !
 ! A24   A(9,10,11)            122.1564         estimate D2E/DX2                !
 ! A25   A(9,10,35)            118.8682         estimate D2E/DX2                !
 ! A26   A(11,10,35)           118.9754         estimate D2E/DX2                !
 ! A27   A(10,11,12)           116.9211         estimate D2E/DX2                !
 ! A28   A(10,11,36)           121.3927         estimate D2E/DX2                !
 ! A29   A(12,11,36)           121.686          estimate D2E/DX2                !
 ! A30   A(4,12,7)             103.7618         estimate D2E/DX2                !
 ! A31   A(4,12,11)            135.0169         estimate D2E/DX2                !
 ! A32   A(7,12,11)            121.0896         estimate D2E/DX2                !
 ! A33   A(2,13,14)            120.2331         estimate D2E/DX2                !
 ! A34   A(2,13,20)            119.6644         estimate D2E/DX2                !
 ! A35   A(14,13,20)           117.9229         estimate D2E/DX2                !
 ! A36   A(13,14,15)           116.653          estimate D2E/DX2                !
 ! A37   A(13,14,37)           108.7492         estimate D2E/DX2                !
 ! A38   A(13,14,38)           107.6547         estimate D2E/DX2                !
 ! A39   A(15,14,37)           107.7341         estimate D2E/DX2                !
 ! A40   A(15,14,38)           108.507          estimate D2E/DX2                !
 ! A41   A(37,14,38)           107.1751         estimate D2E/DX2                !
 ! A42   A(14,15,16)           121.2654         estimate D2E/DX2                !
 ! A43   A(14,15,19)           127.4354         estimate D2E/DX2                !
 ! A44   A(16,15,19)           111.2946         estimate D2E/DX2                !
 ! A45   A(15,16,17)           111.4125         estimate D2E/DX2                !
 ! A46   A(15,16,39)           123.0719         estimate D2E/DX2                !
 ! A47   A(17,16,39)           125.5131         estimate D2E/DX2                !
 ! A48   A(16,17,18)           111.6284         estimate D2E/DX2                !
 ! A49   A(16,17,40)           125.4052         estimate D2E/DX2                !
 ! A50   A(18,17,40)           122.9656         estimate D2E/DX2                !
 ! A51   A(17,18,19)            94.0018         estimate D2E/DX2                !
 ! A52   A(15,19,18)           111.6614         estimate D2E/DX2                !
 ! A53   A(15,19,41)           125.5051         estimate D2E/DX2                !
 ! A54   A(18,19,41)           122.8191         estimate D2E/DX2                !
 ! A55   A(13,20,21)           121.5806         estimate D2E/DX2                !
 ! A56   A(13,20,25)           119.7947         estimate D2E/DX2                !
 ! A57   A(21,20,25)           118.5451         estimate D2E/DX2                !
 ! A58   A(20,21,22)           120.4042         estimate D2E/DX2                !
 ! A59   A(20,21,42)           120.3268         estimate D2E/DX2                !
 ! A60   A(22,21,42)           119.2664         estimate D2E/DX2                !
 ! A61   A(21,22,23)           120.9932         estimate D2E/DX2                !
 ! A62   A(21,22,43)           119.5127         estimate D2E/DX2                !
 ! A63   A(23,22,43)           119.4881         estimate D2E/DX2                !
 ! A64   A(22,23,24)           118.6636         estimate D2E/DX2                !
 ! A65   A(22,23,26)           120.645          estimate D2E/DX2                !
 ! A66   A(24,23,26)           120.6912         estimate D2E/DX2                !
 ! A67   A(23,24,25)           120.9626         estimate D2E/DX2                !
 ! A68   A(23,24,44)           119.6549         estimate D2E/DX2                !
 ! A69   A(25,24,44)           119.3799         estimate D2E/DX2                !
 ! A70   A(20,25,24)           120.3769         estimate D2E/DX2                !
 ! A71   A(20,25,45)           120.1933         estimate D2E/DX2                !
 ! A72   A(24,25,45)           119.423          estimate D2E/DX2                !
 ! A73   A(23,26,27)           128.146          estimate D2E/DX2                !
 ! A74   A(23,26,30)           127.4519         estimate D2E/DX2                !
 ! A75   A(27,26,30)           104.4021         estimate D2E/DX2                !
 ! A76   A(26,27,28)           106.215          estimate D2E/DX2                !
 ! A77   A(26,27,46)           131.0082         estimate D2E/DX2                !
 ! A78   A(28,27,46)           122.7719         estimate D2E/DX2                !
 ! A79   A(27,28,29)           112.5548         estimate D2E/DX2                !
 ! A80   A(27,28,48)           127.1488         estimate D2E/DX2                !
 ! A81   A(29,28,48)           120.2961         estimate D2E/DX2                !
 ! A82   A(28,29,30)           106.7528         estimate D2E/DX2                !
 ! A83   A(26,30,29)           110.0749         estimate D2E/DX2                !
 ! A84   A(26,30,47)           127.3097         estimate D2E/DX2                !
 ! A85   A(29,30,47)           122.6086         estimate D2E/DX2                !
 ! D1    D(1,2,3,4)             28.3335         estimate D2E/DX2                !
 ! D2    D(1,2,3,31)           148.0672         estimate D2E/DX2                !
 ! D3    D(1,2,3,32)           -92.2641         estimate D2E/DX2                !
 ! D4    D(13,2,3,4)          -148.8415         estimate D2E/DX2                !
 ! D5    D(13,2,3,31)          -29.1079         estimate D2E/DX2                !
 ! D6    D(13,2,3,32)           90.5609         estimate D2E/DX2                !
 ! D7    D(1,2,13,14)          144.2635         estimate D2E/DX2                !
 ! D8    D(1,2,13,20)          -18.6163         estimate D2E/DX2                !
 ! D9    D(3,2,13,14)          -38.5948         estimate D2E/DX2                !
 ! D10   D(3,2,13,20)          158.5254         estimate D2E/DX2                !
 ! D11   D(2,3,4,5)             51.7771         estimate D2E/DX2                !
 ! D12   D(2,3,4,12)          -104.9963         estimate D2E/DX2                !
 ! D13   D(31,3,4,5)           -69.5901         estimate D2E/DX2                !
 ! D14   D(31,3,4,12)          133.6365         estimate D2E/DX2                !
 ! D15   D(32,3,4,5)           172.3571         estimate D2E/DX2                !
 ! D16   D(32,3,4,12)           15.5836         estimate D2E/DX2                !
 ! D17   D(3,4,5,6)           -164.2674         estimate D2E/DX2                !
 ! D18   D(12,4,5,6)            -4.0556         estimate D2E/DX2                !
 ! D19   D(3,4,12,7)           163.0738         estimate D2E/DX2                !
 ! D20   D(3,4,12,11)          -21.2643         estimate D2E/DX2                !
 ! D21   D(5,4,12,7)             3.4677         estimate D2E/DX2                !
 ! D22   D(5,4,12,11)          179.1296         estimate D2E/DX2                !
 ! D23   D(4,5,6,7)              2.7342         estimate D2E/DX2                !
 ! D24   D(5,6,7,8)           -179.1269         estimate D2E/DX2                !
 ! D25   D(5,6,7,12)            -0.3933         estimate D2E/DX2                !
 ! D26   D(6,7,8,9)            178.1986         estimate D2E/DX2                !
 ! D27   D(6,7,8,33)            -1.8645         estimate D2E/DX2                !
 ! D28   D(12,7,8,9)            -0.3887         estimate D2E/DX2                !
 ! D29   D(12,7,8,33)          179.5483         estimate D2E/DX2                !
 ! D30   D(6,7,12,4)            -1.9281         estimate D2E/DX2                !
 ! D31   D(6,7,12,11)         -178.3482         estimate D2E/DX2                !
 ! D32   D(8,7,12,4)           177.0007         estimate D2E/DX2                !
 ! D33   D(8,7,12,11)            0.5807         estimate D2E/DX2                !
 ! D34   D(7,8,9,10)             0.0072         estimate D2E/DX2                !
 ! D35   D(7,8,9,34)           179.9223         estimate D2E/DX2                !
 ! D36   D(33,8,9,10)         -179.9292         estimate D2E/DX2                !
 ! D37   D(33,8,9,34)           -0.0141         estimate D2E/DX2                !
 ! D38   D(8,9,10,11)            0.2127         estimate D2E/DX2                !
 ! D39   D(8,9,10,35)         -179.84           estimate D2E/DX2                !
 ! D40   D(34,9,10,11)        -179.7028         estimate D2E/DX2                !
 ! D41   D(34,9,10,35)           0.2445         estimate D2E/DX2                !
 ! D42   D(9,10,11,12)          -0.0308         estimate D2E/DX2                !
 ! D43   D(9,10,11,36)         179.7998         estimate D2E/DX2                !
 ! D44   D(35,10,11,12)       -179.978          estimate D2E/DX2                !
 ! D45   D(35,10,11,36)         -0.1473         estimate D2E/DX2                !
 ! D46   D(10,11,12,4)        -175.4321         estimate D2E/DX2                !
 ! D47   D(10,11,12,7)          -0.3539         estimate D2E/DX2                !
 ! D48   D(36,11,12,4)           4.7378         estimate D2E/DX2                !
 ! D49   D(36,11,12,7)         179.816          estimate D2E/DX2                !
 ! D50   D(2,13,14,15)         -80.3895         estimate D2E/DX2                !
 ! D51   D(2,13,14,37)          41.6353         estimate D2E/DX2                !
 ! D52   D(2,13,14,38)         157.4388         estimate D2E/DX2                !
 ! D53   D(20,13,14,15)         82.7825         estimate D2E/DX2                !
 ! D54   D(20,13,14,37)       -155.1927         estimate D2E/DX2                !
 ! D55   D(20,13,14,38)        -39.3892         estimate D2E/DX2                !
 ! D56   D(2,13,20,21)         140.4471         estimate D2E/DX2                !
 ! D57   D(2,13,20,25)         -42.844          estimate D2E/DX2                !
 ! D58   D(14,13,20,21)        -22.8237         estimate D2E/DX2                !
 ! D59   D(14,13,20,25)        153.8852         estimate D2E/DX2                !
 ! D60   D(13,14,15,16)       -157.7139         estimate D2E/DX2                !
 ! D61   D(13,14,15,19)         23.1401         estimate D2E/DX2                !
 ! D62   D(37,14,15,16)         79.7319         estimate D2E/DX2                !
 ! D63   D(37,14,15,19)        -99.4141         estimate D2E/DX2                !
 ! D64   D(38,14,15,16)        -35.9883         estimate D2E/DX2                !
 ! D65   D(38,14,15,19)        144.8656         estimate D2E/DX2                !
 ! D66   D(14,15,16,17)       -178.9359         estimate D2E/DX2                !
 ! D67   D(14,15,16,39)          1.6071         estimate D2E/DX2                !
 ! D68   D(19,15,16,17)          0.3364         estimate D2E/DX2                !
 ! D69   D(19,15,16,39)       -179.1206         estimate D2E/DX2                !
 ! D70   D(14,15,19,18)        179.0651         estimate D2E/DX2                !
 ! D71   D(14,15,19,41)         -2.2897         estimate D2E/DX2                !
 ! D72   D(16,15,19,18)         -0.1515         estimate D2E/DX2                !
 ! D73   D(16,15,19,41)        178.4937         estimate D2E/DX2                !
 ! D74   D(15,16,17,18)         -0.3737         estimate D2E/DX2                !
 ! D75   D(15,16,17,40)        179.9638         estimate D2E/DX2                !
 ! D76   D(39,16,17,18)        179.0673         estimate D2E/DX2                !
 ! D77   D(39,16,17,40)         -0.5952         estimate D2E/DX2                !
 ! D78   D(16,17,18,19)          0.2507         estimate D2E/DX2                !
 ! D79   D(40,17,18,19)        179.9228         estimate D2E/DX2                !
 ! D80   D(17,18,19,15)         -0.0523         estimate D2E/DX2                !
 ! D81   D(17,18,19,41)       -178.74           estimate D2E/DX2                !
 ! D82   D(13,20,21,22)        174.5885         estimate D2E/DX2                !
 ! D83   D(13,20,21,42)         -5.9949         estimate D2E/DX2                !
 ! D84   D(25,20,21,22)         -2.1603         estimate D2E/DX2                !
 ! D85   D(25,20,21,42)        177.2563         estimate D2E/DX2                !
 ! D86   D(13,20,25,24)       -174.5292         estimate D2E/DX2                !
 ! D87   D(13,20,25,45)          6.4206         estimate D2E/DX2                !
 ! D88   D(21,20,25,24)          2.2793         estimate D2E/DX2                !
 ! D89   D(21,20,25,45)       -176.771          estimate D2E/DX2                !
 ! D90   D(20,21,22,23)          0.2692         estimate D2E/DX2                !
 ! D91   D(20,21,22,43)        179.3811         estimate D2E/DX2                !
 ! D92   D(42,21,22,23)       -179.1535         estimate D2E/DX2                !
 ! D93   D(42,21,22,43)         -0.0417         estimate D2E/DX2                !
 ! D94   D(21,22,23,24)          1.5211         estimate D2E/DX2                !
 ! D95   D(21,22,23,26)       -178.649          estimate D2E/DX2                !
 ! D96   D(43,22,23,24)       -177.591          estimate D2E/DX2                !
 ! D97   D(43,22,23,26)          2.2389         estimate D2E/DX2                !
 ! D98   D(22,23,24,25)         -1.3995         estimate D2E/DX2                !
 ! D99   D(22,23,24,44)        179.1834         estimate D2E/DX2                !
 ! D100  D(26,23,24,25)        178.7706         estimate D2E/DX2                !
 ! D101  D(26,23,24,44)         -0.6465         estimate D2E/DX2                !
 ! D102  D(22,23,26,27)         38.1728         estimate D2E/DX2                !
 ! D103  D(22,23,26,30)       -141.8031         estimate D2E/DX2                !
 ! D104  D(24,23,26,27)       -142.0008         estimate D2E/DX2                !
 ! D105  D(24,23,26,30)         38.0234         estimate D2E/DX2                !
 ! D106  D(23,24,25,20)         -0.5091         estimate D2E/DX2                !
 ! D107  D(23,24,25,45)        178.5484         estimate D2E/DX2                !
 ! D108  D(44,24,25,20)        178.9095         estimate D2E/DX2                !
 ! D109  D(44,24,25,45)         -2.033          estimate D2E/DX2                !
 ! D110  D(23,26,27,28)        179.9676         estimate D2E/DX2                !
 ! D111  D(23,26,27,46)          0.7747         estimate D2E/DX2                !
 ! D112  D(30,26,27,28)         -0.0522         estimate D2E/DX2                !
 ! D113  D(30,26,27,46)       -179.2451         estimate D2E/DX2                !
 ! D114  D(23,26,30,29)        179.9017         estimate D2E/DX2                !
 ! D115  D(23,26,30,47)          0.8402         estimate D2E/DX2                !
 ! D116  D(27,26,30,29)         -0.0787         estimate D2E/DX2                !
 ! D117  D(27,26,30,47)       -179.1402         estimate D2E/DX2                !
 ! D118  D(26,27,28,29)          0.1735         estimate D2E/DX2                !
 ! D119  D(26,27,28,48)       -179.6301         estimate D2E/DX2                !
 ! D120  D(46,27,28,29)        179.4492         estimate D2E/DX2                !
 ! D121  D(46,27,28,48)         -0.3544         estimate D2E/DX2                !
 ! D122  D(27,28,29,30)         -0.2228         estimate D2E/DX2                !
 ! D123  D(48,28,29,30)        179.5959         estimate D2E/DX2                !
 ! D124  D(28,29,30,26)          0.1824         estimate D2E/DX2                !
 ! D125  D(28,29,30,47)        179.2963         estimate D2E/DX2                !
 --------------------------------------------------------------------------------
 Trust Radius=3.00D-01 FncErr=1.00D-07 GrdErr=1.00D-07
 Number of steps in this run=    272 maximum allowed number of steps=    288.
 GradGradGradGradGradGradGradGradGradGradGradGradGradGradGradGradGradGrad

 Leave Link  103 at Fri Aug 26 20:57:23 2022, MaxMem=  209715200 cpu:       0.1
 (Enter /opt/gaussian/l202.exe)
                          Input orientation:                          
 ---------------------------------------------------------------------
 Center     Atomic      Atomic             Coordinates (Angstroms)
 Number     Number       Type             X           Y           Z
 ---------------------------------------------------------------------
      1          8           0       20.994700   -8.369100   -2.842600
      2          6           0       21.357600   -9.022100   -1.851300
      3          6           0       22.648500   -8.659200   -1.091100
      4          7           0       22.996700   -7.262300   -1.170100
      5          7           0       22.114300   -6.253400   -0.865800
      6          7           0       22.499800   -5.138600   -1.293600
      7          6           0       23.721400   -5.306200   -2.022800
      8          6           0       24.570700   -4.417800   -2.681500
      9          6           0       25.718300   -4.943100   -3.265000
     10          6           0       26.022100   -6.313000   -3.201000
     11          6           0       25.194100   -7.225500   -2.555900
     12          6           0       24.034100   -6.719500   -1.966100
     13          7           0       20.590800  -10.079100   -1.332300
     14          6           0       21.239900  -11.245800   -0.779300
     15          6           0       21.723300  -12.266500   -1.752500
     16          6           0       21.939900  -13.629300   -1.356900
     17          6           0       22.407100  -14.389200   -2.406100
     18         16           0       22.561300  -13.484100   -3.800800
     19          6           0       22.033200  -12.075700   -3.084400
     20          6           0       19.213500  -10.180400   -1.668800
     21          6           0       18.607500  -11.425800   -1.932400
     22          6           0       17.236900  -11.509500   -2.148900
     23          6           0       16.430200  -10.364700   -2.116200
     24          6           0       17.036900   -9.120500   -1.891800
     25          6           0       18.405500   -9.021300   -1.676300
     26          6           0       15.008700  -10.463600   -2.312600
     27          6           0       14.134600  -11.466800   -1.851400
     28          7           0       12.863300  -11.111800   -2.300000
     29          7           0       12.866900   -9.978000   -3.003400
     30          6           0       14.151400   -9.542800   -3.037100
     31          1           0       22.529400   -8.906100    0.004400
     32          1           0       23.495800   -9.261200   -1.524100
     33          1           0       24.335400   -3.345100   -2.734500
     34          1           0       26.409800   -4.270100   -3.793900
     35          1           0       26.946000   -6.675600   -3.678300
     36          1           0       25.442000   -8.293500   -2.516300
     37          1           0       22.126600  -10.910500   -0.162900
     38          1           0       20.509800  -11.741600   -0.072000
     39          1           0       21.742400  -13.995200   -0.347400
     40          1           0       22.647400  -15.450100   -2.358700
     41          1           0       21.932000  -11.136800   -3.630100
     42          1           0       19.216900  -12.342200   -1.978500
     43          1           0       16.780800  -12.487500   -2.363500
     44          1           0       16.420100   -8.208500   -1.876300
     45          1           0       18.859300   -8.028500   -1.526500
     46          1           0       14.321300  -12.357700   -1.254200
     47          1           0       14.450300   -8.633900   -3.559900
     48          1           0       12.014200  -11.602100   -2.144700
 ---------------------------------------------------------------------
                    Distance matrix (angstroms):
                    1          2          3          4          5
     1  O    0.000000
     2  C    1.241282   0.000000
     3  C    2.426307   1.541435   0.000000
     4  N    2.833772   2.499516   1.441809   0.000000
     5  N    3.104421   3.034717   2.474672   1.374448   0.000000
     6  N    3.885982   4.086223   3.529553   2.184551   1.254752
     7  C    4.181904   4.407366   3.641674   2.253578   2.195133
     8  C    5.331651   5.675634   4.920742   3.585106   3.563719
     9  C    5.850495   6.136163   5.287619   4.144201   4.523479
    10  C    5.443413   5.560438   4.619254   3.765471   4.552759
    11  C    4.361763   4.294527   3.268213   2.598146   3.645077
    12  C    3.567546   3.532534   2.539281   1.415785   2.261314
    13  N    2.316947   1.405202   2.511657   3.707968   4.144232
    14  C    3.548624   2.471412   2.961735   4.371195   5.069134
    15  C    4.112044   3.266440   3.782335   5.196418   6.090689
    16  C    5.547108   4.670096   5.027391   6.456811   7.394288
    17  C    6.198952   5.496819   5.883910   7.257274   8.285499
    18  S    5.434667   5.015864   5.534414   6.769117   7.816461
    19  C    3.856920   3.361762   4.003038   5.268937   6.231207
    20  C    2.798444   2.443794   3.800922   4.803812   4.947805
    21  C    3.983793   3.653409   4.969058   6.097615   6.339480
    22  C    4.946149   4.822436   6.207138   7.223022   7.284364
    23  C    5.034356   5.113904   6.528921   7.323859   7.125678
    24  C    4.139179   4.322010   5.687176   6.284344   5.920551
    25  C    2.913688   2.957283   4.298444   4.942614   4.698231
    26  C    6.363963   6.526810   7.944461   8.681116   8.385020
    27  C    7.592048   7.625502   8.997064   9.832538   9.582618
    28  N    8.598633   8.759070  10.160060  10.898675  10.547131
    29  N    8.287071   8.621663  10.053647  10.646542  10.195900
    30  C    6.945945   7.321651   8.761756   9.323395   8.884958
    31  H    3.278579   2.197770   1.129276   2.073620   2.822476
    32  H    2.964757   2.176265   1.125971   2.090459   3.374724
    33  H    6.034280   6.471141   5.812577   4.425372   4.108958
    34  H    6.857848   7.202772   6.380964   5.242789   5.564042
    35  H    6.243742   6.330419   5.394143   4.715109   5.606580
    36  H    4.459895   4.201834   3.157305   2.975755   4.237894
    37  H    3.862733   2.647284   2.490439   3.883412   4.709862
    38  H    4.391481   3.358624   3.887646   5.239716   5.772770
    39  H    6.199845   5.209751   5.463241   6.897974   7.768045
    40  H    7.287396   6.575730   6.908193   8.280993   9.332322
    41  H    3.026359   2.822414   3.619170   4.711362   5.614462
    42  H    4.437653   3.952447   5.111541   6.383242   6.834216
    43  H    5.911659   5.763544   7.120729   8.207578   8.339864
    44  H    4.678300   5.004146   6.293857   6.681742   6.104706
    45  H    2.531415   2.708180   3.865927   4.222814   3.765970
    46  H    7.935125   7.809755   9.113055  10.061448   9.906775
    47  H    6.588916   7.126065   8.561898   8.979609   8.465332
    48  H    9.570200   9.697505  11.084181  11.849009  11.500269
                    6          7          8          9         10
     6  N    0.000000
     7  C    1.432525   0.000000
     8  C    2.595081   1.394436   0.000000
     9  C    3.779336   2.379603   1.390467   0.000000
    10  C    4.174205   2.773990   2.442995   1.404641   0.000000
    11  C    3.634254   2.477247   2.878816   2.446826   1.390825
    12  C    2.303384   1.448590   2.469324   2.771149   2.375366
    13  N    5.296633   5.749611   7.050550   7.510332   6.868375
    14  C    6.256976   6.556141   7.831614   8.121502   7.284681
    15  C    7.184741   7.246464   8.400763   8.478200   7.484784
    16  C    8.509376   8.537632   9.670957   9.662672   8.578654
    17  C    9.317717   9.185597  10.207146  10.046420   8.883980
    18  S    8.714196   8.448974   9.353519   9.121536   7.985084
    19  C    7.179696   7.057134   8.077417   8.030352   7.009539
    20  C    6.029949   6.648632   7.933014   8.502328   7.978813
    21  C    7.422058   7.975566   9.232170   9.714149   9.095403
    22  C    8.307709   8.974719  10.215698  10.784129  10.261105
    23  C    8.051636   8.874612  10.097174  10.815835  10.468888
    24  C    6.786505   7.697310   8.916118   9.731549   9.504203
    25  C    5.655538   6.494677   7.759660   8.522484   8.226311
    26  C    9.247192  10.128865  11.318994  12.086295  11.803038
    27  C   10.503991  11.396890  12.621000  13.369332  13.026731
    28  N   11.382183  12.315850  13.491419  14.291085  14.035466
    29  N   10.914943  11.857802  12.961419  13.804968  13.657619
    30  C    9.598570  10.514870  11.616966  12.449994  12.303332
    31  H    3.984939   4.299963   5.614784   6.046770   5.403491
    32  H    4.247467   3.992696   5.094459   5.159092   4.229192
    33  H    2.943172   2.174724   1.099482   2.178864   3.445433
    34  H    4.721641   3.381981   2.154423   1.100380   2.162240
    35  H    5.274264   3.874788   3.425394   2.163243   1.101311
    36  H    4.483852   3.482523   3.975865   3.444136   2.174330
    37  H    5.893436   6.116436   7.380523   7.624513   6.748480
    38  H    7.003714   7.452139   8.771456   9.140204   8.345405
    39  H    8.939145   9.067642  10.255432  10.308282   9.245272
    40  H   10.367413  10.206126  11.203344  10.984027   9.776741
    41  H    6.462200   6.307239   7.280628   7.268513   6.338935
    42  H    7.945966   8.354506   9.589239   9.933276   9.173686
    43  H    9.373259   9.992951  11.220683  11.730711  11.145738
    44  H    6.835684   7.858358   9.024967   9.952279   9.876546
    45  H    4.653924   5.594394   6.855018   7.719324   7.553317
    46  H   10.908933  11.776089  13.043366  13.744498  13.313044
    47  H    9.063536   9.969431  10.998617  11.860725  11.807707
    48  H   12.347024  13.293297  14.476464  15.277425  15.010383
                   11         12         13         14         15
    11  C    0.000000
    12  C    1.396245   0.000000
    13  N    5.552531   4.852312   0.000000
    14  C    5.912260   5.450086   1.445105   0.000000
    15  C    6.172810   6.012872   2.498768   1.490846   0.000000
    16  C    7.282587   7.245836   3.797973   2.550430   1.435493
    17  C    7.688199   7.852708   4.798849   3.726902   2.323926
    18  S    6.903006   7.162058   4.644393   3.985668   2.525931
    19  C    5.813350   5.826068   3.022711   2.575179   1.380725
    20  C    6.729484   5.941751   1.421425   2.456132   3.264646
    21  C    7.836745   7.183201   2.471275   2.879509   3.232236
    22  C    9.046289   8.317418   3.736512   4.239027   4.567052
    23  C    9.319542   8.433819   4.243425   5.069206   5.636136
    24  C    8.400712   7.398049   3.723192   4.839397   5.646155
    25  C    7.076983   6.087972   2.452104   3.713062   4.641651
    26  C   10.690503   9.777331   5.680552   6.464573   6.974956
    27  C   11.865812  10.979532   6.624024   7.189126   7.631361
    28  N   12.931258  12.007937   7.856028   8.514571   8.951686
    29  N   12.638686  11.679048   7.903254   8.755631   9.232432
    30  C   11.293478  10.333723   6.682801   7.631822   8.148767
    31  H    4.059579   3.305785   2.630754   2.784096   3.876697
    32  H    2.844804   2.635407   3.024033   3.095553   3.496534
    33  H    3.978287   3.473873   7.831663   8.707812   9.347661
    34  H    3.427092   3.870964   8.582815   9.191086   9.490680
    35  H    2.152051   3.378271   7.581299   7.864509   7.889453
    36  H    1.097108   2.182287   5.303241   5.421336   5.495166
    37  H    5.358659   4.945156   2.101762   1.130757   2.127960
    38  H    6.964739   6.421043   2.087780   1.130989   2.138266
    39  H    7.913314   7.797941   4.199053   2.828117   2.227796
    40  H    8.612120   8.848754   5.842152   4.706559   3.369977
    41  H    5.205139   5.167229   2.863116   2.935634   2.201172
    42  H    7.889292   7.404075   2.725215   2.594745   2.517707
    43  H    9.925184   9.275673   4.623837   4.892349   4.985024
    44  H    8.855011   7.758749   4.603240   5.801644   6.678819
    45  H    6.467934   5.355864   2.690867   4.071435   5.119982
    46  H   12.093456  11.253203   6.671188   7.023452   7.419314
    47  H   10.882134   9.902240   6.690033   7.787967   8.328205
    48  H   13.893649  12.974963   8.748576   9.332996   9.739706
                   16         17         18         19         20
    16  C    0.000000
    17  C    1.377151   0.000000
    18  S    2.525840   1.669782   0.000000
    19  C    2.325217   2.439708   1.666046   0.000000
    20  C    4.407431   5.334481   5.164070   3.680597   0.000000
    21  C    4.036273   4.841807   4.833224   3.672178   1.409873
    22  C    5.219102   5.923664   5.914140   4.919374   2.429805
    23  C    6.449104   7.211378   7.082296   5.937890   2.825047
    24  C    6.682425   7.540740   7.294126   5.926088   2.431194
    25  C    5.816155   6.734966   6.457612   4.946950   1.412952
    26  C    7.679619   8.375882   8.269216   7.248320   4.263218
    27  C    8.114410   8.791039   8.881381   8.017414   5.242461
    28  N    9.466357  10.091418  10.096109   9.253726   6.449105
    29  N    9.917776  10.527624  10.339728   9.403614   6.488563
    30  C    8.954512   9.593870   9.318986   8.278925   5.282389
    31  H    4.950683   5.990814   5.953037   4.453455   3.926657
    32  H    4.639944   5.315974   4.887692   3.534847   4.382232
    33  H   10.648989  11.215986  10.348128   9.035814   8.607607
    34  H   10.654276  10.970131   9.985429   8.976938   9.551672
    35  H    8.877155   9.039897   8.099153   7.324575   8.724292
    36  H    6.486885   6.810310   6.073772   5.123250   6.562992
    37  H    2.975293   4.148732   4.477354   3.146677   3.359603
    38  H    2.694358   4.007188   4.598794   3.392186   2.582152
    39  H    1.091778   2.198933   3.585776   3.355624   4.763836
    40  H    2.195330   1.088807   2.439718   3.505775   6.327509
    41  H    3.373434   3.507421   2.436180   1.090671   3.485920
    42  H    3.075344   3.814502   3.976144   3.037364   2.183874
    43  H    5.378965   5.939152   6.039307   5.317611   3.423937
    44  H    7.753905   8.621248   8.321658   6.922545   3.425570
    45  H    6.394359   7.336149   6.974297   5.374060   2.185493
    46  H    7.724673   8.416295   8.697790   7.931113   5.370861
    47  H    9.268297   9.887639   9.453613   8.341011   5.353130
    48  H   10.161185  10.763300  10.840937  10.074110   7.353750
                   21         22         23         24         25
    21  C    0.000000
    22  C    1.390116   0.000000
    23  C    2.429064   1.400857   0.000000
    24  C    2.789774   2.411104   1.402310   0.000000
    25  C    2.426523   2.789286   2.429001   1.389009   0.000000
    26  C    3.744562   2.466897   1.438408   2.468721   3.744777
    27  C    4.473821   3.116824   2.560180   3.732305   4.924603
    28  N    5.764509   4.394243   3.648934   4.642288   5.956104
    29  N    6.016449   4.708775   3.692393   4.399984   5.775167
    30  C    4.962145   3.765251   2.591622   3.133075   4.496788
    31  H    5.047909   6.278929   6.620023   5.814559   4.454725
    32  H    5.361686   6.679750   7.175723   6.470888   5.098222
    33  H    9.937299  10.834623  10.590055   9.345239   8.276639
    34  H   10.749191  11.800722  11.813181  10.723601   9.546044
    35  H    9.754135  10.953186  11.253074  10.361437   9.080223
    36  H    7.540732   8.820505   9.255403   8.468745   7.123737
    37  H    3.972497   5.311512   6.046673   5.665531   4.439149
    38  H    2.679471   3.883202   4.766313   4.716235   3.794982
    39  H    4.352199   5.451939   6.672979   6.949072   6.135190
    40  H    5.718174   6.696705   8.035775   8.471100   7.732325
    41  H    3.744063   4.937289   5.758284   5.572177   4.552898
    42  H    1.101491   2.154722   3.419819   3.890921   3.431920
    43  H    2.156360   1.100257   2.165723   3.409513   3.889272
    44  H    3.890872   3.411462   2.169528   1.101102   2.154636
    45  H    3.430715   3.890620   3.421418   2.155702   1.101829
    46  H    4.438457   3.165542   3.026971   4.273228   5.290598
    47  H    5.265527   4.245602   2.999990   3.116061   4.397913
    48  H    6.599073   5.223523   4.586178   5.608013   6.908592
                   26         27         28         29         30
    26  C    0.000000
    27  C    1.408249   0.000000
    28  N    2.241219   1.394084   0.000000
    29  N    2.302242   2.269514   1.334274   0.000000
    30  C    1.451804   2.260076   2.159694   1.356641   0.000000
    31  H    8.022171   8.970722  10.178844  10.176430   8.935714
    32  H    8.608041   9.623090  10.820203  10.755261   9.470284
    33  H   11.740459  13.068978  13.860718  13.251195  11.925473
    34  H   13.059049  14.361279  15.249533  14.717852  13.365720
    35  H   12.598143  13.799461  14.829094  14.476961  13.127595
    36  H   10.658545  11.763045  12.892373  12.696769  11.371439
    37  H    7.448854   8.187342   9.508756   9.730367   8.586934
    38  H    6.075827   6.624572   7.989343   8.373608   7.352264
    39  H    7.853466   8.156804   9.537560  10.097858   9.202262
    40  H    9.122338   9.412322  10.702939  11.225760  10.370074
    41  H    7.079625   8.004506   9.165758   9.160328   7.964309
    42  H    4.620574   5.158707   6.479620   6.852909   5.883584
    43  H    2.690558   2.882091   4.152516   4.693152   4.004839
    44  H    2.695901   3.980031   4.610802   4.126344   2.876597
    45  H    4.623287   5.852372   6.786535   6.472298   5.171010
    46  H    2.276037   1.088672   2.184429   3.292105   3.336354
    47  H    2.283718   3.323246   3.200923   2.150222   1.090303
    48  H    3.208022   2.144861   0.992715   2.025380   3.099148
                   31         32         33         34         35
    31  H    0.000000
    32  H    1.842915   0.000000
    33  H    6.456619   6.096740   0.000000
    34  H    7.139824   6.209224   2.506210   0.000000
    35  H    6.167963   4.819729   4.335692   2.467246   0.000000
    36  H    3.900314   2.389267   5.075316   4.330894   2.495969
    37  H    2.051306   2.539245   8.290187   8.696256   7.315670
    38  H    3.482051   4.144536   9.603402  10.221832   8.949549
    39  H    5.161596   5.183608  11.218134  11.324335   9.578564
    40  H    6.958599   6.302287  12.227902  11.883091   9.859572
    41  H    4.306100   3.224683   8.202988   8.199335   6.711544
    42  H    5.168301   5.292261  10.378747  10.963224   9.733379
    43  H    7.174941   7.496988  11.865627  12.739284  11.782961
    44  H    6.430181   7.162245   9.329584  10.907900  10.788492
    45  H    4.072281   4.797571   7.306242   8.733655   8.476750
    46  H    8.992804   9.686723  13.553614  14.764524  14.055091
    47  H    8.834602   9.292957  11.241347  12.732916  12.648774
    48  H   11.066006  11.734228  14.843783  16.239193  15.798132
                   36         37         38         39         40
    36  H    0.000000
    37  H    4.835190   0.000000
    38  H    6.495429   1.820174   0.000000
    39  H    7.134462   3.114004   2.583382   0.000000
    40  H    7.684501   5.069590   4.852968   2.642175   0.000000
    41  H    4.652419   3.480023   3.879241   4.356893   4.553330
    42  H    7.445339   3.716520   2.380557   3.430896   4.644559
    43  H    9.624415   5.992257   4.439908   5.563748   6.572216
    44  H    9.044971   6.542223   5.697714   8.009389   9.563093
    45  H    6.661972   4.565148   4.315881   6.730828   8.373912
    46  H   11.907165   8.012991   6.330459   7.653523   8.950240
    47  H   11.046377   8.697592   7.651195   9.604083  10.728276
    48  H   13.834404  10.327946   8.745900  10.178167  11.310077
                   41         42         43         44         45
    41  H    0.000000
    42  H    3.398903   0.000000
    43  H    5.473895   2.470611   0.000000
    44  H    6.483193   4.991995   4.321725   0.000000
    45  H    4.850582   4.352033   4.990332   2.470720   0.000000
    46  H    8.065870   4.948914   2.701210   4.691250   6.277704
    47  H    7.889567   6.242819   4.659703   2.625945   4.892904
    48  H   10.039207   7.242531   4.853069   5.567811   7.746495
                   46         47         48
    46  H    0.000000
    47  H    4.381733   0.000000
    48  H    2.585852   4.092381   0.000000
 Stoichiometry    C22H18N6OS
 Framework group  C1[X(C22H18N6OS)]
 Deg. of freedom   138
 Full point group                 C1      NOp   1
 Largest Abelian subgroup         C1      NOp   1
 Largest concise Abelian subgroup C1      NOp   1
                         Standard orientation:                         
 ---------------------------------------------------------------------
 Center     Atomic      Atomic             Coordinates (Angstroms)
 Number     Number       Type             X           Y           Z
 ---------------------------------------------------------------------
      1          8           0       -1.015470   -0.797978   -0.719363
      2          6           0       -1.064666   -0.112122    0.314059
      3          6           0       -2.386280    0.063756    1.087640
      4          7           0       -3.295980   -1.045635    0.944430
      5          7           0       -2.926465   -2.349763    1.172063
      6          7           0       -3.750313   -3.167983    0.696465
      7          6           0       -4.785376   -2.454836    0.009301
      8          6           0       -5.932871   -2.857954   -0.672757
      9          6           0       -6.748547   -1.861656   -1.197599
     10          6           0       -6.440362   -0.498814   -1.053724
     11          6           0       -5.301903   -0.064078   -0.383418
     12          6           0       -4.466784   -1.048578    0.148404
     13          7           0        0.079746    0.486555    0.867683
     14          6           0       -0.010380    1.783793    1.498064
     15          6           0       -0.014681    2.968370    0.592866
     16          6           0        0.369822    4.268284    1.065115
     17          6           0        0.269088    5.214839    0.069910
     18         16           0       -0.257464    4.544584   -1.365943
     19          6           0       -0.378048    3.005856   -0.738659
     20          6           0        1.368761    0.012770    0.501054
     21          6           0        2.446827    0.895906    0.287543
     22          6           0        3.722444    0.402020    0.039957
     23          6           0        3.965266   -0.976773   -0.008707
     24          6           0        2.887027   -1.856226    0.165752
     25          6           0        1.606622   -1.377134    0.411473
     26          6           0        5.293439   -1.479730   -0.236761
     27          6           0        6.511977   -0.971840    0.253526
     28          7           0        7.510728   -1.806231   -0.246231
     29          7           0        7.024023   -2.787658   -1.007944
     30          6           0        5.676398   -2.633195   -1.030863
     31          1           0       -2.172002    0.171881    2.191116
     32          1           0       -2.897372    0.992943    0.709214
     33          1           0       -6.176543   -3.923857   -0.788231
     34          1           0       -7.661406   -2.144838   -1.742883
     35          1           0       -7.122715    0.249242   -1.486958
     36          1           0       -5.071650    1.003719   -0.281238
     37          1           0       -0.954668    1.821350    2.118968
     38          1           0        0.862225    1.880022    2.211112
     39          1           0        0.705578    4.455659    2.086945
     40          1           0        0.503206    6.272535    0.179304
     41          1           0       -0.686766    2.146721   -1.335437
     42          1           0        2.285322    1.985342    0.305657
     43          1           0        4.551124    1.104389   -0.134778
     44          1           0        3.057061   -2.943034    0.117129
     45          1           0        0.773640   -2.090044    0.520681
     46          1           0        6.722963   -0.122773    0.901428
     47          1           0        5.018421   -3.296615   -1.592734
     48          1           0        8.487960   -1.733107   -0.087633
 ---------------------------------------------------------------------
 Rotational constants (GHZ):      0.1865663      0.0738514      0.0562997
 Leave Link  202 at Fri Aug 26 20:57:23 2022, MaxMem=  209715200 cpu:       0.0
 (Enter /opt/gaussian/l301.exe)
 Standard basis: 6-31G (6D, 7F)
 Ernie: Thresh=  0.10000D-02 Tol=  0.10000D-05 Strict=F.
 There are   310 symmetry adapted basis functions of A   symmetry.
 Integral buffers will be    131072 words long.
 Raffenetti 1 integral format.
 Two-electron integral symmetry is turned on.
   310 basis functions,   756 primitive gaussians,   310 cartesian basis functions
   108 alpha electrons      108 beta electrons
       nuclear repulsion energy      2759.4162341435 Hartrees.



 Warning!  S  atom   18 may be hypervalent but has no d functions.



 IExCor=    0 DFT=F Ex=HF Corr=None ExCW=0 ScaHFX=  1.000000
 ScaDFX=  1.000000  1.000000  1.000000  1.000000 ScalE2=  1.000000  1.000000
 IRadAn=      0 IRanWt=     -1 IRanGd=            0 ICorTp=0
 NAtoms=   48 NActive=   48 NUniq=   48 SFac= 1.00D+00 NAtFMM=   60 NAOKFM=F Big=F
 Leave Link  301 at Fri Aug 26 20:57:23 2022, MaxMem=  209715200 cpu:       0.2
 (Enter /opt/gaussian/l302.exe)
 NPDir=0 NMtPBC=     1 NCelOv=     1 NCel=       1 NClECP=     1 NCelD=      1
         NCelK=      1 NCelE2=     1 NClLst=     1 CellRange=     0.0.
 One-electron integrals computed using PRISM.
 NBasis=   310 RedAO= T  NBF=   310
 NBsUse=   310 1.00D-06 NBFU=   310
 Leave Link  302 at Fri Aug 26 20:57:23 2022, MaxMem=  209715200 cpu:       1.7
 (Enter /opt/gaussian/l303.exe)
 DipDrv:  MaxL=1.
 Leave Link  303 at Fri Aug 26 20:57:23 2022, MaxMem=  209715200 cpu:       0.4
 (Enter /opt/gaussian/l401.exe)
 Harris functional with IExCor=  205 diagonalized for initial guess.
 ExpMin= 1.17D-01 ExpMax= 2.19D+04 ExpMxC= 3.30D+03 IAcc=1 IRadAn=         1 AccDes= 0.00D+00
 HarFok:  IExCor=  205 AccDes= 0.00D+00 IRadAn=         1 IDoV= 1
 ScaDFX=  1.000000  1.000000  1.000000  1.000000
 FoFCou: FMM=F IPFlag=           0 FMFlag=      100000 FMFlg1=           0
         NFxFlg=           0 DoJE=T BraDBF=F KetDBF=T FulRan=T
         Omega=  0.000000  0.000000  1.000000  0.000000  0.000000 ICntrl=     500 IOpCl=  0
         NMat0=    1 NMatS0=    1 NMatT0=    0 NMatD0=    1 NMtDS0=    0 NMtDT0=    0
         I1Cent=           4 NGrid=           0.
 Petite list used in FoFCou.
 Harris En= -1643.03237981555    
 Initial guess orbital symmetries:
       Occupied  (A) (A) (A) (A) (A) (A) (A) (A) (A) (A) (A) (A)
                 (A) (A) (A) (A) (A) (A) (A) (A) (A) (A) (A) (A)
                 (A) (A) (A) (A) (A) (A) (A) (A) (A) (A) (A) (A)
                 (A) (A) (A) (A) (A) (A) (A) (A) (A) (A) (A) (A)
                 (A) (A) (A) (A) (A) (A) (A) (A) (A) (A) (A) (A)
                 (A) (A) (A) (A) (A) (A) (A) (A) (A) (A) (A) (A)
                 (A) (A) (A) (A) (A) (A) (A) (A) (A) (A) (A) (A)
                 (A) (A) (A) (A) (A) (A) (A) (A) (A) (A) (A) (A)
                 (A) (A) (A) (A) (A) (A) (A) (A) (A) (A) (A) (A)
       Virtual   (A) (A) (A) (A) (A) (A) (A) (A) (A) (A) (A) (A)
                 (A) (A) (A) (A) (A) (A) (A) (A) (A) (A) (A) (A)
                 (A) (A) (A) (A) (A) (A) (A) (A) (A) (A) (A) (A)
                 (A) (A) (A) (A) (A) (A) (A) (A) (A) (A) (A) (A)
                 (A) (A) (A) (A) (A) (A) (A) (A) (A) (A) (A) (A)
                 (A) (A) (A) (A) (A) (A) (A) (A) (A) (A) (A) (A)
                 (A) (A) (A) (A) (A) (A) (A) (A) (A) (A) (A) (A)
                 (A) (A) (A) (A) (A) (A) (A) (A) (A) (A) (A) (A)
                 (A) (A) (A) (A) (A) (A) (A) (A) (A) (A) (A) (A)
                 (A) (A) (A) (A) (A) (A) (A) (A) (A) (A) (A) (A)
                 (A) (A) (A) (A) (A) (A) (A) (A) (A) (A) (A) (A)
                 (A) (A) (A) (A) (A) (A) (A) (A) (A) (A) (A) (A)
                 (A) (A) (A) (A) (A) (A) (A) (A) (A) (A) (A) (A)
                 (A) (A) (A) (A) (A) (A) (A) (A) (A) (A) (A) (A)
                 (A) (A) (A) (A) (A) (A) (A) (A) (A) (A) (A) (A)
                 (A) (A) (A) (A) (A) (A) (A) (A) (A) (A) (A) (A)
                 (A) (A) (A) (A) (A) (A) (A) (A) (A) (A)
 The electronic state of the initial guess is 1-A.
 Leave Link  401 at Fri Aug 26 20:57:23 2022, MaxMem=  209715200 cpu:       4.0
 (Enter /opt/gaussian/l502.exe)
 Closed shell SCF:
 Requested convergence on RMS density matrix=1.00D-08 within 128 cycles.
 Requested convergence on MAX density matrix=1.00D-06.
 Requested convergence on             energy=1.00D-06.
 No special actions if energy rises.
 Using DIIS extrapolation, IDIIS=  1040.
 Integral symmetry usage will be decided dynamically.
 IEnd=      311319 IEndB=      311319 NGot=   209715200 MDV=   209516932
 LenX=   209516932 LenY=   209420391
 Fock matrices will be formed incrementally for  20 cycles.
 Integral accuracy reduced to 1.0D-05 until final iterations.

 Cycle   1  Pass 0  IDiag  1:
 FoFCou: FMM=F IPFlag=           0 FMFlag=      100000 FMFlg1=           0
         NFxFlg=           0 DoJE=F BraDBF=F KetDBF=F FulRan=T
         Omega=  0.000000  0.000000  1.000000  0.000000  0.000000 ICntrl=       0 IOpCl=  0
         NMat0=    1 NMatS0=    1 NMatT0=    0 NMatD0=    1 NMtDS0=    0 NMtDT0=    0
         I1Cent=           0 NGrid=           0.
 Symmetry not used in FoFCou.
 E= -1641.00951681674    
 DIIS: error= 4.59D-02 at cycle   1 NSaved=   1.
 NSaved= 1 IEnMin= 1 EnMin= -1641.00951681674     IErMin= 1 ErrMin= 4.59D-02
 ErrMax= 4.59D-02 EMaxC= 1.00D-01 BMatC= 1.06D+00 BMatP= 1.06D+00
 IDIUse=3 WtCom= 5.41D-01 WtEn= 4.59D-01
 Coeff-Com:  0.100D+01
 Coeff-En:   0.100D+01
 Coeff:      0.100D+01
 Gap=     0.407 Goal=   None    Shift=    0.000
 GapD=    0.407 DampG=2.000 DampE=0.500 DampFc=1.0000 IDamp=-1.
 RMSDP=6.22D-03 MaxDP=1.57D-01              OVMax= 2.02D-01

 Cycle   2  Pass 0  IDiag  1:
 RMSU=  4.36D-03    CP:  9.71D-01
 E= -1641.71153651738     Delta-E=       -0.702019700640 Rises=F Damp=F
 DIIS: error= 2.24D-02 at cycle   2 NSaved=   2.
 NSaved= 2 IEnMin= 2 EnMin= -1641.71153651738     IErMin= 2 ErrMin= 2.24D-02
 ErrMax= 2.24D-02 EMaxC= 1.00D-01 BMatC= 2.17D-01 BMatP= 1.06D+00
 IDIUse=3 WtCom= 7.76D-01 WtEn= 2.24D-01
 Coeff-Com:  0.266D+00 0.734D+00
 Coeff-En:   0.000D+00 0.100D+01
 Coeff:      0.206D+00 0.794D+00
 Gap=     0.426 Goal=   None    Shift=    0.000
 RMSDP=2.98D-03 MaxDP=8.16D-02 DE=-7.02D-01 OVMax= 1.00D-01

 Cycle   3  Pass 0  IDiag  1:
 RMSU=  1.80D-03    CP:  9.72D-01  7.51D-01
 E= -1641.89672017936     Delta-E=       -0.185183661975 Rises=F Damp=F
 DIIS: error= 1.08D-02 at cycle   3 NSaved=   3.
 NSaved= 3 IEnMin= 3 EnMin= -1641.89672017936     IErMin= 3 ErrMin= 1.08D-02
 ErrMax= 1.08D-02 EMaxC= 1.00D-01 BMatC= 3.30D-02 BMatP= 2.17D-01
 IDIUse=3 WtCom= 8.92D-01 WtEn= 1.08D-01
 Coeff-Com:  0.549D-02 0.266D+00 0.728D+00
 Coeff-En:   0.000D+00 0.000D+00 0.100D+01
 Coeff:      0.490D-02 0.238D+00 0.757D+00
 Gap=     0.382 Goal=   None    Shift=    0.000
 RMSDP=8.99D-04 MaxDP=2.86D-02 DE=-1.85D-01 OVMax= 3.65D-02

 Cycle   4  Pass 0  IDiag  1:
 RMSU=  3.82D-04    CP:  9.72D-01  8.51D-01  8.57D-01
 E= -1641.92781675344     Delta-E=       -0.031096574080 Rises=F Damp=F
 DIIS: error= 3.11D-03 at cycle   4 NSaved=   4.
 NSaved= 4 IEnMin= 4 EnMin= -1641.92781675344     IErMin= 4 ErrMin= 3.11D-03
 ErrMax= 3.11D-03 EMaxC= 1.00D-01 BMatC= 3.06D-03 BMatP= 3.30D-02
 IDIUse=3 WtCom= 9.69D-01 WtEn= 3.11D-02
 Coeff-Com: -0.145D-01 0.247D-01 0.276D+00 0.714D+00
 Coeff-En:   0.000D+00 0.000D+00 0.000D+00 0.100D+01
 Coeff:     -0.141D-01 0.239D-01 0.267D+00 0.723D+00
 Gap=     0.375 Goal=   None    Shift=    0.000
 RMSDP=2.81D-04 MaxDP=9.36D-03 DE=-3.11D-02 OVMax= 1.14D-02

 Cycle   5  Pass 0  IDiag  1:
 RMSU=  1.38D-04    CP:  9.71D-01  8.46D-01  9.20D-01  7.87D-01
 E= -1641.93092222091     Delta-E=       -0.003105467472 Rises=F Damp=F
 DIIS: error= 9.90D-04 at cycle   5 NSaved=   5.
 NSaved= 5 IEnMin= 5 EnMin= -1641.93092222091     IErMin= 5 ErrMin= 9.90D-04
 ErrMax= 9.90D-04 EMaxC= 1.00D-01 BMatC= 1.46D-04 BMatP= 3.06D-03
 IDIUse=3 WtCom= 9.90D-01 WtEn= 9.90D-03
 Coeff-Com: -0.189D-02-0.174D-01-0.117D-01 0.935D-01 0.937D+00
 Coeff-En:   0.000D+00 0.000D+00 0.000D+00 0.000D+00 0.100D+01
 Coeff:     -0.187D-02-0.172D-01-0.116D-01 0.926D-01 0.938D+00
 Gap=     0.376 Goal=   None    Shift=    0.000
 RMSDP=1.05D-04 MaxDP=4.95D-03 DE=-3.11D-03 OVMax= 5.26D-03

 Cycle   6  Pass 0  IDiag  1:
 RMSU=  5.23D-05    CP:  9.71D-01  8.46D-01  9.41D-01  8.65D-01  1.14D+00
 E= -1641.93131628696     Delta-E=       -0.000394066050 Rises=F Damp=F
 DIIS: error= 4.60D-04 at cycle   6 NSaved=   6.
 NSaved= 6 IEnMin= 6 EnMin= -1641.93131628696     IErMin= 6 ErrMin= 4.60D-04
 ErrMax= 4.60D-04 EMaxC= 1.00D-01 BMatC= 3.69D-05 BMatP= 1.46D-04
 IDIUse=3 WtCom= 9.95D-01 WtEn= 4.60D-03
 Coeff-Com:  0.287D-02-0.967D-02-0.590D-01-0.159D+00 0.127D+00 0.110D+01
 Coeff-En:   0.000D+00 0.000D+00 0.000D+00 0.000D+00 0.000D+00 0.100D+01
 Coeff:      0.286D-02-0.962D-02-0.587D-01-0.158D+00 0.127D+00 0.110D+01
 Gap=     0.376 Goal=   None    Shift=    0.000
 RMSDP=7.14D-05 MaxDP=2.81D-03 DE=-3.94D-04 OVMax= 6.18D-03

 Cycle   7  Pass 0  IDiag  1:
 RMSU=  2.09D-05    CP:  9.71D-01  8.45D-01  9.53D-01  8.88D-01  1.41D+00
                    CP:  1.31D+00
 E= -1641.93145198050     Delta-E=       -0.000135693546 Rises=F Damp=F
 DIIS: error= 2.70D-04 at cycle   7 NSaved=   7.
 NSaved= 7 IEnMin= 7 EnMin= -1641.93145198050     IErMin= 7 ErrMin= 2.70D-04
 ErrMax= 2.70D-04 EMaxC= 1.00D-01 BMatC= 4.44D-06 BMatP= 3.69D-05
 IDIUse=3 WtCom= 9.97D-01 WtEn= 2.70D-03
 Coeff-Com:  0.219D-03 0.194D-02 0.382D-02-0.160D-01-0.113D+00 0.222D-03
 Coeff-Com:  0.112D+01
 Coeff-En:   0.000D+00 0.000D+00 0.000D+00 0.000D+00 0.000D+00 0.000D+00
 Coeff-En:   0.100D+01
 Coeff:      0.219D-03 0.194D-02 0.381D-02-0.160D-01-0.113D+00 0.222D-03
 Coeff:      0.112D+01
 Gap=     0.376 Goal=   None    Shift=    0.000
 RMSDP=2.44D-05 MaxDP=9.71D-04 DE=-1.36D-04 OVMax= 1.76D-03

 Cycle   8  Pass 0  IDiag  1:
 RMSU=  7.00D-06    CP:  9.71D-01  8.44D-01  9.55D-01  8.92D-01  1.47D+00
                    CP:  1.49D+00  1.36D+00
 E= -1641.93146930347     Delta-E=       -0.000017322965 Rises=F Damp=F
 DIIS: error= 4.95D-05 at cycle   8 NSaved=   8.
 NSaved= 8 IEnMin= 8 EnMin= -1641.93146930347     IErMin= 8 ErrMin= 4.95D-05
 ErrMax= 4.95D-05 EMaxC= 1.00D-01 BMatC= 7.91D-07 BMatP= 4.44D-06
 IDIUse=1 WtCom= 1.00D+00 WtEn= 0.00D+00
 Coeff-Com: -0.550D-03 0.233D-02 0.137D-01 0.286D-01-0.402D-01-0.234D+00
 Coeff-Com:  0.186D+00 0.104D+01
 Coeff:     -0.550D-03 0.233D-02 0.137D-01 0.286D-01-0.402D-01-0.234D+00
 Coeff:      0.186D+00 0.104D+01
 Gap=     0.376 Goal=   None    Shift=    0.000
 RMSDP=1.07D-05 MaxDP=3.99D-04 DE=-1.73D-05 OVMax= 7.45D-04

 Cycle   9  Pass 0  IDiag  1:
 RMSU=  2.80D-06    CP:  9.71D-01  8.44D-01  9.55D-01  8.92D-01  1.49D+00
                    CP:  1.56D+00  1.59D+00  1.21D+00
 E= -1641.93147187691     Delta-E=       -0.000002573443 Rises=F Damp=F
 DIIS: error= 1.94D-05 at cycle   9 NSaved=   9.
 NSaved= 9 IEnMin= 9 EnMin= -1641.93147187691     IErMin= 9 ErrMin= 1.94D-05
 ErrMax= 1.94D-05 EMaxC= 1.00D-01 BMatC= 6.82D-08 BMatP= 7.91D-07
 IDIUse=1 WtCom= 1.00D+00 WtEn= 0.00D+00
 Coeff-Com: -0.194D-04-0.669D-04 0.947D-04 0.835D-03 0.905D-02-0.686D-02
 Coeff-Com: -0.691D-01 0.311D-02 0.106D+01
 Coeff:     -0.194D-04-0.669D-04 0.947D-04 0.835D-03 0.905D-02-0.686D-02
 Coeff:     -0.691D-01 0.311D-02 0.106D+01
 Gap=     0.376 Goal=   None    Shift=    0.000
 RMSDP=2.36D-06 MaxDP=4.46D-05 DE=-2.57D-06 OVMax= 2.32D-04

 Initial convergence to 1.0D-05 achieved.  Increase integral accuracy.
 Cycle  10  Pass 1  IDiag  1:
 E= -1641.93147764287     Delta-E=       -0.000005765963 Rises=F Damp=F
 DIIS: error= 9.84D-05 at cycle   1 NSaved=   1.
 NSaved= 1 IEnMin= 1 EnMin= -1641.93147764287     IErMin= 1 ErrMin= 9.84D-05
 ErrMax= 9.84D-05 EMaxC= 1.00D-01 BMatC= 1.31D-06 BMatP= 1.31D-06
 IDIUse=1 WtCom= 1.00D+00 WtEn= 0.00D+00
 Coeff-Com:  0.100D+01
 Coeff:      0.100D+01
 Gap=     0.376 Goal=   None    Shift=    0.000
 RMSDP=2.36D-06 MaxDP=4.46D-05 DE=-5.77D-06 OVMax= 1.26D-04

 Cycle  11  Pass 1  IDiag  1:
 RMSU=  4.03D-05    CP:  1.00D+00
 E= -1641.93147901148     Delta-E=       -0.000001368609 Rises=F Damp=F
 DIIS: error= 8.70D-06 at cycle   2 NSaved=   2.
 NSaved= 2 IEnMin= 2 EnMin= -1641.93147901148     IErMin= 2 ErrMin= 8.70D-06
 ErrMax= 8.70D-06 EMaxC= 1.00D-01 BMatC= 1.37D-08 BMatP= 1.31D-06
 IDIUse=1 WtCom= 1.00D+00 WtEn= 0.00D+00
 Coeff-Com: -0.358D-01 0.104D+01
 Coeff:     -0.358D-01 0.104D+01
 Gap=     0.376 Goal=   None    Shift=    0.000
 RMSDP=3.30D-06 MaxDP=6.57D-05 DE=-1.37D-06 OVMax= 7.18D-05

 Cycle  12  Pass 1  IDiag  1:
 RMSU=  7.91D-07    CP:  1.00D+00  1.05D+00
 E= -1641.93147904031     Delta-E=       -0.000000028829 Rises=F Damp=F
 DIIS: error= 7.26D-06 at cycle   3 NSaved=   3.
 NSaved= 3 IEnMin= 3 EnMin= -1641.93147904031     IErMin= 3 ErrMin= 7.26D-06
 ErrMax= 7.26D-06 EMaxC= 1.00D-01 BMatC= 8.02D-09 BMatP= 1.37D-08
 IDIUse=1 WtCom= 1.00D+00 WtEn= 0.00D+00
 Coeff-Com: -0.228D-01 0.437D+00 0.586D+00
 Coeff:     -0.228D-01 0.437D+00 0.586D+00
 Gap=     0.376 Goal=   None    Shift=    0.000
 RMSDP=3.99D-07 MaxDP=8.91D-06 DE=-2.88D-08 OVMax= 2.68D-05

 Cycle  13  Pass 1  IDiag  1:
 RMSU=  2.74D-07    CP:  1.00D+00  1.06D+00  9.43D-01
 E= -1641.93147905144     Delta-E=       -0.000000011126 Rises=F Damp=F
 DIIS: error= 3.78D-06 at cycle   4 NSaved=   4.
 NSaved= 4 IEnMin= 4 EnMin= -1641.93147905144     IErMin= 4 ErrMin= 3.78D-06
 ErrMax= 3.78D-06 EMaxC= 1.00D-01 BMatC= 1.29D-09 BMatP= 8.02D-09
 IDIUse=1 WtCom= 1.00D+00 WtEn= 0.00D+00
 Coeff-Com:  0.222D-01-0.519D+00-0.450D+00 0.195D+01
 Coeff:      0.222D-01-0.519D+00-0.450D+00 0.195D+01
 Gap=     0.376 Goal=   None    Shift=    0.000
 RMSDP=5.40D-07 MaxDP=1.22D-05 DE=-1.11D-08 OVMax= 6.97D-05

 Cycle  14  Pass 1  IDiag  1:
 RMSU=  2.15D-07    CP:  1.00D+00  1.06D+00  1.19D+00  1.88D+00
 E= -1641.93147906059     Delta-E=       -0.000000009152 Rises=F Damp=F
 DIIS: error= 1.23D-06 at cycle   5 NSaved=   5.
 NSaved= 5 IEnMin= 5 EnMin= -1641.93147906059     IErMin= 5 ErrMin= 1.23D-06
 ErrMax= 1.23D-06 EMaxC= 1.00D-01 BMatC= 1.81D-10 BMatP= 1.29D-09
 IDIUse=1 WtCom= 1.00D+00 WtEn= 0.00D+00
 Coeff-Com:  0.732D-02-0.155D+00-0.190D+00 0.323D+00 0.102D+01
 Coeff:      0.732D-02-0.155D+00-0.190D+00 0.323D+00 0.102D+01
 Gap=     0.376 Goal=   None    Shift=    0.000
 RMSDP=1.78D-07 MaxDP=4.49D-06 DE=-9.15D-09 OVMax= 2.38D-05

 Cycle  15  Pass 1  IDiag  1:
 RMSU=  5.31D-08    CP:  1.00D+00  1.06D+00  1.23D+00  2.17D+00  1.35D+00
 E= -1641.93147906143     Delta-E=       -0.000000000843 Rises=F Damp=F
 DIIS: error= 4.65D-07 at cycle   6 NSaved=   6.
 NSaved= 6 IEnMin= 6 EnMin= -1641.93147906143     IErMin= 6 ErrMin= 4.65D-07
 ErrMax= 4.65D-07 EMaxC= 1.00D-01 BMatC= 2.34D-11 BMatP= 1.81D-10
 IDIUse=1 WtCom= 1.00D+00 WtEn= 0.00D+00
 Coeff-Com: -0.198D-02 0.500D-01 0.278D-01-0.237D+00 0.235D+00 0.926D+00
 Coeff:     -0.198D-02 0.500D-01 0.278D-01-0.237D+00 0.235D+00 0.926D+00
 Gap=     0.376 Goal=   None    Shift=    0.000
 RMSDP=5.17D-08 MaxDP=1.39D-06 DE=-8.43D-10 OVMax= 5.79D-06

 Cycle  16  Pass 1  IDiag  1:
 RMSU=  1.84D-08    CP:  1.00D+00  1.06D+00  1.23D+00  2.22D+00  1.47D+00
                    CP:  1.04D+00
 E= -1641.93147906154     Delta-E=       -0.000000000110 Rises=F Damp=F
 DIIS: error= 1.04D-07 at cycle   7 NSaved=   7.
 NSaved= 7 IEnMin= 7 EnMin= -1641.93147906154     IErMin= 7 ErrMin= 1.04D-07
 ErrMax= 1.04D-07 EMaxC= 1.00D-01 BMatC= 3.60D-12 BMatP= 2.34D-11
 IDIUse=1 WtCom= 1.00D+00 WtEn= 0.00D+00
 Coeff-Com: -0.873D-03 0.191D-01 0.212D-01-0.523D-01-0.872D-01 0.714D-01
 Coeff-Com:  0.103D+01
 Coeff:     -0.873D-03 0.191D-01 0.212D-01-0.523D-01-0.872D-01 0.714D-01
 Coeff:      0.103D+01
 Gap=     0.376 Goal=   None    Shift=    0.000
 RMSDP=1.76D-08 MaxDP=4.14D-07 DE=-1.10D-10 OVMax= 1.75D-06

 Cycle  17  Pass 1  IDiag  1:
 RMSU=  7.58D-09    CP:  1.00D+00  1.06D+00  1.23D+00  2.23D+00  1.50D+00
                    CP:  1.15D+00  1.31D+00
 E= -1641.93147906156     Delta-E=       -0.000000000019 Rises=F Damp=F
 DIIS: error= 1.13D-07 at cycle   8 NSaved=   8.
 NSaved= 8 IEnMin= 8 EnMin= -1641.93147906156     IErMin= 7 ErrMin= 1.04D-07
 ErrMax= 1.13D-07 EMaxC= 1.00D-01 BMatC= 8.48D-13 BMatP= 3.60D-12
 IDIUse=1 WtCom= 1.00D+00 WtEn= 0.00D+00
 Coeff-Com:  0.406D-03-0.111D-01-0.292D-02 0.635D-01-0.975D-01-0.272D+00
 Coeff-Com:  0.258D+00 0.106D+01
 Coeff:      0.406D-03-0.111D-01-0.292D-02 0.635D-01-0.975D-01-0.272D+00
 Coeff:      0.258D+00 0.106D+01
 Gap=     0.376 Goal=   None    Shift=    0.000
 RMSDP=9.65D-09 MaxDP=2.39D-07 DE=-1.91D-11 OVMax= 1.12D-06

 SCF Done:  E(RHF) =  -1641.93147906     A.U. after   17 cycles
             Convg  =    0.9647D-08             -V/T =  2.0000
 KE= 1.641871112047D+03 PE=-9.370055813875D+03 EE= 3.326836988623D+03
 Leave Link  502 at Fri Aug 26 20:58:28 2022, MaxMem=  209715200 cpu:     516.7
 (Enter /opt/gaussian/l601.exe)
 Copying SCF densities to generalized density rwf, IOpCl= 0 IROHF=0.

 **********************************************************************

            Population analysis using the SCF density.

 **********************************************************************

 Orbital symmetries:
       Occupied  (A) (A) (A) (A) (A) (A) (A) (A) (A) (A) (A) (A)
                 (A) (A) (A) (A) (A) (A) (A) (A) (A) (A) (A) (A)
                 (A) (A) (A) (A) (A) (A) (A) (A) (A) (A) (A) (A)
                 (A) (A) (A) (A) (A) (A) (A) (A) (A) (A) (A) (A)
                 (A) (A) (A) (A) (A) (A) (A) (A) (A) (A) (A) (A)
                 (A) (A) (A) (A) (A) (A) (A) (A) (A) (A) (A) (A)
                 (A) (A) (A) (A) (A) (A) (A) (A) (A) (A) (A) (A)
                 (A) (A) (A) (A) (A) (A) (A) (A) (A) (A) (A) (A)
                 (A) (A) (A) (A) (A) (A) (A) (A) (A) (A) (A) (A)
       Virtual   (A) (A) (A) (A) (A) (A) (A) (A) (A) (A) (A) (A)
                 (A) (A) (A) (A) (A) (A) (A) (A) (A) (A) (A) (A)
                 (A) (A) (A) (A) (A) (A) (A) (A) (A) (A) (A) (A)
                 (A) (A) (A) (A) (A) (A) (A) (A) (A) (A) (A) (A)
                 (A) (A) (A) (A) (A) (A) (A) (A) (A) (A) (A) (A)
                 (A) (A) (A) (A) (A) (A) (A) (A) (A) (A) (A) (A)
                 (A) (A) (A) (A) (A) (A) (A) (A) (A) (A) (A) (A)
                 (A) (A) (A) (A) (A) (A) (A) (A) (A) (A) (A) (A)
                 (A) (A) (A) (A) (A) (A) (A) (A) (A) (A) (A) (A)
                 (A) (A) (A) (A) (A) (A) (A) (A) (A) (A) (A) (A)
                 (A) (A) (A) (A) (A) (A) (A) (A) (A) (A) (A) (A)
                 (A) (A) (A) (A) (A) (A) (A) (A) (A) (A) (A) (A)
                 (A) (A) (A) (A) (A) (A) (A) (A) (A) (A) (A) (A)
                 (A) (A) (A) (A) (A) (A) (A) (A) (A) (A) (A) (A)
                 (A) (A) (A) (A) (A) (A) (A) (A) (A) (A) (A) (A)
                 (A) (A) (A) (A) (A) (A) (A) (A) (A) (A) (A) (A)
                 (A) (A) (A) (A) (A) (A) (A) (A) (A) (A)
 The electronic state is 1-A.
 Alpha  occ. eigenvalues --  -91.99037 -20.56448 -15.67540 -15.66144 -15.64629
 Alpha  occ. eigenvalues --  -15.62795 -15.62018 -15.60622 -11.40004 -11.33193
 Alpha  occ. eigenvalues --  -11.31289 -11.31205 -11.29562 -11.29069 -11.28686
 Alpha  occ. eigenvalues --  -11.28605 -11.28094 -11.27075 -11.26883 -11.26855
 Alpha  occ. eigenvalues --  -11.26684 -11.26568 -11.26383 -11.25488 -11.25173
 Alpha  occ. eigenvalues --  -11.24768 -11.24714 -11.24524 -11.24348 -11.24224
 Alpha  occ. eigenvalues --   -9.01425  -6.69579  -6.69407  -6.69125  -1.46900
 Alpha  occ. eigenvalues --   -1.41586  -1.38528  -1.28601  -1.24911  -1.22170
 Alpha  occ. eigenvalues --   -1.17507  -1.16191  -1.09633  -1.08272  -1.06087
 Alpha  occ. eigenvalues --   -1.05453  -1.04887  -1.02541  -1.02121  -1.01143
 Alpha  occ. eigenvalues --   -0.99301  -0.94338  -0.89224  -0.88017  -0.85131
 Alpha  occ. eigenvalues --   -0.84214  -0.82468  -0.81272  -0.78839  -0.78428
 Alpha  occ. eigenvalues --   -0.76764  -0.75692  -0.73858  -0.72931  -0.72329
 Alpha  occ. eigenvalues --   -0.71888  -0.70866  -0.68132  -0.65929  -0.65431
 Alpha  occ. eigenvalues --   -0.64782  -0.64629  -0.63125  -0.62820  -0.62122
 Alpha  occ. eigenvalues --   -0.62002  -0.61134  -0.60201  -0.59760  -0.58901
 Alpha  occ. eigenvalues --   -0.58529  -0.57738  -0.56583  -0.56346  -0.55246
 Alpha  occ. eigenvalues --   -0.54204  -0.53940  -0.53665  -0.52968  -0.52319
 Alpha  occ. eigenvalues --   -0.51373  -0.50916  -0.50032  -0.49437  -0.48696
 Alpha  occ. eigenvalues --   -0.45892  -0.44661  -0.43181  -0.42528  -0.41828
 Alpha  occ. eigenvalues --   -0.37130  -0.36048  -0.34928  -0.34532  -0.34219
 Alpha  occ. eigenvalues --   -0.33785  -0.32928  -0.28659
 Alpha virt. eigenvalues --    0.08930   0.10605   0.11239   0.13939   0.13994
 Alpha virt. eigenvalues --    0.15034   0.16870   0.18473   0.19130   0.19246
 Alpha virt. eigenvalues --    0.20917   0.22683   0.23004   0.23858   0.24128
 Alpha virt. eigenvalues --    0.24407   0.25047   0.25384   0.26170   0.27061
 Alpha virt. eigenvalues --    0.28191   0.28242   0.29212   0.29837   0.30131
 Alpha virt. eigenvalues --    0.31133   0.31668   0.32874   0.33084   0.34019
 Alpha virt. eigenvalues --    0.35197   0.35757   0.36337   0.37237   0.37821
 Alpha virt. eigenvalues --    0.38707   0.39163   0.41177   0.41886   0.42696
 Alpha virt. eigenvalues --    0.43345   0.43716   0.45195   0.46106   0.46502
 Alpha virt. eigenvalues --    0.46839   0.47753   0.48933   0.49732   0.50911
 Alpha virt. eigenvalues --    0.51878   0.52509   0.53284   0.55293   0.56009
 Alpha virt. eigenvalues --    0.56045   0.56934   0.57363   0.59507   0.61667
 Alpha virt. eigenvalues --    0.63773   0.63875   0.65495   0.66996   0.70695
 Alpha virt. eigenvalues --    0.71859   0.72950   0.73129   0.73939   0.74460
[...]
    21  C   -0.034965   0.007987   0.000399  -0.000006  -0.000001  -0.000118
    22  C   -0.050066  -0.043124  -0.003993   0.000109  -0.000125   0.002028
    23  C   -0.047629   0.250312  -0.070973   0.012294   0.011371  -0.016910
    24  C    0.481010  -0.033763   0.002738  -0.000268  -0.000129  -0.002985
    25  C    4.950544   0.007831  -0.000104   0.000000  -0.000006   0.000185
    26  C    0.007831   5.262105   0.464645   0.033067  -0.041198   0.436796
    27  C   -0.000104   0.464645   5.190969   0.029643  -0.168684  -0.021640
    28  N    0.000000   0.033067   0.029643   7.358523   0.215582  -0.272363
    29  N   -0.000006  -0.041198  -0.168684   0.215582   6.816737   0.465799
    30  C    0.000185   0.436796  -0.021640  -0.272363   0.465799   4.937329
    31  H    0.000048   0.000000   0.000000   0.000000   0.000000   0.000000
    32  H   -0.000013   0.000000   0.000000   0.000000   0.000000   0.000000
    33  H    0.000000   0.000000   0.000000   0.000000   0.000000   0.000000
    34  H    0.000000   0.000000   0.000000   0.000000   0.000000   0.000000
    35  H    0.000000   0.000000   0.000000   0.000000   0.000000   0.000000
    36  H    0.000000   0.000000   0.000000   0.000000   0.000000   0.000000
    37  H    0.000093   0.000000   0.000000   0.000000   0.000000   0.000000
    38  H    0.000658   0.000000   0.000000   0.000000   0.000000   0.000000
    39  H    0.000000   0.000000   0.000000   0.000000   0.000000   0.000000
    40  H    0.000000   0.000000   0.000000   0.000000   0.000000   0.000000
    41  H   -0.000001   0.000000   0.000000   0.000000   0.000000   0.000000
    42  H    0.002186  -0.000145  -0.000003   0.000000   0.000000   0.000001
    43  H    0.000372   0.000891   0.001989  -0.000005   0.000007   0.000118
    44  H   -0.016485  -0.000112   0.000026   0.000004   0.000018   0.001750
    45  H    0.368861  -0.000140   0.000001   0.000000   0.000000  -0.000002
    46  H    0.000001  -0.011219   0.370995  -0.032837   0.001673   0.002771
    47  H   -0.000008  -0.030533   0.002322   0.003987  -0.029027   0.386502
    48  H    0.000000   0.003116  -0.022212   0.337485  -0.024885   0.003747
             31         32         33         34         35         36
     1  O    0.001358   0.001369   0.000000   0.000000   0.000000   0.000447
     2  C   -0.040266  -0.048516   0.000000   0.000000   0.000000   0.000139
     3  C    0.390804   0.397646   0.000001   0.000000   0.000001  -0.000081
     4  N   -0.038053  -0.043411  -0.000109  -0.000006  -0.000101  -0.002955
     5  N    0.008962   0.001402  -0.000085   0.000002   0.000001  -0.000004
     6  N    0.000015  -0.000136   0.001107  -0.000066  -0.000004  -0.000101
     7  C   -0.000195   0.000088  -0.020323   0.002802   0.000468   0.000832
     8  C   -0.000003  -0.000005   0.361785  -0.020124   0.002343   0.000170
     9  C    0.000000  -0.000001  -0.020645   0.374897  -0.024400   0.002022
    10  C    0.000001  -0.000020   0.002064  -0.026282   0.373814  -0.015671
    11  C    0.000042  -0.000259   0.000022   0.002608  -0.022715   0.371336
    12  C    0.003901   0.001091   0.003152   0.000372   0.002795  -0.031713
    13  N    0.004529   0.004234   0.000000   0.000000   0.000000  -0.000013
    14  C   -0.003421  -0.002864   0.000000   0.000000   0.000000  -0.000005
    15  C    0.000098   0.005239   0.000000   0.000000   0.000000   0.000033
    16  C   -0.000032   0.000022   0.000000   0.000000   0.000000  -0.000001
    17  C   -0.000003  -0.000123   0.000000   0.000000   0.000000  -0.000002
    18  S    0.000001  -0.000313   0.000000   0.000000   0.000000   0.000066
    19  C    0.000099   0.002827   0.000000   0.000000   0.000000   0.000490
    20  C   -0.000183  -0.000161   0.000000   0.000000   0.000000   0.000000
    21  C   -0.000007   0.000018   0.000000   0.000000   0.000000   0.000000
    22  C    0.000000   0.000000   0.000000   0.000000   0.000000   0.000000
    23  C    0.000000   0.000000   0.000000   0.000000   0.000000   0.000000
    24  C    0.000000   0.000000   0.000000   0.000000   0.000000   0.000000
    25  C    0.000048  -0.000013   0.000000   0.000000   0.000000   0.000000
    26  C    0.000000   0.000000   0.000000   0.000000   0.000000   0.000000
    27  C    0.000000   0.000000   0.000000   0.000000   0.000000   0.000000
    28  N    0.000000   0.000000   0.000000   0.000000   0.000000   0.000000
    29  N    0.000000   0.000000   0.000000   0.000000   0.000000   0.000000
    30  C    0.000000   0.000000   0.000000   0.000000   0.000000   0.000000
    31  H    0.438536  -0.016198   0.000000   0.000000   0.000000   0.000016
    32  H   -0.016198   0.459879   0.000000   0.000000   0.000000   0.000319
    33  H    0.000000   0.000000   0.433049  -0.000109  -0.000088   0.000009
    34  H    0.000000   0.000000  -0.000109   0.462382  -0.000271  -0.000099
    35  H    0.000000   0.000000  -0.000088  -0.000271   0.463092  -0.000171
    36  H    0.000016   0.000319   0.000009  -0.000099  -0.000171   0.451496
    37  H    0.001689  -0.001982   0.000000   0.000000   0.000000  -0.000001
    38  H    0.000071   0.000135   0.000000   0.000000   0.000000   0.000000
    39  H   -0.000001   0.000001   0.000000   0.000000   0.000000   0.000000
    40  H    0.000000   0.000000   0.000000   0.000000   0.000000   0.000000
    41  H    0.000004  -0.000056   0.000000   0.000000   0.000000   0.000158
    42  H   -0.000001  -0.000002   0.000000   0.000000   0.000000   0.000000
    43  H    0.000000   0.000000   0.000000   0.000000   0.000000   0.000000
    44  H    0.000000   0.000000   0.000000   0.000000   0.000000   0.000000
    45  H   -0.000007  -0.000001   0.000000   0.000000   0.000000   0.000000
    46  H    0.000000   0.000000   0.000000   0.000000   0.000000   0.000000
    47  H    0.000000   0.000000   0.000000   0.000000   0.000000   0.000000
    48  H    0.000000   0.000000   0.000000   0.000000   0.000000   0.000000
             37         38         39         40         41         42
     1  O    0.000081  -0.000055   0.000000   0.000000   0.000148   0.000005
     2  C   -0.000727   0.001700  -0.000002   0.000000   0.000621   0.000095
     3  C   -0.001087   0.000207   0.000001   0.000000  -0.000201   0.000009
     4  N   -0.000099  -0.000004   0.000000   0.000000   0.000003   0.000000
     5  N   -0.000029   0.000000   0.000000   0.000000   0.000000   0.000000
     6  N    0.000000   0.000000   0.000000   0.000000   0.000000   0.000000
     7  C    0.000000   0.000000   0.000000   0.000000   0.000000   0.000000
     8  C    0.000000   0.000000   0.000000   0.000000   0.000000   0.000000
     9  C    0.000000   0.000000   0.000000   0.000000   0.000000   0.000000
    10  C    0.000000   0.000000   0.000000   0.000000   0.000000   0.000000
    11  C    0.000000   0.000000   0.000000   0.000000   0.000009   0.000000
    12  C   -0.000009   0.000000   0.000000   0.000000  -0.000003   0.000000
    13  N   -0.052788  -0.043190   0.000029   0.000001   0.000117  -0.002206
    14  C    0.430043   0.422290  -0.000967  -0.000067  -0.000129  -0.000768
    15  C   -0.074775  -0.058648  -0.031165   0.000211  -0.014539   0.002219
    16  C    0.000215   0.000009   0.377284  -0.010619   0.001273   0.000010
    17  C    0.000306   0.000107  -0.021938   0.381859   0.001868  -0.000079
    18  S   -0.000067   0.000007   0.002349  -0.016776  -0.013720  -0.000309
    19  C    0.000767  -0.001100   0.005949   0.002781   0.383993   0.003693
    20  C    0.002465   0.005696  -0.000002   0.000000   0.000399  -0.029076
    21  C    0.000391  -0.000265   0.000000   0.000000   0.000579   0.366988
    22  C    0.000010  -0.000232   0.000000   0.000000   0.000019  -0.013321
    23  C   -0.000001  -0.000010   0.000000   0.000000  -0.000001   0.001474
    24  C   -0.000003  -0.000099   0.000000   0.000000  -0.000002   0.000233
    25  C    0.000093   0.000658   0.000000   0.000000  -0.000001   0.002186
    26  C    0.000000   0.000000   0.000000   0.000000   0.000000  -0.000145
    27  C    0.000000   0.000000   0.000000   0.000000   0.000000  -0.000003
    28  N    0.000000   0.000000   0.000000   0.000000   0.000000   0.000000
    29  N    0.000000   0.000000   0.000000   0.000000   0.000000   0.000000
    30  C    0.000000   0.000000   0.000000   0.000000   0.000000   0.000001
    31  H    0.001689   0.000071  -0.000001   0.000000   0.000004  -0.000001
    32  H   -0.001982   0.000135   0.000001   0.000000  -0.000056  -0.000002
    33  H    0.000000   0.000000   0.000000   0.000000   0.000000   0.000000
    34  H    0.000000   0.000000   0.000000   0.000000   0.000000   0.000000
    35  H    0.000000   0.000000   0.000000   0.000000   0.000000   0.000000
    36  H   -0.000001   0.000000   0.000000   0.000000   0.000158   0.000000
    37  H    0.526231  -0.023885   0.000225   0.000000  -0.000046   0.000119
    38  H   -0.023885   0.472289   0.000117   0.000000  -0.000026  -0.000921
    39  H    0.000225   0.000117   0.445019   0.000808  -0.000070   0.000001
    40  H    0.000000   0.000000   0.000808   0.403162  -0.000012   0.000000
    41  H   -0.000046  -0.000026  -0.000070  -0.000012   0.388942  -0.000173
    42  H    0.000119  -0.000921   0.000001   0.000000  -0.000173   0.443361
    43  H    0.000000  -0.000003   0.000000   0.000000   0.000000   0.000373
    44  H    0.000000   0.000000   0.000000   0.000000   0.000000   0.000008
    45  H    0.000014   0.000020   0.000000   0.000000   0.000000  -0.000106
    46  H    0.000000   0.000000   0.000000   0.000000   0.000000   0.000000
    47  H    0.000000   0.000000   0.000000   0.000000   0.000000   0.000000
    48  H    0.000000   0.000000   0.000000   0.000000   0.000000   0.000000
             43         44         45         46         47         48
     1  O    0.000000  -0.000007   0.002985   0.000000   0.000000   0.000000
     2  C    0.000000  -0.000001   0.001974   0.000000   0.000000   0.000000
     3  C    0.000000   0.000000  -0.000072   0.000000   0.000000   0.000000
     4  N    0.000000   0.000000  -0.000008   0.000000   0.000000   0.000000
     5  N    0.000000   0.000000   0.000001   0.000000   0.000000   0.000000
     6  N    0.000000   0.000000   0.000000   0.000000   0.000000   0.000000
     7  C    0.000000   0.000000   0.000000   0.000000   0.000000   0.000000
     8  C    0.000000   0.000000   0.000000   0.000000   0.000000   0.000000
     9  C    0.000000   0.000000   0.000000   0.000000   0.000000   0.000000
    10  C    0.000000   0.000000   0.000000   0.000000   0.000000   0.000000
    11  C    0.000000   0.000000   0.000000   0.000000   0.000000   0.000000
    12  C    0.000000   0.000000   0.000001   0.000000   0.000000   0.000000
    13  N   -0.000122  -0.000117  -0.005472   0.000000   0.000000   0.000000
    14  C    0.000008   0.000001   0.000017   0.000000   0.000000   0.000000
    15  C   -0.000001   0.000000  -0.000009   0.000000   0.000000   0.000000
    16  C    0.000000   0.000000   0.000000   0.000000   0.000000   0.000000
    17  C    0.000000   0.000000   0.000000   0.000000   0.000000   0.000000
    18  S    0.000000   0.000000   0.000000   0.000000   0.000000   0.000000
    19  C   -0.000001   0.000000   0.000001   0.000000   0.000000   0.000000
    20  C    0.001383   0.001480  -0.023494  -0.000001   0.000000   0.000000
    21  C   -0.017953   0.000389   0.002486   0.000025   0.000000   0.000000
    22  C    0.369550   0.002314   0.000210   0.001003   0.000052  -0.000001
    23  C   -0.030059  -0.030063   0.001475   0.001545   0.002718   0.000026
    24  C    0.002274   0.370242  -0.015945   0.000051   0.000795   0.000001
    25  C    0.000372  -0.016485   0.368861   0.000001  -0.000008   0.000000
    26  C    0.000891  -0.000112  -0.000140  -0.011219  -0.030533   0.003116
    27  C    0.001989   0.000026   0.000001   0.370995   0.002322  -0.022212
    28  N   -0.000005   0.000004   0.000000  -0.032837   0.003987   0.337485
    29  N    0.000007   0.000018   0.000000   0.001673  -0.029027  -0.024885
    30  C    0.000118   0.001750  -0.000002   0.002771   0.386502   0.003747
    31  H    0.000000   0.000000  -0.000007   0.000000   0.000000   0.000000
    32  H    0.000000   0.000000  -0.000001   0.000000   0.000000   0.000000
    33  H    0.000000   0.000000   0.000000   0.000000   0.000000   0.000000
    34  H    0.000000   0.000000   0.000000   0.000000   0.000000   0.000000
    35  H    0.000000   0.000000   0.000000   0.000000   0.000000   0.000000
    36  H    0.000000   0.000000   0.000000   0.000000   0.000000   0.000000
    37  H    0.000000   0.000000   0.000014   0.000000   0.000000   0.000000
    38  H   -0.000003   0.000000   0.000020   0.000000   0.000000   0.000000
    39  H    0.000000   0.000000   0.000000   0.000000   0.000000   0.000000
    40  H    0.000000   0.000000   0.000000   0.000000   0.000000   0.000000
    41  H    0.000000   0.000000   0.000000   0.000000   0.000000   0.000000
    42  H    0.000373   0.000008  -0.000106   0.000000   0.000000   0.000000
    43  H    0.461341  -0.000132   0.000008   0.000800   0.000001   0.000003
    44  H   -0.000132   0.449988   0.000243  -0.000001   0.000882   0.000000
    45  H    0.000008   0.000243   0.426710   0.000000  -0.000001   0.000000
    46  H    0.000800  -0.000001   0.000000   0.411421  -0.000071   0.000623
    47  H    0.000001   0.000882  -0.000001  -0.000071   0.427389  -0.000057
    48  H    0.000003   0.000000   0.000000   0.000623  -0.000057   0.295109
 Mulliken atomic charges:
              1
     1  O   -0.569889
     2  C    0.786938
     3  C   -0.130802
     4  N   -0.883668
     5  N    0.093629
     6  N   -0.335278
     7  C   -0.020491
     8  C   -0.078749
     9  C   -0.233447
    10  C   -0.205614
    11  C   -0.063546
    12  C    0.488617
    13  N   -0.984452
    14  C   -0.083049
    15  C    0.067494
    16  C   -0.104190
    17  C   -0.552051
    18  S    0.479094
    19  C   -0.603050
    20  C    0.318988
    21  C   -0.210873
    22  C   -0.209845
    23  C    0.050307
    24  C   -0.216940
    25  C   -0.142532
    26  C   -0.306145
    27  C    0.223876
    28  N   -0.685216
    29  N   -0.247132
    30  C    0.076979
    31  H    0.248195
    32  H    0.239791
    33  H    0.240172
    34  H    0.203895
    35  H    0.205237
    36  H    0.223285
    37  H    0.192851
    38  H    0.225130
    39  H    0.222361
    40  H    0.238652
    41  H    0.250846
    42  H    0.226335
    43  H    0.209158
    44  H    0.219572
    45  H    0.240246
    46  H    0.253221
    47  H    0.235048
    48  H    0.407043
 Sum of Mulliken atomic charges =   0.00000
 Mulliken charges with hydrogens summed into heavy atoms:
              1
     1  O   -0.569889
     2  C    0.786938
     3  C    0.357184
     4  N   -0.883668
     5  N    0.093629
     6  N   -0.335278
     7  C   -0.020491
     8  C    0.161423
     9  C   -0.029552
    10  C   -0.000377
    11  C    0.159739
    12  C    0.488617
    13  N   -0.984452
    14  C    0.334933
    15  C    0.067494
    16  C    0.118171
    17  C   -0.313399
    18  S    0.479094
    19  C   -0.352204
    20  C    0.318988
    21  C    0.015462
    22  C   -0.000687
    23  C    0.050307
    24  C    0.002632
    25  C    0.097713
    26  C   -0.306145
    27  C    0.477097
    28  N   -0.278173
    29  N   -0.247132
    30  C    0.312027
 Sum of Mulliken charges with hydrogens summed into heavy atoms =   0.00000
 Electronic spatial extent (au):  <R**2>=          17345.8396
 Charge=              0.0000 electrons
 Dipole moment (field-independent basis, Debye):
    X=              2.2524    Y=              8.2663    Z=             -0.0389  Tot=              8.5677
 Quadrupole moment (field-independent basis, Debye-Ang):
   XX=           -175.5067   YY=           -183.5178   ZZ=           -183.2348
   XY=             10.3887   XZ=             16.9389   YZ=             13.3065
 Traceless Quadrupole moment (field-independent basis, Debye-Ang):
   XX=              5.2464   YY=             -2.7647   ZZ=             -2.4817
   XY=             10.3887   XZ=             16.9389   YZ=             13.3065
 Octapole moment (field-independent basis, Debye-Ang**2):
  XXX=            177.6775  YYY=             81.9185  ZZZ=            -18.1901  XYY=            -50.6952
  XXY=            156.1881  XXZ=            -83.8835  XZZ=             -7.3055  YZZ=             25.6023
  YYZ=             22.4279  XYZ=            -80.3359
 Hexadecapole moment (field-independent basis, Debye-Ang**3):
 XXXX=         -15019.8946 YYYY=          -5519.3438 ZZZZ=          -1493.0991 XXXY=           1464.0694
 XXXZ=            361.5361 YYYX=            -66.2551 YYYZ=            183.5584 ZZZX=            157.4375
 ZZZY=            103.8847 XXYY=          -4114.6448 XXZZ=          -3195.3017 YYZZ=          -1300.5031
 XXYZ=            113.6084 YYXZ=            150.8814 ZZXY=            -28.3023
 N-N= 2.782191479384D+03 E-N=-9.416850194092D+03  KE= 1.643415779962D+03
 No NMR shielding tensors so no spin-rotation constants.
 Leave Link  601 at Fri Aug 26 21:23:29 2022, MaxMem=  209715200 cpu:       1.3
 (Enter /opt/gaussian/l9999.exe)
 1\1\GINC-LQCAPF-6\FOpt\RHF\6-31G\C22H18N6O1S1\LQCAPF-6\26-Aug-2022\0\\
 #p opt hf/6-31G\\Mol19.out\\0,1\O,20.8238001088,-7.9618147624,-2.02609
 83461\C,21.2506687701,-8.9150679456,-1.3933484309\C,22.6583351695,-8.8
 819113088,-0.809259573\N,23.289523444,-7.6114790157,-0.9930618787\N,23
 .3419128189,-6.7327043787,0.0483537863\N,23.906249989,-5.6620466134,-0
 .3289754164\C,24.2503597397,-5.7835207995,-1.6657581991\C,24.888340979
 1,-4.8884237715,-2.5237979635\C,25.1014917587,-5.2998395983,-3.8163123
 958\C,24.6841848477,-6.5777699553,-4.2517579322\C,24.0522133216,-7.464
 3673783,-3.4133537106\C,23.8438625984,-7.0393915367,-2.0986529448\N,20
 .5103768019,-10.0490141769,-1.1713087464\C,21.069710966,-11.2341240779
 ,-0.5173889616\C,21.9499942986,-12.0964399791,-1.3925135918\C,22.69990
 66405,-13.2072119961,-0.8389615331\C,23.4240630162,-13.8806472262,-1.7
 449083177\S,23.2423276118,-13.1907771329,-3.3832399171\C,22.1309934023
 ,-11.956211691,-2.7174728268\C,19.1294584373,-10.094060126,-1.56897654
 8\C,18.6416168186,-11.1797459191,-2.2821871755\C,17.2996246469,-11.250
 1212156,-2.6221826161\C,16.4111880826,-10.2412070094,-2.2606310131\C,1
 6.9173248998,-9.1540626685,-1.5467211603\C,18.2540860302,-9.078951801,
 -1.2020299019\C,14.9873342815,-10.3117961475,-2.6161310237\C,14.190383
 51,-11.4238889957,-2.7129200227\N,12.9583603195,-10.9971944537,-3.0673
 82698\N,12.9073100501,-9.6559357164,-3.2093723639\C,14.1189656032,-9.2
 312185181,-2.939307901\H,22.6210911498,-9.0506430317,0.2563901822\H,23
 .2646391858,-9.660402849,-1.2516769882\H,25.1928226049,-3.9226978944,-
 2.1741107031\H,25.5869380676,-4.6466500308,-4.5141262973\H,24.86267179
 97,-6.8583357464,-5.2716879248\H,23.7244945316,-8.4236959945,-3.759412
 0995\H,21.6251426827,-10.9442591619,0.3666242608\H,20.2345086163,-11.8
 210258857,-0.1617145179\H,22.6778277567,-13.466539209,0.2008351599\H,2
 4.0550339993,-14.7264211621,-1.5901989304\H,21.6933048451,-11.23311219
 4,-3.3685026034\H,19.3032267792,-11.9656673356,-2.5873844677\H,16.9516
 959145,-12.0855406561,-3.1985726932\H,16.2567102101,-8.3673191266,-1.2
 387894435\H,18.6173783463,-8.229559813,-0.6627019167\H,14.4069657718,-
 12.4530537121,-2.5399877078\H,14.3527131273,-8.193140991,-2.9960987589
 \H,12.1415656485,-11.5318892908,-3.2186252268\\Version=EM64L-G09RevC.0
 1\State=1-A\HF=-1641.9925162\RMSD=5.920e-09\RMSF=5.498e-06\Dipole=0.19
 86752,-3.364944,0.0042763\Quadrupole=-0.5171396,3.1478455,-2.630706,8.
 575573,-8.7371241,-13.0047773\PG=C01 [X(C22H18N6O1S1)]\\@


 IT IS BY LOGIC THAT WE PROVE, BUT BY INTUITION THAT WE DISCOVER.
     -- J.H.POINCARE (1854-1912)
 Job cpu time:  0 days  3 hours 27 minutes 30.2 seconds.
 File lengths (MBytes):  RWF=     66 Int=      0 D2E=      0 Chk=     10 Scr=      1
 Normal termination of Gaussian 09 at Fri Aug 26 21:23:29 2022.
