 Entering Gaussian System, Link 0=g09
 Input=Mol13.gjf
 Output=Mol13.log
 Initial command:
 /opt/gaussian/l1.exe /home/scr/lqcapf-6/Gau-235848.inp -scrdir=/home/scr/lqcapf-6/
 Entering Link 1 = /opt/gaussian/l1.exe PID=    235850.
  
 Copyright (c) 1988,1990,1992,1993,1995,1998,2003,2009,2011,
            Gaussian, Inc.  All Rights Reserved.
  
 This is part of the Gaussian(R) 09 program.  It is based on
 the Gaussian(R) 03 system (copyright 2003, Gaussian, Inc.),
 the Gaussian(R) 98 system (copyright 1998, Gaussian, Inc.),
 the Gaussian(R) 94 system (copyright 1995, Gaussian, Inc.),
 the Gaussian 92(TM) system (copyright 1992, Gaussian, Inc.),
 the Gaussian 90(TM) system (copyright 1990, Gaussian, Inc.),
 the Gaussian 88(TM) system (copyright 1988, Gaussian, Inc.),
 the Gaussian 86(TM) system (copyright 1986, Carnegie Mellon
 University), and the Gaussian 82(TM) system (copyright 1983,
 Carnegie Mellon University). Gaussian is a federally registered
 trademark of Gaussian, Inc.
  
 This software contains proprietary and confidential information,
 including trade secrets, belonging to Gaussian, Inc.
  
 This software is provided under written license and may be
 used, copied, transmitted, or stored only in accord with that
 written license.
  
 The following legend is applicable only to US Government
 contracts under FAR:
  
                    RESTRICTED RIGHTS LEGEND
  
 Use, reproduction and disclosure by the US Government is
 subject to restrictions as set forth in subparagraphs (a)
 and (c) of the Commercial Computer Software - Restricted
 Rights clause in FAR 52.227-19.
  
 Gaussian, Inc.
 340 Quinnipiac St., Bldg. 40, Wallingford CT 06492
  
  
 ---------------------------------------------------------------
 Warning -- This program may not be used in any manner that
 competes with the business of Gaussian, Inc. or will provide
 assistance to any competitor of Gaussian, Inc.  The licensee
 of this program is prohibited from giving any competitor of
 Gaussian, Inc. access to this program.  By using this program,
 the user acknowledges that Gaussian, Inc. is engaged in the
 business of creating and licensing software in the field of
 computational chemistry and represents and warrants to the
 licensee that it is not a competitor of Gaussian, Inc. and that
 it will not use this program in any manner prohibited above.
 ---------------------------------------------------------------
  

 Cite this work as:
 Gaussian 09, Revision C.01,
 M. J. Frisch, G. W. Trucks, H. B. Schlegel, G. E. Scuseria, 
 M. A. Robb, J. R. Cheeseman, G. Scalmani, V. Barone, B. Mennucci, 
 G. A. Petersson, H. Nakatsuji, M. Caricato, X. Li, H. P. Hratchian, 
 A. F. Izmaylov, J. Bloino, G. Zheng, J. L. Sonnenberg, M. Hada, 
 M. Ehara, K. Toyota, R. Fukuda, J. Hasegawa, M. Ishida, T. Nakajima, 
 Y. Honda, O. Kitao, H. Nakai, T. Vreven, J. A. Montgomery, Jr., 
 J. E. Peralta, F. Ogliaro, M. Bearpark, J. J. Heyd, E. Brothers, 
 K. N. Kudin, V. N. Staroverov, T. Keith, R. Kobayashi, J. Normand, 
 K. Raghavachari, A. Rendell, J. C. Burant, S. S. Iyengar, J. Tomasi, 
 M. Cossi, N. Rega, J. M. Millam, M. Klene, J. E. Knox, J. B. Cross, 
 V. Bakken, C. Adamo, J. Jaramillo, R. Gomperts, R. E. Stratmann, 
 O. Yazyev, A. J. Austin, R. Cammi, C. Pomelli, J. W. Ochterski, 
 R. L. Martin, K. Morokuma, V. G. Zakrzewski, G. A. Voth, 
 P. Salvador, J. J. Dannenberg, S. Dapprich, A. D. Daniels, 
 O. Farkas, J. B. Foresman, J. V. Ortiz, J. Cioslowski, 
 and D. J. Fox, Gaussian, Inc., Wallingford CT, 2010.
 
 ******************************************
 Gaussian 09:  EM64L-G09RevC.01 23-Sep-2011
                26-Aug-2022 
 ******************************************
 %nprocshared=8
 Will use up to    8 processors via shared memory.
 %mem=1600MB
 ---------------
 #p opt hf/6-31G
 ---------------
 1/18=20,19=15,38=1/1,3;
 2/9=110,12=2,17=6,18=5,40=1/2;
 3/5=1,6=6,11=9,16=1,25=1,30=1,71=1/1,2,3;
 4//1;
 5/5=2,38=5/2;
 6/7=2,8=2,9=2,10=2,28=1/1;
 7//1,2,3,16;
 1/18=20,19=15/3(2);
 2/9=110/2;
 99//99;
 2/9=110/2;
 3/5=1,6=6,11=9,16=1,25=1,30=1,71=1/1,2,3;
 4/5=5,16=3/1;
 5/5=2,38=5/2;
 7//1,2,3,16;
 1/18=20,19=15/3(-5);
 2/9=110/2;
 6/7=2,8=2,9=2,10=2,19=2,28=1/1;
 99/9=1/99;
 Leave Link    1 at Fri Aug 26 16:52:52 2022, MaxMem=  209715200 cpu:       0.1
 (Enter /opt/gaussian/l101.exe)
 ---------
 Mol13.out
 ---------
 Charge =  0 Multiplicity = 1
 Symbolic Z-Matrix:
 O                     20.7391  -6.7529    0.1323 
 C                     21.3849  -7.7922    0.3453 
 C                     22.9044  -7.7691    0.5889 
 N                     23.5248  -6.4778    0.4457 
 N                     23.3705  -5.4589    1.359 
 N                     23.6684  -4.3391    0.8804 
 C                     24.0004  -4.4862   -0.5073 
 C                     24.3984  -3.5894   -1.4973 
 C                     24.6539  -4.1049   -2.7648 
 C                     24.5279  -5.4746   -3.0462 
 C                     24.1391  -6.3957   -2.078 
 C                     23.8709  -5.8978   -0.8033 
 N                     20.7512  -9.0364    0.423 
 C                     21.5052  -10.2685   0.4706 
 C                     22.1198  -10.7346  -0.8045 
 C                     22.7305  -12.0313  -0.8918 
 C                     23.2205  -12.2726  -2.1554 
 S                     22.9449  -10.9838  -3.1797 
 C                     22.1873  -10.0679  -2.0115 
 C                     19.365   -9.1407    0.109 
 C                     18.4968  -9.8423    0.9688 
 C                     17.1419  -9.9376    0.6829 
 C                     16.5977  -9.3322   -0.4729 
 C                     17.4731  -8.6426   -1.3405 
 C                     18.8266  -8.5458   -1.0486 
 N                     15.223   -9.4271   -0.7308 
 S                     14.3046  -8.5905   -1.7933 
 O                     14.9787  -8.3787   -3.0093 
 O                     13.0627  -9.2573   -1.8611 
 C                     14.051   -7.1048   -1.0339 
 C                     14.3994  -5.7883   -1.6998 
 C                     15.121   -6.1979   -0.4669 
 H                     23.0996  -8.1374    1.6382 
 H                     23.3972  -8.462    -0.1547 
 H                     24.5034  -2.5168   -1.2802 
 H                     24.9629  -3.4224   -3.5712 
 H                     24.7413  -5.8305   -4.0663 
 H                     24.0451  -7.4649   -2.3088 
 H                     22.3247  -10.1566   1.2417 
 H                     20.8112  -11.0837   0.8366 
 H                     22.7832  -12.7234  -0.0492 
 H                     23.7248  -13.1839  -2.4735 
 H                     21.7813  -9.0765   -2.2126 
 H                     18.8826  -10.3192   1.8839 
 H                     16.492   -10.4938   1.3766 
 H                     17.1018  -8.1846   -2.2744 
 H                     19.4791  -7.9728   -1.7283 
 H                     14.7698  -10.101   -0.1501 
 H                     13.0914  -7.106    -0.465 
 H                     14.9205  -5.8311   -2.677 
 H                     13.6566  -4.9717   -1.6558 
 H                     14.9118  -5.6793    0.4864 
 H                     16.1763  -6.5288   -0.534 
 
 NAtoms=     53 NQM=        0 NQMF=       0 NMMI=     53 NMMIF=      0
                NMic=       0 NMicF=      0.
                    Isotopes and Nuclear Properties:
 (Nuclear quadrupole moments (NQMom) in fm**2, nuclear magnetic moments (NMagM)
  in nuclear magnetons)

  Atom         1           2           3           4           5           6           7           8           9          10
 IAtWgt=          16          12          12          14          14          14          12          12          12          12
 AtmWgt=  15.9949146  12.0000000  12.0000000  14.0030740  14.0030740  14.0030740  12.0000000  12.0000000  12.0000000  12.0000000
 NucSpn=           0           0           0           2           2           2           0           0           0           0
 AtZEff=   0.0000000   0.0000000   0.0000000   0.0000000   0.0000000   0.0000000   0.0000000   0.0000000   0.0000000   0.0000000
 NQMom=    0.0000000   0.0000000   0.0000000   2.0440000   2.0440000   2.0440000   0.0000000   0.0000000   0.0000000   0.0000000
 NMagM=    0.0000000   0.0000000   0.0000000   0.4037610   0.4037610   0.4037610   0.0000000   0.0000000   0.0000000   0.0000000

  Atom        11          12          13          14          15          16          17          18          19          20
 IAtWgt=          12          12          14          12          12          12          12          32          12          12
 AtmWgt=  12.0000000  12.0000000  14.0030740  12.0000000  12.0000000  12.0000000  12.0000000  31.9720718  12.0000000  12.0000000
 NucSpn=           0           0           2           0           0           0           0           0           0           0
 AtZEff=   0.0000000   0.0000000   0.0000000   0.0000000   0.0000000   0.0000000   0.0000000   0.0000000   0.0000000   0.0000000
 NQMom=    0.0000000   0.0000000   2.0440000   0.0000000   0.0000000   0.0000000   0.0000000   0.0000000   0.0000000   0.0000000
 NMagM=    0.0000000   0.0000000   0.4037610   0.0000000   0.0000000   0.0000000   0.0000000   0.0000000   0.0000000   0.0000000

  Atom        21          22          23          24          25          26          27          28          29          30
 IAtWgt=          12          12          12          12          12          14          32          16          16          12
 AtmWgt=  12.0000000  12.0000000  12.0000000  12.0000000  12.0000000  14.0030740  31.9720718  15.9949146  15.9949146  12.0000000
 NucSpn=           0           0           0           0           0           2           0           0           0           0
 AtZEff=   0.0000000   0.0000000   0.0000000   0.0000000   0.0000000   0.0000000   0.0000000   0.0000000   0.0000000   0.0000000
 NQMom=    0.0000000   0.0000000   0.0000000   0.0000000   0.0000000   2.0440000   0.0000000   0.0000000   0.0000000   0.0000000
 NMagM=    0.0000000   0.0000000   0.0000000   0.0000000   0.0000000   0.4037610   0.0000000   0.0000000   0.0000000   0.0000000

  Atom        31          32          33          34          35          36          37          38          39          40
 IAtWgt=          12          12           1           1           1           1           1           1           1           1
 AtmWgt=  12.0000000  12.0000000   1.0078250   1.0078250   1.0078250   1.0078250   1.0078250   1.0078250   1.0078250   1.0078250
 NucSpn=           0           0           1           1           1           1           1           1           1           1
 AtZEff=   0.0000000   0.0000000   0.0000000   0.0000000   0.0000000   0.0000000   0.0000000   0.0000000   0.0000000   0.0000000
 NQMom=    0.0000000   0.0000000   0.0000000   0.0000000   0.0000000   0.0000000   0.0000000   0.0000000   0.0000000   0.0000000
 NMagM=    0.0000000   0.0000000   2.7928460   2.7928460   2.7928460   2.7928460   2.7928460   2.7928460   2.7928460   2.7928460

  Atom        41          42          43          44          45          46          47          48          49          50
 IAtWgt=           1           1           1           1           1           1           1           1           1           1
 AtmWgt=   1.0078250   1.0078250   1.0078250   1.0078250   1.0078250   1.0078250   1.0078250   1.0078250   1.0078250   1.0078250
 NucSpn=           1           1           1           1           1           1           1           1           1           1
 AtZEff=   0.0000000   0.0000000   0.0000000   0.0000000   0.0000000   0.0000000   0.0000000   0.0000000   0.0000000   0.0000000
 NQMom=    0.0000000   0.0000000   0.0000000   0.0000000   0.0000000   0.0000000   0.0000000   0.0000000   0.0000000   0.0000000
 NMagM=    2.7928460   2.7928460   2.7928460   2.7928460   2.7928460   2.7928460   2.7928460   2.7928460   2.7928460   2.7928460

  Atom        51          52          53
 IAtWgt=           1           1           1
 AtmWgt=   1.0078250   1.0078250   1.0078250
 NucSpn=           1           1           1
 AtZEff=   0.0000000   0.0000000   0.0000000
 NQMom=    0.0000000   0.0000000   0.0000000
 NMagM=    2.7928460   2.7928460   2.7928460
 Leave Link  101 at Fri Aug 26 16:52:52 2022, MaxMem=  209715200 cpu:       0.8
 (Enter /opt/gaussian/l103.exe)

 GradGradGradGradGradGradGradGradGradGradGradGradGradGradGradGradGradGrad
 Berny optimization.
 Initialization pass.
                           ----------------------------
                           !    Initial Parameters    !
                           ! (Angstroms and Degrees)  !
 --------------------------                            --------------------------
 ! Name  Definition              Value          Derivative Info.                !
 --------------------------------------------------------------------------------
 ! R1    R(1,2)                  1.242          estimate D2E/DX2                !
 ! R2    R(2,3)                  1.5391         estimate D2E/DX2                !
 ! R3    R(2,13)                 1.3984         estimate D2E/DX2                !
 ! R4    R(3,4)                  1.4397         estimate D2E/DX2                !
 ! R5    R(3,33)                 1.1291         estimate D2E/DX2                !
 ! R6    R(3,34)                 1.1296         estimate D2E/DX2                !
 ! R7    R(4,5)                  1.377          estimate D2E/DX2                !
 ! R8    R(4,12)                 1.4199         estimate D2E/DX2                !
 ! R9    R(5,6)                  1.2537         estimate D2E/DX2                !
 ! R10   R(6,7)                  1.4344         estimate D2E/DX2                !
 ! R11   R(7,8)                  1.3938         estimate D2E/DX2                !
 ! R12   R(7,12)                 1.4481         estimate D2E/DX2                !
 ! R13   R(8,9)                  1.392          estimate D2E/DX2                !
 ! R14   R(8,35)                 1.0994         estimate D2E/DX2                !
 ! R15   R(9,10)                 1.404          estimate D2E/DX2                !
 ! R16   R(9,36)                 1.1007         estimate D2E/DX2                !
 ! R17   R(10,11)                1.3918         estimate D2E/DX2                !
 ! R18   R(10,37)                1.1013         estimate D2E/DX2                !
 ! R19   R(11,12)                1.3945         estimate D2E/DX2                !
 ! R20   R(11,38)                1.0979         estimate D2E/DX2                !
 ! R21   R(13,14)                1.4453         estimate D2E/DX2                !
 ! R22   R(13,20)                1.4251         estimate D2E/DX2                !
 ! R23   R(14,15)                1.4903         estimate D2E/DX2                !
 ! R24   R(14,39)                1.1308         estimate D2E/DX2                !
 ! R25   R(14,40)                1.1314         estimate D2E/DX2                !
 ! R26   R(15,16)                1.436          estimate D2E/DX2                !
 ! R27   R(15,19)                1.3805         estimate D2E/DX2                !
 ! R28   R(16,17)                1.3766         estimate D2E/DX2                !
 ! R29   R(16,41)                1.0917         estimate D2E/DX2                !
 ! R30   R(17,18)                1.6692         estimate D2E/DX2                !
 ! R31   R(17,42)                1.089          estimate D2E/DX2                !
 ! R32   R(18,19)                1.6666         estimate D2E/DX2                !
 ! R33   R(19,43)                1.09           estimate D2E/DX2                !
 ! R34   R(20,21)                1.409          estimate D2E/DX2                !
 ! R35   R(20,25)                1.4085         estimate D2E/DX2                !
 ! R36   R(21,22)                1.388          estimate D2E/DX2                !
 ! R37   R(21,44)                1.1017         estimate D2E/DX2                !
 ! R38   R(22,23)                1.4137         estimate D2E/DX2                !
 ! R39   R(22,45)                1.1013         estimate D2E/DX2                !
 ! R40   R(23,24)                1.4123         estimate D2E/DX2                !
 ! R41   R(23,26)                1.4019         estimate D2E/DX2                !
 ! R42   R(24,25)                1.388          estimate D2E/DX2                !
 ! R43   R(24,46)                1.1044         estimate D2E/DX2                !
 ! R44   R(25,47)                1.1028         estimate D2E/DX2                !
 ! R45   R(26,27)                1.6347         estimate D2E/DX2                !
 ! R46   R(26,48)                0.9984         estimate D2E/DX2                !
 ! R47   R(27,28)                1.4064         estimate D2E/DX2                !
 ! R48   R(27,29)                1.4112         estimate D2E/DX2                !
 ! R49   R(27,30)                1.6877         estimate D2E/DX2                !
 ! R50   R(30,31)                1.5159         estimate D2E/DX2                !
 ! R51   R(30,32)                1.5129         estimate D2E/DX2                !
 ! R52   R(30,49)                1.1156         estimate D2E/DX2                !
 ! R53   R(31,32)                1.4861         estimate D2E/DX2                !
 ! R54   R(31,50)                1.1083         estimate D2E/DX2                !
 ! R55   R(31,51)                1.1048         estimate D2E/DX2                !
 ! R56   R(32,52)                1.1052         estimate D2E/DX2                !
 ! R57   R(32,53)                1.108          estimate D2E/DX2                !
 ! A1    A(1,2,3)              121.8662         estimate D2E/DX2                !
 ! A2    A(1,2,13)             121.2253         estimate D2E/DX2                !
 ! A3    A(3,2,13)             116.8684         estimate D2E/DX2                !
 ! A4    A(2,3,4)              115.0335         estimate D2E/DX2                !
 ! A5    A(2,3,33)             108.2333         estimate D2E/DX2                !
 ! A6    A(2,3,34)             108.5012         estimate D2E/DX2                !
 ! A7    A(4,3,33)             108.0897         estimate D2E/DX2                !
 ! A8    A(4,3,34)             107.2599         estimate D2E/DX2                !
 ! A9    A(33,3,34)            109.6503         estimate D2E/DX2                !
 ! A10   A(3,4,5)              123.3261         estimate D2E/DX2                !
 ! A11   A(3,4,12)             123.9783         estimate D2E/DX2                !
 ! A12   A(5,4,12)             107.9679         estimate D2E/DX2                !
 ! A13   A(4,5,6)              112.4016         estimate D2E/DX2                !
 ! A14   A(5,6,7)              109.4337         estimate D2E/DX2                !
 ! A15   A(6,7,8)              133.4126         estimate D2E/DX2                !
 ! A16   A(6,7,12)             106.0821         estimate D2E/DX2                !
 ! A17   A(8,7,12)             120.5002         estimate D2E/DX2                !
 ! A18   A(7,8,9)              117.4449         estimate D2E/DX2                !
 ! A19   A(7,8,35)             120.9806         estimate D2E/DX2                !
 ! A20   A(9,8,35)             121.5744         estimate D2E/DX2                !
 ! A21   A(8,9,10)             121.8255         estimate D2E/DX2                !
 ! A22   A(8,9,36)             119.2752         estimate D2E/DX2                !
 ! A23   A(10,9,36)            118.8993         estimate D2E/DX2                !
 ! A24   A(9,10,11)            122.0937         estimate D2E/DX2                !
 ! A25   A(9,10,37)            118.9174         estimate D2E/DX2                !
 ! A26   A(11,10,37)           118.9887         estimate D2E/DX2                !
 ! A27   A(10,11,12)           116.9569         estimate D2E/DX2                !
 ! A28   A(10,11,38)           121.4811         estimate D2E/DX2                !
 ! A29   A(12,11,38)           121.5617         estimate D2E/DX2                !
 ! A30   A(4,12,7)             103.8968         estimate D2E/DX2                !
 ! A31   A(4,12,11)            134.836          estimate D2E/DX2                !
 ! A32   A(7,12,11)            121.1769         estimate D2E/DX2                !
 ! A33   A(2,13,14)            121.5938         estimate D2E/DX2                !
 ! A34   A(2,13,20)            119.5799         estimate D2E/DX2                !
 ! A35   A(14,13,20)           116.8918         estimate D2E/DX2                !
 ! A36   A(13,14,15)           116.9752         estimate D2E/DX2                !
 ! A37   A(13,14,39)           108.4319         estimate D2E/DX2                !
 ! A38   A(13,14,40)           107.7509         estimate D2E/DX2                !
 ! A39   A(15,14,39)           108.3928         estimate D2E/DX2                !
 ! A40   A(15,14,40)           107.722          estimate D2E/DX2                !
 ! A41   A(39,14,40)           107.1717         estimate D2E/DX2                !
 ! A42   A(14,15,16)           120.6534         estimate D2E/DX2                !
 ! A43   A(14,15,19)           128.1112         estimate D2E/DX2                !
 ! A44   A(16,15,19)           111.2318         estimate D2E/DX2                !
 ! A45   A(15,16,17)           111.4367         estimate D2E/DX2                !
 ! A46   A(15,16,41)           123.0998         estimate D2E/DX2                !
 ! A47   A(17,16,41)           125.4628         estimate D2E/DX2                !
 ! A48   A(16,17,18)           111.6645         estimate D2E/DX2                !
 ! A49   A(16,17,42)           125.4248         estimate D2E/DX2                !
 ! A50   A(18,17,42)           122.9101         estimate D2E/DX2                !
 ! A51   A(17,18,19)            93.9704         estimate D2E/DX2                !
 ! A52   A(15,19,18)           111.695          estimate D2E/DX2                !
 ! A53   A(15,19,43)           125.6139         estimate D2E/DX2                !
 ! A54   A(18,19,43)           122.6727         estimate D2E/DX2                !
 ! A55   A(13,20,21)           120.0887         estimate D2E/DX2                !
 ! A56   A(13,20,25)           121.4654         estimate D2E/DX2                !
 ! A57   A(21,20,25)           118.4443         estimate D2E/DX2                !
 ! A58   A(20,21,22)           120.6625         estimate D2E/DX2                !
 ! A59   A(20,21,44)           120.4408         estimate D2E/DX2                !
 ! A60   A(22,21,44)           118.8955         estimate D2E/DX2                !
 ! A61   A(21,22,23)           120.9817         estimate D2E/DX2                !
 ! A62   A(21,22,45)           118.748          estimate D2E/DX2                !
 ! A63   A(23,22,45)           120.2701         estimate D2E/DX2                !
 ! A64   A(22,23,24)           118.2125         estimate D2E/DX2                !
 ! A65   A(22,23,26)           119.927          estimate D2E/DX2                !
 ! A66   A(24,23,26)           121.8606         estimate D2E/DX2                !
 ! A67   A(23,24,25)           120.6168         estimate D2E/DX2                !
 ! A68   A(23,24,46)           120.9011         estimate D2E/DX2                !
 ! A69   A(25,24,46)           118.4727         estimate D2E/DX2                !
 ! A70   A(20,25,24)           121.0738         estimate D2E/DX2                !
 ! A71   A(20,25,47)           119.9908         estimate D2E/DX2                !
 ! A72   A(24,25,47)           118.9212         estimate D2E/DX2                !
 ! A73   A(23,26,27)           129.4823         estimate D2E/DX2                !
 ! A74   A(23,26,48)           112.5707         estimate D2E/DX2                !
 ! A75   A(27,26,48)           117.9349         estimate D2E/DX2                !
 ! A76   A(26,27,28)           111.7011         estimate D2E/DX2                !
 ! A77   A(26,27,29)           106.4884         estimate D2E/DX2                !
 ! A78   A(26,27,30)           104.0331         estimate D2E/DX2                !
 ! A79   A(28,27,29)           116.835          estimate D2E/DX2                !
 ! A80   A(28,27,30)           109.1778         estimate D2E/DX2                !
 ! A81   A(29,27,30)           107.7781         estimate D2E/DX2                !
 ! A82   A(27,30,31)           122.1625         estimate D2E/DX2                !
 ! A83   A(27,30,32)           126.1614         estimate D2E/DX2                !
 ! A84   A(27,30,49)           110.9637         estimate D2E/DX2                !
 ! A85   A(31,30,49)           115.0018         estimate D2E/DX2                !
 ! A86   A(32,30,49)           114.7017         estimate D2E/DX2                !
 ! A87   A(30,31,50)           117.5061         estimate D2E/DX2                !
 ! A88   A(30,31,51)           118.028          estimate D2E/DX2                !
 ! A89   A(32,31,50)           119.5078         estimate D2E/DX2                !
 ! A90   A(32,31,51)           119.812          estimate D2E/DX2                !
 ! A91   A(50,31,51)           112.3209         estimate D2E/DX2                !
 ! A92   A(30,32,52)           118.0779         estimate D2E/DX2                !
 ! A93   A(30,32,53)           118.1575         estimate D2E/DX2                !
 ! A94   A(31,32,52)           119.6267         estimate D2E/DX2                !
 ! A95   A(31,32,53)           119.6395         estimate D2E/DX2                !
 ! A96   A(52,32,53)           111.8793         estimate D2E/DX2                !
 ! D1    D(1,2,3,4)             -4.7023         estimate D2E/DX2                !
 ! D2    D(1,2,3,33)           116.2727         estimate D2E/DX2                !
 ! D3    D(1,2,3,34)          -124.8075         estimate D2E/DX2                !
 ! D4    D(13,2,3,4)           177.5747         estimate D2E/DX2                !
 ! D5    D(13,2,3,33)          -61.4503         estimate D2E/DX2                !
 ! D6    D(13,2,3,34)           57.4695         estimate D2E/DX2                !
 ! D7    D(1,2,13,14)          170.6371         estimate D2E/DX2                !
 ! D8    D(1,2,13,20)            6.9577         estimate D2E/DX2                !
 ! D9    D(3,2,13,14)          -11.6243         estimate D2E/DX2                !
 ! D10   D(3,2,13,20)         -175.3037         estimate D2E/DX2                !
 ! D11   D(2,3,4,5)             72.5498         estimate D2E/DX2                !
 ! D12   D(2,3,4,12)           -80.1187         estimate D2E/DX2                !
 ! D13   D(33,3,4,5)           -48.5036         estimate D2E/DX2                !
 ! D14   D(33,3,4,12)          158.8279         estimate D2E/DX2                !
 ! D15   D(34,3,4,5)          -166.6636         estimate D2E/DX2                !
 ! D16   D(34,3,4,12)           40.6679         estimate D2E/DX2                !
 ! D17   D(3,4,5,6)           -161.386          estimate D2E/DX2                !
 ! D18   D(12,4,5,6)            -4.9805         estimate D2E/DX2                !
 ! D19   D(3,4,12,7)           160.3853         estimate D2E/DX2                !
 ! D20   D(3,4,12,11)          -23.1999         estimate D2E/DX2                !
 ! D21   D(5,4,12,7)             4.1702         estimate D2E/DX2                !
 ! D22   D(5,4,12,11)         -179.4149         estimate D2E/DX2                !
 ! D23   D(4,5,6,7)              3.4623         estimate D2E/DX2                !
 ! D24   D(5,6,7,8)           -179.7726         estimate D2E/DX2                !
 ! D25   D(5,6,7,12)            -0.6285         estimate D2E/DX2                !
 ! D26   D(6,7,8,9)            179.3975         estimate D2E/DX2                !
 ! D27   D(6,7,8,35)            -0.6926         estimate D2E/DX2                !
 ! D28   D(12,7,8,9)             0.3521         estimate D2E/DX2                !
 ! D29   D(12,7,8,35)         -179.7381         estimate D2E/DX2                !
 ! D30   D(6,7,12,4)            -2.2388         estimate D2E/DX2                !
 ! D31   D(6,7,12,11)         -179.2679         estimate D2E/DX2                !
 ! D32   D(8,7,12,4)           177.0396         estimate D2E/DX2                !
 ! D33   D(8,7,12,11)            0.0105         estimate D2E/DX2                !
 ! D34   D(7,8,9,10)            -0.412          estimate D2E/DX2                !
 ! D35   D(7,8,9,36)           179.5512         estimate D2E/DX2                !
 ! D36   D(35,8,9,10)          179.6788         estimate D2E/DX2                !
 ! D37   D(35,8,9,36)           -0.358          estimate D2E/DX2                !
 ! D38   D(8,9,10,11)            0.1038         estimate D2E/DX2                !
 ! D39   D(8,9,10,37)          179.9536         estimate D2E/DX2                !
 ! D40   D(36,9,10,11)        -179.8595         estimate D2E/DX2                !
 ! D41   D(36,9,10,37)          -0.0098         estimate D2E/DX2                !
 ! D42   D(9,10,11,12)           0.265          estimate D2E/DX2                !
 ! D43   D(9,10,11,38)        -179.9161         estimate D2E/DX2                !
 ! D44   D(37,10,11,12)       -179.5847         estimate D2E/DX2                !
 ! D45   D(37,10,11,38)          0.2342         estimate D2E/DX2                !
 ! D46   D(10,11,12,4)        -176.2486         estimate D2E/DX2                !
 ! D47   D(10,11,12,7)          -0.317          estimate D2E/DX2                !
 ! D48   D(38,11,12,4)           3.9327         estimate D2E/DX2                !
 ! D49   D(38,11,12,7)         179.8642         estimate D2E/DX2                !
 ! D50   D(2,13,14,15)         -75.2091         estimate D2E/DX2                !
 ! D51   D(2,13,14,39)          47.667          estimate D2E/DX2                !
 ! D52   D(2,13,14,40)         163.3534         estimate D2E/DX2                !
 ! D53   D(20,13,14,15)         88.8873         estimate D2E/DX2                !
 ! D54   D(20,13,14,39)       -148.2366         estimate D2E/DX2                !
 ! D55   D(20,13,14,40)        -32.5502         estimate D2E/DX2                !
 ! D56   D(2,13,20,21)        -132.5309         estimate D2E/DX2                !
 ! D57   D(2,13,20,25)          46.9997         estimate D2E/DX2                !
 ! D58   D(14,13,20,21)         63.0372         estimate D2E/DX2                !
 ! D59   D(14,13,20,25)       -117.4321         estimate D2E/DX2                !
 ! D60   D(13,14,15,16)       -171.5839         estimate D2E/DX2                !
 ! D61   D(13,14,15,19)          7.6682         estimate D2E/DX2                !
 ! D62   D(39,14,15,16)         65.5199         estimate D2E/DX2                !
 ! D63   D(39,14,15,19)       -115.228          estimate D2E/DX2                !
 ! D64   D(40,14,15,16)        -50.1312         estimate D2E/DX2                !
 ! D65   D(40,14,15,19)        129.1209         estimate D2E/DX2                !
 ! D66   D(14,15,16,17)        179.2212         estimate D2E/DX2                !
 ! D67   D(14,15,16,41)         -0.5055         estimate D2E/DX2                !
 ! D68   D(19,15,16,17)         -0.1475         estimate D2E/DX2                !
 ! D69   D(19,15,16,41)       -179.8742         estimate D2E/DX2                !
 ! D70   D(14,15,19,18)       -178.9536         estimate D2E/DX2                !
 ! D71   D(14,15,19,43)         -0.486          estimate D2E/DX2                !
 ! D72   D(16,15,19,18)          0.3561         estimate D2E/DX2                !
 ! D73   D(16,15,19,43)        178.8237         estimate D2E/DX2                !
 ! D74   D(15,16,17,18)         -0.1252         estimate D2E/DX2                !
 ! D75   D(15,16,17,42)       -179.8662         estimate D2E/DX2                !
 ! D76   D(41,16,17,18)        179.5936         estimate D2E/DX2                !
 ! D77   D(41,16,17,42)         -0.1474         estimate D2E/DX2                !
 ! D78   D(16,17,18,19)          0.2853         estimate D2E/DX2                !
 ! D79   D(42,17,18,19)       -179.9661         estimate D2E/DX2                !
 ! D80   D(17,18,19,15)         -0.3723         estimate D2E/DX2                !
 ! D81   D(17,18,19,43)       -178.8923         estimate D2E/DX2                !
 ! D82   D(13,20,21,22)        179.2194         estimate D2E/DX2                !
 ! D83   D(13,20,21,44)         -0.3775         estimate D2E/DX2                !
 ! D84   D(25,20,21,22)         -0.3254         estimate D2E/DX2                !
 ! D85   D(25,20,21,44)       -179.9222         estimate D2E/DX2                !
 ! D86   D(13,20,25,24)       -179.432          estimate D2E/DX2                !
 ! D87   D(13,20,25,47)         -0.8147         estimate D2E/DX2                !
 ! D88   D(21,20,25,24)          0.1061         estimate D2E/DX2                !
 ! D89   D(21,20,25,47)        178.7234         estimate D2E/DX2                !
 ! D90   D(20,21,22,23)         -0.1745         estimate D2E/DX2                !
 ! D91   D(20,21,22,45)        179.9875         estimate D2E/DX2                !
 ! D92   D(44,21,22,23)        179.4286         estimate D2E/DX2                !
 ! D93   D(44,21,22,45)         -0.4094         estimate D2E/DX2                !
 ! D94   D(21,22,23,24)          0.8751         estimate D2E/DX2                !
 ! D95   D(21,22,23,26)       -179.1424         estimate D2E/DX2                !
 ! D96   D(45,22,23,24)       -179.2894         estimate D2E/DX2                !
 ! D97   D(45,22,23,26)          0.6931         estimate D2E/DX2                !
 ! D98   D(22,23,24,25)         -1.0909         estimate D2E/DX2                !
 ! D99   D(22,23,24,46)        177.7709         estimate D2E/DX2                !
 ! D100  D(26,23,24,25)        178.9269         estimate D2E/DX2                !
 ! D101  D(26,23,24,46)         -2.2113         estimate D2E/DX2                !
 ! D102  D(22,23,26,27)        166.2024         estimate D2E/DX2                !
 ! D103  D(22,23,26,48)        -12.4888         estimate D2E/DX2                !
 ! D104  D(24,23,26,27)        -13.8157         estimate D2E/DX2                !
 ! D105  D(24,23,26,48)        167.493          estimate D2E/DX2                !
 ! D106  D(23,24,25,20)          0.6142         estimate D2E/DX2                !
 ! D107  D(23,24,25,47)       -178.0176         estimate D2E/DX2                !
 ! D108  D(46,24,25,20)       -178.2748         estimate D2E/DX2                !
 ! D109  D(46,24,25,47)          3.0934         estimate D2E/DX2                !
 ! D110  D(23,26,27,28)         39.1328         estimate D2E/DX2                !
 ! D111  D(23,26,27,29)        167.7776         estimate D2E/DX2                !
 ! D112  D(23,26,27,30)        -78.5065         estimate D2E/DX2                !
 ! D113  D(48,26,27,28)       -142.2352         estimate D2E/DX2                !
 ! D114  D(48,26,27,29)        -13.5903         estimate D2E/DX2                !
 ! D115  D(48,26,27,30)        100.1256         estimate D2E/DX2                !
 ! D116  D(26,27,30,31)        125.0597         estimate D2E/DX2                !
 ! D117  D(26,27,30,32)         52.4617         estimate D2E/DX2                !
 ! D118  D(26,27,30,49)        -94.083          estimate D2E/DX2                !
 ! D119  D(28,27,30,31)          5.6886         estimate D2E/DX2                !
 ! D120  D(28,27,30,32)        -66.9093         estimate D2E/DX2                !
 ! D121  D(28,27,30,49)        146.546          estimate D2E/DX2                !
 ! D122  D(29,27,30,31)       -122.1497         estimate D2E/DX2                !
 ! D123  D(29,27,30,32)        165.2524         estimate D2E/DX2                !
 ! D124  D(29,27,30,49)         18.7077         estimate D2E/DX2                !
 ! D125  D(27,30,31,50)         -5.6212         estimate D2E/DX2                !
 ! D126  D(27,30,31,51)        134.0441         estimate D2E/DX2                !
 ! D127  D(49,30,31,50)       -145.0482         estimate D2E/DX2                !
 ! D128  D(49,30,31,51)         -5.3829         estimate D2E/DX2                !
 ! D129  D(27,30,32,52)       -140.785          estimate D2E/DX2                !
 ! D130  D(27,30,32,53)         -0.9152         estimate D2E/DX2                !
 ! D131  D(49,30,32,52)          4.6984         estimate D2E/DX2                !
 ! D132  D(49,30,32,53)        144.5682         estimate D2E/DX2                !
 ! D133  D(50,31,32,52)        145.594          estimate D2E/DX2                !
 ! D134  D(50,31,32,53)          0.8263         estimate D2E/DX2                !
 ! D135  D(51,31,32,52)         -0.2223         estimate D2E/DX2                !
 ! D136  D(51,31,32,53)       -144.99           estimate D2E/DX2                !
 --------------------------------------------------------------------------------
 Trust Radius=3.00D-01 FncErr=1.00D-07 GrdErr=1.00D-07
 Number of steps in this run=    299 maximum allowed number of steps=    318.
 GradGradGradGradGradGradGradGradGradGradGradGradGradGradGradGradGradGrad

 Leave Link  103 at Fri Aug 26 16:52:52 2022, MaxMem=  209715200 cpu:       0.1
 (Enter /opt/gaussian/l202.exe)
 Stoichiometry    C22H21N5O3S2
 Framework group  C1[X(C22H21N5O3S2)]
 Deg. of freedom   153
 Full point group                 C1      NOp   1
 Largest Abelian subgroup         C1      NOp   1
 Largest concise Abelian subgroup C1      NOp   1
                         Standard orientation:                         
 ---------------------------------------------------------------------
 Center     Atomic      Atomic             Coordinates (Angstroms)
 Number     Number       Type             X           Y           Z
 ---------------------------------------------------------------------
      1          8           0        1.026543   -1.263032   -0.984455
      2          6           0        1.496137   -0.150123   -1.273396
      3          6           0        3.003249    0.061107   -1.503067
      4          7           0        3.825238   -1.094490   -1.254496
      5          7           0        3.859875   -2.191308   -2.086285
      6          7           0        4.328715   -3.206376   -1.519204
      7          6           0        4.603543   -2.901090   -0.144852
      8          6           0        5.123862   -3.641401    0.915319
      9          6           0        5.264894   -2.995766    2.140408
     10          6           0        4.908829   -1.648665    2.312674
     11          6           0        4.393126   -0.881277    1.272401
     12          6           0        4.236813   -1.512266    0.038661
     13          7           0        0.667473    0.961937   -1.453078
     14          6           0        1.208566    2.294952   -1.591429
     15          6           0        1.711696    2.952260   -0.352208
     16          6           0        2.098074    4.335235   -0.362210
     17          6           0        2.515680    4.749951    0.882228
     18         16           0        2.435787    3.514930    2.002269
     19          6           0        1.863717    2.399762    0.903789
     20          6           0       -0.723033    0.858039   -1.158591
     21          6           0       -1.677435    1.338212   -2.077188
     22          6           0       -3.035020    1.228530   -1.809774
     23          6           0       -3.495255    0.630774   -0.614195
     24          6           0       -2.535892    0.164189    0.311291
     25          6           0       -1.179319    0.271707    0.038003
     26          7           0       -4.871727    0.515280   -0.374811
     27         16           0       -5.660887   -0.379049    0.743073
     28          8           0       -4.985985   -0.382836    1.976937
     29          8           0       -6.996936    0.075342    0.749131
     30          6           0       -5.650250   -1.939607    0.100539
     31          6           0       -5.102961   -3.125434    0.870129
     32          6           0       -4.433906   -2.696569   -0.385643
     33          1           0        3.156312    0.375866   -2.576509
     34          1           0        3.359666    0.880753   -0.812378
     35          1           0        5.408869   -4.695005    0.783717
     36          1           0        5.665820   -3.554130    3.000091
     37          1           0        5.039731   -1.185746    3.303320
     38          1           0        4.119248    0.171853    1.418009
     39          1           0        2.050831    2.262470   -2.345241
     40          1           0        0.397128    2.953297   -2.025355
     41          1           0        2.052964    4.960381   -1.256029
     42          1           0        2.856054    5.753882    1.131711
     43          1           0        1.622919    1.372884    1.178907
     44          1           0       -1.357087    1.801612   -3.023929
     45          1           0       -3.753546    1.614648   -2.549761
     46          1           0       -2.845445   -0.276792    1.275402
     47          1           0       -0.455171   -0.131561    0.765369
     48          1           0       -5.418022    1.058390   -1.009900
     49          1           0       -6.585095   -2.141114   -0.473866
     50          1           0       -4.616089   -2.922482    1.844841
     51          1           0       -5.699728   -4.055047    0.884692
     52          1           0       -4.535172   -3.313672   -1.296917
     53          1           0       -3.449291   -2.190802   -0.336786
 ---------------------------------------------------------------------
 Rotational constants (GHZ):      0.1613989      0.0640082      0.0538332
 Leave Link  202 at Fri Aug 26 16:52:52 2022, MaxMem=  209715200 cpu:       0.0
 (Enter /opt/gaussian/l301.exe)
 Standard basis: 6-31G (6D, 7F)
 Ernie: Thresh=  0.10000D-02 Tol=  0.10000D-05 Strict=F.
 There are   338 symmetry adapted basis functions of A   symmetry.
 Integral buffers will be    131072 words long.
 Raffenetti 1 integral format.
 Two-electron integral symmetry is turned on.
   338 basis functions,   836 primitive gaussians,   338 cartesian basis functions
   122 alpha electrons      122 beta electrons
       nuclear repulsion energy      3451.8472682351 Hartrees.



 Warning!  S  atom   18 may be hypervalent but has no d functions.
 Warning!  S  atom   27 may be hypervalent but has no d functions.



 IExCor=    0 DFT=F Ex=HF Corr=None ExCW=0 ScaHFX=  1.000000
 ScaDFX=  1.000000  1.000000  1.000000  1.000000 ScalE2=  1.000000  1.000000
 IRadAn=      0 IRanWt=     -1 IRanGd=            0 ICorTp=0
 NAtoms=   53 NActive=   53 NUniq=   53 SFac= 1.00D+00 NAtFMM=   60 NAOKFM=F Big=F
 Leave Link  301 at Fri Aug 26 16:52:52 2022, MaxMem=  209715200 cpu:       0.2
 (Enter /opt/gaussian/l302.exe)
 NPDir=0 NMtPBC=     1 NCelOv=     1 NCel=       1 NClECP=     1 NCelD=      1
         NCelK=      1 NCelE2=     1 NClLst=     1 CellRange=     0.0.
 One-electron integrals computed using PRISM.
 NBasis=   338 RedAO= T  NBF=   338
 NBsUse=   338 1.00D-06 NBFU=   338
 Leave Link  302 at Fri Aug 26 16:52:53 2022, MaxMem=  209715200 cpu:       2.2
 (Enter /opt/gaussian/l303.exe)
 DipDrv:  MaxL=1.
 Leave Link  303 at Fri Aug 26 16:52:53 2022, MaxMem=  209715200 cpu:       0.4
 (Enter /opt/gaussian/l401.exe)
 Harris functional with IExCor=  205 diagonalized for initial guess.
 ExpMin= 1.17D-01 ExpMax= 2.19D+04 ExpMxC= 3.30D+03 IAcc=1 IRadAn=         1 AccDes= 0.00D+00
 HarFok:  IExCor=  205 AccDes= 0.00D+00 IRadAn=         1 IDoV= 1
 ScaDFX=  1.000000  1.000000  1.000000  1.000000
 FoFCou: FMM=F IPFlag=           0 FMFlag=      100000 FMFlg1=           0
         NFxFlg=           0 DoJE=T BraDBF=F KetDBF=T FulRan=T
         Omega=  0.000000  0.000000  1.000000  0.000000  0.000000 ICntrl=     500 IOpCl=  0
         NMat0=    1 NMatS0=    1 NMatT0=    0 NMatD0=    1 NMtDS0=    0 NMtDT0=    0
         I1Cent=           4 NGrid=           0.
 Petite list used in FoFCou.
 Harris En= -2137.09965839044    
 Initial guess orbital symmetries:
       Occupied  (A) (A) (A) (A) (A) (A) (A) (A) (A) (A) (A) (A)
                 (A) (A) (A) (A) (A) (A) (A) (A) (A) (A) (A) (A)
                 (A) (A) (A) (A) (A) (A) (A) (A) (A) (A) (A) (A)
                 (A) (A) (A) (A) (A) (A) (A) (A) (A) (A) (A) (A)
                 (A) (A) (A) (A) (A) (A) (A) (A) (A) (A) (A) (A)
                 (A) (A) (A) (A) (A) (A) (A) (A) (A) (A) (A) (A)
                 (A) (A) (A) (A) (A) (A) (A) (A) (A) (A) (A) (A)
                 (A) (A) (A) (A) (A) (A) (A) (A) (A) (A) (A) (A)
                 (A) (A) (A) (A) (A) (A) (A) (A) (A) (A) (A) (A)
                 (A) (A) (A) (A) (A) (A) (A) (A) (A) (A) (A) (A)
                 (A) (A)
       Virtual   (A) (A) (A) (A) (A) (A) (A) (A) (A) (A) (A) (A)
                 (A) (A) (A) (A) (A) (A) (A) (A) (A) (A) (A) (A)
                 (A) (A) (A) (A) (A) (A) (A) (A) (A) (A) (A) (A)
                 (A) (A) (A) (A) (A) (A) (A) (A) (A) (A) (A) (A)
                 (A) (A) (A) (A) (A) (A) (A) (A) (A) (A) (A) (A)
                 (A) (A) (A) (A) (A) (A) (A) (A) (A) (A) (A) (A)
                 (A) (A) (A) (A) (A) (A) (A) (A) (A) (A) (A) (A)
                 (A) (A) (A) (A) (A) (A) (A) (A) (A) (A) (A) (A)
                 (A) (A) (A) (A) (A) (A) (A) (A) (A) (A) (A) (A)
                 (A) (A) (A) (A) (A) (A) (A) (A) (A) (A) (A) (A)
                 (A) (A) (A) (A) (A) (A) (A) (A) (A) (A) (A) (A)
                 (A) (A) (A) (A) (A) (A) (A) (A) (A) (A) (A) (A)
                 (A) (A) (A) (A) (A) (A) (A) (A) (A) (A) (A) (A)
                 (A) (A) (A) (A) (A) (A) (A) (A) (A) (A) (A) (A)
                 (A) (A) (A) (A) (A) (A) (A) (A) (A) (A) (A) (A)
                 (A) (A) (A) (A) (A) (A) (A) (A) (A) (A) (A) (A)
                 (A) (A) (A) (A) (A) (A) (A) (A) (A) (A) (A) (A)
                 (A) (A) (A) (A) (A) (A) (A) (A) (A) (A) (A) (A)
 The electronic state of the initial guess is 1-A.
 Leave Link  401 at Fri Aug 26 16:52:53 2022, MaxMem=  209715200 cpu:       4.9
 (Enter /opt/gaussian/l502.exe)
 Closed shell SCF:
 Requested convergence on RMS density matrix=1.00D-08 within 128 cycles.
 Requested convergence on MAX density matrix=1.00D-06.
 Requested convergence on             energy=1.00D-06.
 No special actions if energy rises.
 Using DIIS extrapolation, IDIIS=  1040.
 Integral symmetry usage will be decided dynamically.
 IEnd=      366194 IEndB=      366194 NGot=   209715200 MDV=   209480229
 LenX=   209480229 LenY=   209365544
 Fock matrices will be formed incrementally for  20 cycles.
 Integral accuracy reduced to 1.0D-05 until final iterations.

 Cycle   1  Pass 0  IDiag  1:
 FoFCou: FMM=F IPFlag=           0 FMFlag=      100000 FMFlg1=           0
         NFxFlg=           0 DoJE=F BraDBF=F KetDBF=F FulRan=T
         Omega=  0.000000  0.000000  1.000000  0.000000  0.000000 ICntrl=       0 IOpCl=  0
         NMat0=    1 NMatS0=    1 NMatT0=    0 NMatD0=    1 NMtDS0=    0 NMtDT0=    0
         I1Cent=           0 NGrid=           0.
 Symmetry not used in FoFCou.
 E= -2134.88113952280    
 DIIS: error= 4.59D-02 at cycle   1 NSaved=   1.
 NSaved= 1 IEnMin= 1 EnMin= -2134.88113952280     IErMin= 1 ErrMin= 4.59D-02
 ErrMax= 4.59D-02 EMaxC= 1.00D-01 BMatC= 1.40D+00 BMatP= 1.40D+00
 IDIUse=3 WtCom= 5.41D-01 WtEn= 4.59D-01
 Coeff-Com:  0.100D+01
 Coeff-En:   0.100D+01
 Coeff:      0.100D+01
 Gap=     0.456 Goal=   None    Shift=    0.000
 GapD=    0.456 DampG=2.000 DampE=0.500 DampFc=1.0000 IDamp=-1.
 RMSDP=6.51D-03 MaxDP=2.87D-01              OVMax= 2.09D-01

 Cycle   2  Pass 0  IDiag  1:
 RMSU=  4.60D-03    CP:  9.92D-01
 E= -2135.75732571397     Delta-E=       -0.876186191166 Rises=F Damp=F
 DIIS: error= 2.06D-02 at cycle   2 NSaved=   2.
 NSaved= 2 IEnMin= 2 EnMin= -2135.75732571397     IErMin= 2 ErrMin= 2.06D-02
 ErrMax= 2.06D-02 EMaxC= 1.00D-01 BMatC= 3.09D-01 BMatP= 1.40D+00
 IDIUse=3 WtCom= 7.94D-01 WtEn= 2.06D-01
 Coeff-Com:  0.285D+00 0.715D+00
 Coeff-En:   0.000D+00 0.100D+01
 Coeff:      0.226D+00 0.774D+00
 Gap=     0.474 Goal=   None    Shift=    0.000
 RMSDP=3.06D-03 MaxDP=1.08D-01 DE=-8.76D-01 OVMax= 9.02D-02

 Cycle   3  Pass 0  IDiag  1:
 RMSU=  1.63D-03    CP:  9.87D-01  6.93D-01
 E= -2136.01473328476     Delta-E=       -0.257407570789 Rises=F Damp=F
 DIIS: error= 7.16D-03 at cycle   3 NSaved=   3.
 NSaved= 3 IEnMin= 3 EnMin= -2136.01473328476     IErMin= 3 ErrMin= 7.16D-03
 ErrMax= 7.16D-03 EMaxC= 1.00D-01 BMatC= 3.23D-02 BMatP= 3.09D-01
 IDIUse=3 WtCom= 9.28D-01 WtEn= 7.16D-02
 Coeff-Com:  0.694D-02 0.231D+00 0.762D+00
 Coeff-En:   0.000D+00 0.000D+00 0.100D+01
 Coeff:      0.644D-02 0.215D+00 0.779D+00
 Gap=     0.413 Goal=   None    Shift=    0.000
 RMSDP=7.65D-04 MaxDP=2.81D-02 DE=-2.57D-01 OVMax= 3.25D-02

 Cycle   4  Pass 0  IDiag  1:
 RMSU=  3.49D-04    CP:  9.89D-01  7.76D-01  9.06D-01
 E= -2136.04362512941     Delta-E=       -0.028891844656 Rises=F Damp=F
 DIIS: error= 2.35D-03 at cycle   4 NSaved=   4.
 NSaved= 4 IEnMin= 4 EnMin= -2136.04362512941     IErMin= 4 ErrMin= 2.35D-03
 ErrMax= 2.35D-03 EMaxC= 1.00D-01 BMatC= 2.66D-03 BMatP= 3.23D-02
 IDIUse=3 WtCom= 9.76D-01 WtEn= 2.35D-02
 Coeff-Com: -0.149D-01 0.214D-01 0.268D+00 0.726D+00
 Coeff-En:   0.000D+00 0.000D+00 0.000D+00 0.100D+01
 Coeff:     -0.145D-01 0.209D-01 0.262D+00 0.732D+00
 Gap=     0.404 Goal=   None    Shift=    0.000
 RMSDP=2.47D-04 MaxDP=8.48D-03 DE=-2.89D-02 OVMax= 9.55D-03

 Cycle   5  Pass 0  IDiag  1:
 RMSU=  1.27D-04    CP:  9.88D-01  7.72D-01  9.64D-01  8.12D-01
 E= -2136.04642823021     Delta-E=       -0.002803100801 Rises=F Damp=F
 DIIS: error= 1.05D-03 at cycle   5 NSaved=   5.
 NSaved= 5 IEnMin= 5 EnMin= -2136.04642823021     IErMin= 5 ErrMin= 1.05D-03
 ErrMax= 1.05D-03 EMaxC= 1.00D-01 BMatC= 1.53D-04 BMatP= 2.66D-03
 IDIUse=3 WtCom= 9.90D-01 WtEn= 1.05D-02
 Coeff-Com: -0.146D-02-0.162D-01-0.320D-01 0.579D-01 0.992D+00
 Coeff-En:   0.000D+00 0.000D+00 0.000D+00 0.000D+00 0.100D+01
 Coeff:     -0.144D-02-0.161D-01-0.316D-01 0.573D-01 0.992D+00
 Gap=     0.405 Goal=   None    Shift=    0.000
 RMSDP=1.03D-04 MaxDP=4.75D-03 DE=-2.80D-03 OVMax= 5.90D-03

 Cycle   6  Pass 0  IDiag  1:
 RMSU=  4.90D-05    CP:  9.87D-01  7.71D-01  9.88D-01  8.94D-01  1.19D+00
 E= -2136.04684954408     Delta-E=       -0.000421313870 Rises=F Damp=F
 DIIS: error= 4.35D-04 at cycle   6 NSaved=   6.
 NSaved= 6 IEnMin= 6 EnMin= -2136.04684954408     IErMin= 6 ErrMin= 4.35D-04
 ErrMax= 4.35D-04 EMaxC= 1.00D-01 BMatC= 4.64D-05 BMatP= 1.53D-04
 IDIUse=3 WtCom= 9.96D-01 WtEn= 4.35D-03
 Coeff-Com:  0.293D-02-0.981D-02-0.669D-01-0.162D+00 0.263D+00 0.972D+00
 Coeff-En:   0.000D+00 0.000D+00 0.000D+00 0.000D+00 0.000D+00 0.100D+01
 Coeff:      0.292D-02-0.977D-02-0.666D-01-0.161D+00 0.262D+00 0.972D+00
 Gap=     0.406 Goal=   None    Shift=    0.000
 RMSDP=6.52D-05 MaxDP=2.48D-03 DE=-4.21D-04 OVMax= 5.50D-03

 Cycle   7  Pass 0  IDiag  1:
 RMSU=  1.94D-05    CP:  9.87D-01  7.69D-01  9.99D-01  9.17D-01  1.47D+00
                    CP:  1.20D+00
 E= -2136.04697864150     Delta-E=       -0.000129097419 Rises=F Damp=F
 DIIS: error= 2.20D-04 at cycle   7 NSaved=   7.
 NSaved= 7 IEnMin= 7 EnMin= -2136.04697864150     IErMin= 7 ErrMin= 2.20D-04
 ErrMax= 2.20D-04 EMaxC= 1.00D-01 BMatC= 4.36D-06 BMatP= 4.64D-05
 IDIUse=3 WtCom= 9.98D-01 WtEn= 2.20D-03
 Coeff-Com:  0.342D-03 0.119D-02 0.130D-02-0.216D-01-0.895D-01 0.489D-01
 Coeff-Com:  0.106D+01
 Coeff-En:   0.000D+00 0.000D+00 0.000D+00 0.000D+00 0.000D+00 0.000D+00
 Coeff-En:   0.100D+01
 Coeff:      0.341D-03 0.119D-02 0.130D-02-0.216D-01-0.894D-01 0.488D-01
 Coeff:      0.106D+01
 Gap=     0.405 Goal=   None    Shift=    0.000
 RMSDP=2.14D-05 MaxDP=9.37D-04 DE=-1.29D-04 OVMax= 1.75D-03

 Cycle   8  Pass 0  IDiag  1:
 RMSU=  7.49D-06    CP:  9.87D-01  7.69D-01  1.00D+00  9.22D-01  1.53D+00
                    CP:  1.35D+00  1.27D+00
 E= -2136.04699472169     Delta-E=       -0.000016080185 Rises=F Damp=F
 DIIS: error= 6.59D-05 at cycle   8 NSaved=   8.
 NSaved= 8 IEnMin= 8 EnMin= -2136.04699472169     IErMin= 8 ErrMin= 6.59D-05
 ErrMax= 6.59D-05 EMaxC= 1.00D-01 BMatC= 1.01D-06 BMatP= 4.36D-06
 IDIUse=1 WtCom= 1.00D+00 WtEn= 0.00D+00
 Coeff-Com: -0.532D-03 0.223D-02 0.147D-01 0.276D-01-0.616D-01-0.210D+00
 Coeff-Com:  0.189D+00 0.104D+01
 Coeff:     -0.532D-03 0.223D-02 0.147D-01 0.276D-01-0.616D-01-0.210D+00
 Coeff:      0.189D+00 0.104D+01
 Gap=     0.405 Goal=   None    Shift=    0.000
 RMSDP=1.04D-05 MaxDP=4.49D-04 DE=-1.61D-05 OVMax= 7.59D-04

 Cycle   9  Pass 0  IDiag  1:
 RMSU=  3.02D-06    CP:  9.87D-01  7.68D-01  1.00D+00  9.21D-01  1.55D+00
                    CP:  1.41D+00  1.52D+00  1.15D+00
 E= -2136.04699797458     Delta-E=       -0.000003252889 Rises=F Damp=F
 DIIS: error= 2.48D-05 at cycle   9 NSaved=   9.
 NSaved= 9 IEnMin= 9 EnMin= -2136.04699797458     IErMin= 9 ErrMin= 2.48D-05
 ErrMax= 2.48D-05 EMaxC= 1.00D-01 BMatC= 1.14D-07 BMatP= 1.01D-06
 IDIUse=1 WtCom= 1.00D+00 WtEn= 0.00D+00
 Coeff-Com: -0.116D-03 0.224D-03 0.232D-02 0.568D-02 0.279D-02-0.405D-01
 Coeff-Com: -0.666D-01 0.133D+00 0.963D+00
 Coeff:     -0.116D-03 0.224D-03 0.232D-02 0.568D-02 0.279D-02-0.405D-01
 Coeff:     -0.666D-01 0.133D+00 0.963D+00
 Gap=     0.405 Goal=   None    Shift=    0.000
 RMSDP=2.65D-06 MaxDP=6.57D-05 DE=-3.25D-06 OVMax= 2.66D-04

 Initial convergence to 1.0D-05 achieved.  Increase integral accuracy.
 Cycle  10  Pass 1  IDiag  1:
 E= -2136.04700219160     Delta-E=       -0.000004217022 Rises=F Damp=F
 DIIS: error= 7.60D-05 at cycle   1 NSaved=   1.
 NSaved= 1 IEnMin= 1 EnMin= -2136.04700219160     IErMin= 1 ErrMin= 7.60D-05
 ErrMax= 7.60D-05 EMaxC= 1.00D-01 BMatC= 1.14D-06 BMatP= 1.14D-06
 IDIUse=1 WtCom= 1.00D+00 WtEn= 0.00D+00
 Coeff-Com:  0.100D+01
 Coeff:      0.100D+01
 Gap=     0.405 Goal=   None    Shift=    0.000
 RMSDP=2.65D-06 MaxDP=6.57D-05 DE=-4.22D-06 OVMax= 1.44D-04

 Cycle  11  Pass 1  IDiag  1:
 RMSU=  3.04D-05    CP:  1.00D+00
 E= -2136.04700333333     Delta-E=       -0.000001141733 Rises=F Damp=F
 DIIS: error= 1.07D-05 at cycle   2 NSaved=   2.
 NSaved= 2 IEnMin= 2 EnMin= -2136.04700333333     IErMin= 2 ErrMin= 1.07D-05
 ErrMax= 1.07D-05 EMaxC= 1.00D-01 BMatC= 1.34D-08 BMatP= 1.14D-06
 IDIUse=1 WtCom= 1.00D+00 WtEn= 0.00D+00
 Coeff-Com: -0.379D-01 0.104D+01
 Coeff:     -0.379D-01 0.104D+01
 Gap=     0.405 Goal=   None    Shift=    0.000
 RMSDP=2.51D-06 MaxDP=4.21D-05 DE=-1.14D-06 OVMax= 8.33D-05

 Cycle  12  Pass 1  IDiag  1:
 RMSU=  6.40D-07    CP:  1.00D+00  1.05D+00
 E= -2136.04700337143     Delta-E=       -0.000000038100 Rises=F Damp=F
 DIIS: error= 5.91D-06 at cycle   3 NSaved=   3.
 NSaved= 3 IEnMin= 3 EnMin= -2136.04700337143     IErMin= 3 ErrMin= 5.91D-06
 ErrMax= 5.91D-06 EMaxC= 1.00D-01 BMatC= 6.47D-09 BMatP= 1.34D-08
 IDIUse=1 WtCom= 1.00D+00 WtEn= 0.00D+00
 Coeff-Com: -0.201D-01 0.347D+00 0.673D+00
 Coeff:     -0.201D-01 0.347D+00 0.673D+00
 Gap=     0.405 Goal=   None    Shift=    0.000
 RMSDP=3.81D-07 MaxDP=9.84D-06 DE=-3.81D-08 OVMax= 3.34D-05

 Cycle  13  Pass 1  IDiag  1:
 RMSU=  2.62D-07    CP:  1.00D+00  1.06D+00  1.06D+00
 E= -2136.04700338375     Delta-E=       -0.000000012323 Rises=F Damp=F
 DIIS: error= 5.16D-06 at cycle   4 NSaved=   4.
 NSaved= 4 IEnMin= 4 EnMin= -2136.04700338375     IErMin= 4 ErrMin= 5.16D-06
 ErrMax= 5.16D-06 EMaxC= 1.00D-01 BMatC= 1.77D-09 BMatP= 6.47D-09
 IDIUse=1 WtCom= 1.00D+00 WtEn= 0.00D+00
 Coeff-Com:  0.218D-01-0.545D+00-0.285D+00 0.181D+01
 Coeff:      0.218D-01-0.545D+00-0.285D+00 0.181D+01
 Gap=     0.405 Goal=   None    Shift=    0.000
 RMSDP=5.81D-07 MaxDP=1.90D-05 DE=-1.23D-08 OVMax= 8.19D-05

 Cycle  14  Pass 1  IDiag  1:
 RMSU=  1.95D-07    CP:  1.00D+00  1.06D+00  1.48D+00  1.89D+00
 E= -2136.04700339608     Delta-E=       -0.000000012328 Rises=F Damp=F
 DIIS: error= 1.44D-06 at cycle   5 NSaved=   5.
 NSaved= 5 IEnMin= 5 EnMin= -2136.04700339608     IErMin= 5 ErrMin= 1.44D-06
 ErrMax= 1.44D-06 EMaxC= 1.00D-01 BMatC= 2.57D-10 BMatP= 1.77D-09
 IDIUse=1 WtCom= 1.00D+00 WtEn= 0.00D+00
 Coeff-Com:  0.830D-02-0.185D+00-0.195D+00 0.452D+00 0.921D+00
 Coeff:      0.830D-02-0.185D+00-0.195D+00 0.452D+00 0.921D+00
 Gap=     0.405 Goal=   None    Shift=    0.000
 RMSDP=1.79D-07 MaxDP=6.06D-06 DE=-1.23D-08 OVMax= 2.49D-05

 Cycle  15  Pass 1  IDiag  1:
 RMSU=  5.21D-08    CP:  1.00D+00  1.06D+00  1.56D+00  2.22D+00  1.28D+00
 E= -2136.04700339710     Delta-E=       -0.000000001016 Rises=F Damp=F
 DIIS: error= 4.80D-07 at cycle   6 NSaved=   6.
 NSaved= 6 IEnMin= 6 EnMin= -2136.04700339710     IErMin= 6 ErrMin= 4.80D-07
 ErrMax= 4.80D-07 EMaxC= 1.00D-01 BMatC= 3.63D-11 BMatP= 2.57D-10
 IDIUse=1 WtCom= 1.00D+00 WtEn= 0.00D+00
 Coeff-Com: -0.218D-02 0.602D-01 0.321D-02-0.220D+00 0.242D+00 0.916D+00
 Coeff:     -0.218D-02 0.602D-01 0.321D-02-0.220D+00 0.242D+00 0.916D+00
 Gap=     0.405 Goal=   None    Shift=    0.000
 RMSDP=5.00D-08 MaxDP=1.51D-06 DE=-1.02D-09 OVMax= 5.97D-06

 Cycle  16  Pass 1  IDiag  1:
 RMSU=  1.98D-08    CP:  1.00D+00  1.06D+00  1.57D+00  2.28D+00  1.40D+00
                    CP:  1.00D+00
 E= -2136.04700339716     Delta-E=       -0.000000000061 Rises=F Damp=F
 DIIS: error= 1.26D-07 at cycle   7 NSaved=   7.
 NSaved= 7 IEnMin= 7 EnMin= -2136.04700339716     IErMin= 7 ErrMin= 1.26D-07
 ErrMax= 1.26D-07 EMaxC= 1.00D-01 BMatC= 3.97D-12 BMatP= 3.63D-11
 IDIUse=1 WtCom= 1.00D+00 WtEn= 0.00D+00
 Coeff-Com: -0.826D-03 0.180D-01 0.191D-01-0.457D-01-0.912D-01-0.696D-01
 Coeff-Com:  0.117D+01
 Coeff:     -0.826D-03 0.180D-01 0.191D-01-0.457D-01-0.912D-01-0.696D-01
 Coeff:      0.117D+01
 Gap=     0.405 Goal=   None    Shift=    0.000
 RMSDP=2.03D-08 MaxDP=6.16D-07 DE=-6.09D-11 OVMax= 2.25D-06

 Cycle  17  Pass 1  IDiag  1:
 RMSU=  7.46D-09    CP:  1.00D+00  1.06D+00  1.57D+00  2.29D+00  1.43D+00
                    CP:  1.11D+00  1.43D+00
 E= -2136.04700339714     Delta-E=        0.000000000018 Rises=F Damp=F
 DIIS: error= 8.65D-08 at cycle   8 NSaved=   8.
 NSaved= 8 IEnMin= 7 EnMin= -2136.04700339716     IErMin= 8 ErrMin= 8.65D-08
 ErrMax= 8.65D-08 EMaxC= 1.00D-01 BMatC= 1.03D-12 BMatP= 3.97D-12
 IDIUse=1 WtCom= 1.00D+00 WtEn= 0.00D+00
 Coeff-Com:  0.320D-03-0.996D-02 0.386D-02 0.422D-01-0.728D-01-0.255D+00
 Coeff-Com:  0.293D+00 0.998D+00
 Coeff:      0.320D-03-0.996D-02 0.386D-02 0.422D-01-0.728D-01-0.255D+00
 Coeff:      0.293D+00 0.998D+00
 Gap=     0.405 Goal=   None    Shift=    0.000
 RMSDP=9.00D-09 MaxDP=2.72D-07 DE= 1.82D-11 OVMax= 1.04D-06

 SCF Done:  E(RHF) =  -2136.04700340     A.U. after   17 cycles
             Convg  =    0.9001D-08             -V/T =  1.9992
 KE= 2.137673328767D+03 PE=-1.192826664066D+04 EE= 4.202699040263D+03
 Leave Link  502 at Fri Aug 26 16:54:22 2022, MaxMem=  209715200 cpu:     671.1
 (Enter /opt/gaussian/l601.exe)
 Copying SCF densities to generalized density rwf, IOpCl= 0 IROHF=0.

 **********************************************************************

            Population analysis using the SCF density.

 **********************************************************************

 Orbital symmetries:
       Occupied  (A) (A) (A) (A) (A) (A) (A) (A) (A) (A) (A) (A)
                 (A) (A) (A) (A) (A) (A) (A) (A) (A) (A) (A) (A)
                 (A) (A) (A) (A) (A) (A) (A) (A) (A) (A) (A) (A)
                 (A) (A) (A) (A) (A) (A) (A) (A) (A) (A) (A) (A)
                 (A) (A) (A) (A) (A) (A) (A) (A) (A) (A) (A) (A)
                 (A) (A) (A) (A) (A) (A) (A) (A) (A) (A) (A) (A)
                 (A) (A) (A) (A) (A) (A) (A) (A) (A) (A) (A) (A)
                 (A) (A) (A) (A) (A) (A) (A) (A) (A) (A) (A) (A)
                 (A) (A) (A) (A) (A) (A) (A) (A) (A) (A) (A) (A)
                 (A) (A) (A) (A) (A) (A) (A) (A) (A) (A) (A) (A)
                 (A) (A)
       Virtual   (A) (A) (A) (A) (A) (A) (A) (A) (A) (A) (A) (A)
                 (A) (A) (A) (A) (A) (A) (A) (A) (A) (A) (A) (A)
                 (A) (A) (A) (A) (A) (A) (A) (A) (A) (A) (A) (A)
                 (A) (A) (A) (A) (A) (A) (A) (A) (A) (A) (A) (A)
                 (A) (A) (A) (A) (A) (A) (A) (A) (A) (A) (A) (A)
                 (A) (A) (A) (A) (A) (A) (A) (A) (A) (A) (A) (A)
                 (A) (A) (A) (A) (A) (A) (A) (A) (A) (A) (A) (A)
                 (A) (A) (A) (A) (A) (A) (A) (A) (A) (A) (A) (A)
                 (A) (A) (A) (A) (A) (A) (A) (A) (A) (A) (A) (A)
                 (A) (A) (A) (A) (A) (A) (A) (A) (A) (A) (A) (A)
                 (A) (A) (A) (A) (A) (A) (A) (A) (A) (A) (A) (A)
                 (A) (A) (A) (A) (A) (A) (A) (A) (A) (A) (A) (A)
                 (A) (A) (A) (A) (A) (A) (A) (A) (A) (A) (A) (A)
                 (A) (A) (A) (A) (A) (A) (A) (A) (A) (A) (A) (A)
                 (A) (A) (A) (A) (A) (A) (A) (A) (A) (A) (A) (A)
                 (A) (A) (A) (A) (A) (A) (A) (A) (A) (A) (A) (A)
                 (A) (A) (A) (A) (A) (A) (A) (A) (A) (A) (A) (A)
                 (A) (A) (A) (A) (A) (A) (A) (A) (A) (A) (A) (A)
 The electronic state is 1-A.
 Alpha  occ. eigenvalues --  -92.27019 -91.99663 -20.55877 -20.55310 -20.54784
 Alpha  occ. eigenvalues --  -15.67461 -15.65961 -15.62709 -15.62666 -15.62553
 Alpha  occ. eigenvalues --  -11.39952 -11.33074 -11.32730 -11.31903 -11.31049
 Alpha  occ. eigenvalues --  -11.30181 -11.29523 -11.29318 -11.28955 -11.28598
 Alpha  occ. eigenvalues --  -11.27958 -11.27955 -11.27716 -11.27269 -11.26910
 Alpha  occ. eigenvalues --  -11.26851 -11.26837 -11.26800 -11.26651 -11.26574
 Alpha  occ. eigenvalues --  -11.25537 -11.25526  -9.28358  -9.02052  -6.96876
 Alpha  occ. eigenvalues --   -6.96446  -6.96223  -6.70207  -6.70034  -6.69749
 Alpha  occ. eigenvalues --   -1.56461  -1.46681  -1.41440  -1.40026  -1.29555
 Alpha  occ. eigenvalues --   -1.29021  -1.24815  -1.22854  -1.20486  -1.17452
 Alpha  occ. eigenvalues --   -1.16319  -1.07124  -1.05667  -1.05275  -1.04378
 Alpha  occ. eigenvalues --   -1.03836  -1.01780  -1.01721  -0.98570  -0.95042
 Alpha  occ. eigenvalues --   -0.89497  -0.88669  -0.87424  -0.85277  -0.84994
 Alpha  occ. eigenvalues --   -0.83224  -0.80949  -0.79732  -0.78077  -0.76528
 Alpha  occ. eigenvalues --   -0.75874  -0.74932  -0.73022  -0.72332  -0.72148
 Alpha  occ. eigenvalues --   -0.71954  -0.70836  -0.69844  -0.68338  -0.65891
 Alpha  occ. eigenvalues --   -0.65591  -0.64571  -0.64123  -0.63757  -0.63206
 Alpha  occ. eigenvalues --   -0.62330  -0.61641  -0.60731  -0.60502  -0.60197
 Alpha  occ. eigenvalues --   -0.59831  -0.58974  -0.58270  -0.57452  -0.56487
 Alpha  occ. eigenvalues --   -0.55366  -0.54427  -0.54142  -0.53680  -0.53502
 Alpha  occ. eigenvalues --   -0.53372  -0.52263  -0.51139  -0.51121  -0.50328
 Alpha  occ. eigenvalues --   -0.50010  -0.49459  -0.48804  -0.48517  -0.46800
 Alpha  occ. eigenvalues --   -0.46289  -0.45888  -0.45080  -0.42953  -0.41708
 Alpha  occ. eigenvalues --   -0.40837  -0.36596  -0.36195  -0.35030  -0.34155
 Alpha  occ. eigenvalues --   -0.33061  -0.31515
 Alpha virt. eigenvalues --    0.09023   0.10744   0.11316   0.11776   0.13901
 Alpha virt. eigenvalues --    0.15482   0.17423   0.18393   0.18636   0.19396
 Alpha virt. eigenvalues --    0.20555   0.20686   0.21410   0.22104   0.22882
 Alpha virt. eigenvalues --    0.23361   0.23775   0.24454   0.25264   0.25987
 Alpha virt. eigenvalues --    0.27001   0.27378   0.27894   0.28371   0.28523
 Alpha virt. eigenvalues --    0.28989   0.30054   0.30691   0.30974   0.31303
 Alpha virt. eigenvalues --    0.32036   0.32468   0.33435   0.34221   0.34563
 Alpha virt. eigenvalues --    0.35286   0.35908   0.36693   0.36950   0.37653
 Alpha virt. eigenvalues --    0.38676   0.38963   0.39932   0.40604   0.41733
 Alpha virt. eigenvalues --    0.42802   0.43134   0.43700   0.44789   0.45716
 Alpha virt. eigenvalues --    0.46016   0.46641   0.47712   0.48648   0.49389
 Alpha virt. eigenvalues --    0.50426   0.51248   0.52415   0.53262   0.53554
 Alpha virt. eigenvalues --    0.53961   0.55186   0.56116   0.56730   0.58247
 Alpha virt. eigenvalues --    0.58965   0.60459   0.63187   0.63949   0.66522
 Alpha virt. eigenvalues --    0.68416   0.69746   0.71467   0.71704   0.72247
 Alpha virt. eigenvalues --    0.73411   0.73695   0.74514   0.75404   0.75990
 Alpha virt. eigenvalues --    0.76327   0.76740   0.77794   0.78064   0.78496
 Alpha virt. eigenvalues --    0.78778   0.79641   0.79950   0.81067   0.81465
 Alpha virt. eigenvalues --    0.82214   0.82682   0.82887   0.83775   0.84040
 Alpha virt. eigenvalues --    0.84487   0.85066   0.85407   0.85723   0.86098
 Alpha virt. eigenvalues --    0.86172   0.86618   0.87667   0.87997   0.88279
 Alpha virt. eigenvalues --    0.88889   0.89003   0.89753   0.90135   0.90696
 Alpha virt. eigenvalues --    0.90917   0.92322   0.92513   0.94052   0.95038
 Alpha virt. eigenvalues --    0.95762   0.96170   0.96719   0.98319   0.99425
 Alpha virt. eigenvalues --    0.99762   1.00274   1.01282   1.01850   1.02811
 Alpha virt. eigenvalues --    1.04697   1.04792   1.05659   1.06731   1.07416
 Alpha virt. eigenvalues --    1.08118   1.08190   1.09342   1.10023   1.10339
 Alpha virt. eigenvalues --    1.10614   1.11266   1.11956   1.12380   1.12696
 Alpha virt. eigenvalues --    1.13496   1.13875   1.14035   1.14178   1.15861
 Alpha virt. eigenvalues --    1.16620   1.17197   1.18000   1.18059   1.18651
 Alpha virt. eigenvalues --    1.19127   1.20012   1.21066   1.21290   1.21433
 Alpha virt. eigenvalues --    1.22174   1.23303   1.23653   1.24263   1.25117
 Alpha virt. eigenvalues --    1.25705   1.27433   1.27936   1.28432   1.28767
 Alpha virt. eigenvalues --    1.30579   1.31227   1.31816   1.32316   1.34775
 Alpha virt. eigenvalues --    1.36074   1.37009   1.38428   1.38968   1.39662
 Alpha virt. eigenvalues --    1.39995   1.41133   1.41866   1.42210   1.43825
 Alpha virt. eigenvalues --    1.45200   1.45907   1.47988   1.48764   1.50365
 Alpha virt. eigenvalues --    1.51370   1.52253   1.54073   1.54563   1.55791
 Alpha virt. eigenvalues --    1.58000   1.58019   1.59677   1.62265   1.63197
 Alpha virt. eigenvalues --    1.64641   1.66409   1.67033   1.67331   1.69698
 Alpha virt. eigenvalues --    1.70430   1.74200   1.74474   1.80780   1.83960
 Alpha virt. eigenvalues --    1.88716   1.90465   1.96710   2.00885   2.05357
 Alpha virt. eigenvalues --    2.06308   2.18069   2.20856   2.22999   2.25690
 Alpha virt. eigenvalues --    2.29857
          Condensed to atoms (all electrons):
 Mulliken atomic charges:
              1
     1  O   -0.582013
     2  C    0.787779
     3  C   -0.153865
     4  N   -0.777639
     5  N    0.118328
     6  N   -0.311982
     7  C    0.035650
     8  C   -0.104656
     9  C   -0.233717
    10  C   -0.201462
    11  C   -0.130188
    12  C    0.376130
    13  N   -0.954544
    14  C   -0.118157
    15  C    0.053724
    16  C   -0.118743
    17  C   -0.590964
    18  S    0.581619
    19  C   -0.627178
    20  C    0.298027
    21  C   -0.174440
    22  C   -0.244260
    23  C    0.423655
    24  C   -0.275857
    25  C   -0.126449
    26  N   -1.210231
    27  S    1.820888
    28  O   -0.745364
    29  O   -0.720300
    30  C   -0.626043
    31  C   -0.297225
    32  C   -0.315266
    33  H    0.247952
    34  H    0.237165
    35  H    0.247341
    36  H    0.210705
    37  H    0.213862
    38  H    0.231366
    39  H    0.191817
    40  H    0.213560
    41  H    0.222751
    42  H    0.252540
    43  H    0.251962
    44  H    0.223984
    45  H    0.212454
    46  H    0.309213
    47  H    0.240732
    48  H    0.439685
    49  H    0.294073
    50  H    0.247469
    51  H    0.207962
    52  H    0.211120
    53  H    0.237030
 Sum of Mulliken atomic charges =   0.00000
 Mulliken charges with hydrogens summed into heavy atoms:
              1
     1  O   -0.582013
     2  C    0.787779
     3  C    0.331252
     4  N   -0.777639
     5  N    0.118328
     6  N   -0.311982
     7  C    0.035650
     8  C    0.142685
     9  C   -0.023012
    10  C    0.012400
    11  C    0.101177
    12  C    0.376130
    13  N   -0.954544
    14  C    0.287219
    15  C    0.053724
    16  C    0.104008
    17  C   -0.338424
    18  S    0.581619
    19  C   -0.375217
    20  C    0.298027
    21  C    0.049545
    22  C   -0.031805
    23  C    0.423655
    24  C    0.033356
    25  C    0.114283
    26  N   -0.770547
    27  S    1.820888
    28  O   -0.745364
    29  O   -0.720300
    30  C   -0.331970
    31  C    0.158206
    32  C    0.132884
 Sum of Mulliken charges with hydrogens summed into heavy atoms =   0.00000
 Electronic spatial extent (au):  <R**2>=          19686.5175
 Charge=              0.0000 electrons
 Dipole moment (field-independent basis, Debye):
    X=              3.1726    Y=              4.0532    Z=             -2.5655  Tot=              5.7511
 Quadrupole moment (field-independent basis, Debye-Ang):
   XX=           -235.5675   YY=           -187.2393   ZZ=           -205.7868
   XY=             32.3364   XZ=             43.7557   YZ=            -25.3487
 Traceless Quadrupole moment (field-independent basis, Debye-Ang):
   XX=            -26.0363   YY=             22.2919   ZZ=              3.7444
   XY=             32.3364   XZ=             43.7557   YZ=            -25.3487
 Octapole moment (field-independent basis, Debye-Ang**2):
  XXX=            231.1965  YYY=             56.4307  ZZZ=             -6.9542  XYY=            -50.2258
  XXY=            -88.2524  XXZ=            -93.5433  XZZ=             14.0029  YZZ=             31.7727
  YYZ=             34.2805  XYZ=            -48.6619
 Hexadecapole moment (field-independent basis, Debye-Ang**3):
 XXXX=         -21523.9454 YYYY=          -5724.8722 ZZZZ=          -2352.9807 XXXY=            681.3842
 XXXZ=           1348.1179 YYYX=            444.5954 YYYZ=           -170.6491 ZZZX=            205.2647
 ZZZY=           -153.3709 XXYY=          -3596.6667 XXZZ=          -3575.6828 YYZZ=          -1443.3930
 XXYZ=           -364.7242 YYXZ=            227.5770 ZZXY=             57.9892
 N-N= 3.451847268235D+03 E-N=-1.192826664689D+04  KE= 2.137673328767D+03
 No NMR shielding tensors so no spin-rotation constants.
 Leave Link  601 at Fri Aug 26 16:54:22 2022, MaxMem=  209715200 cpu:       1.5
 (Enter /opt/gaussian/l701.exe)
 Compute integral first derivatives.
 ... and contract with generalized density number  0.
 Leave Link  701 at Fri Aug 26 16:54:23 2022, MaxMem=  209715200 cpu:       1.3
 (Enter /opt/gaussian/l702.exe)
 L702 exits ... SP integral derivatives will be done elsewhere.
 Leave Link  702 at Fri Aug 26 16:54:23 2022, MaxMem=  209715200 cpu:       0.2
 (Enter /opt/gaussian/l703.exe)
 Compute integral first derivatives, UseDBF=F ICtDFT=           0.
 Integral derivatives from FoFDir, PRISM(SPDF).
 Calling FoFJK, ICntrl=      2127 FMM=F ISym2X=0 I1Cent= 0 IOpClX= 0 NMat=1 NMatS=1 NMatT=0.
 FoFCou: FMM=F IPFlag=           0 FMFlag=      100000 FMFlg1=         800
         NFxFlg=           0 DoJE=F BraDBF=F KetDBF=F FulRan=T
         Omega=  0.000000  0.000000  1.000000  0.000000  0.000000 ICntrl=    2127 IOpCl=  0
         NMat0=    1 NMatS0=    1 NMatT0=    0 NMatD0=    1 NMtDS0=    0 NMtDT0=    0
         I1Cent=           0 NGrid=           0.
 Symmetry not used in FoFCou.
 Leave Link  703 at Fri Aug 26 16:54:57 2022, MaxMem=  209715200 cpu:     259.6
 (Enter /opt/gaussian/l716.exe)
 Dipole        = 1.24819599D+00 1.59463668D+00-1.00936064D+00
 ***** Axes restored to original set *****
 -------------------------------------------------------------------
 Center     Atomic                   Forces (Hartrees/Bohr)
 Number     Number              X              Y              Z
 -------------------------------------------------------------------
      1        8           0.024672413   -0.026724629    0.004556939
      2        6          -0.024408672    0.016678212    0.004352422
      3        6           0.013341065   -0.023655969    0.015108369
      4        7          -0.008855338    0.023388720   -0.049475141
      5        7          -0.000458353   -0.013847053    0.010918182
      6        7           0.006027190    0.000133813   -0.030729412
      7        6          -0.006114939   -0.048416121    0.006348791
      8        6          -0.000762121    0.009892898    0.006844266
      9        6           0.003821487    0.012293814   -0.008137341
     10        6           0.000885873   -0.007081863   -0.010773548
     11        6          -0.003231207   -0.011462532    0.001901230
     12        6           0.005461176    0.035846294    0.029323308
     13        7           0.013877772    0.022595932   -0.014831433
     14        6           0.007788128   -0.021971782    0.040491935
     15        6           0.002967298    0.003233859   -0.026419111
     16        6           0.006625527   -0.006142963   -0.011336317
     17        6           0.008725616   -0.059795740    0.061312784
     18       16           0.022316797    0.012664064   -0.092835556
     19        6          -0.038617528    0.036317715    0.070432536
     20        6          -0.027087320    0.003326052   -0.001838499
     21        6           0.013296634    0.003038769   -0.000468651
     22        6          -0.017703230   -0.002781612   -0.003486124
     23        6           0.031642203    0.006977248   -0.003881005
     24        6          -0.008528427    0.002310795   -0.008229811
     25        6           0.013093046   -0.000318645    0.002924334
     26        7           0.047339925   -0.051019476    0.059313157
     27       16           0.055652698    0.055994483    0.148543461
     28        8           0.134040421    0.036826901   -0.218390844
     29        8          -0.218316828   -0.122588099   -0.003584474
     30        6          -0.045117863    0.089174118    0.057145011
     31        6          -0.003753425    0.015340596   -0.024627086
     32        6           0.026786591   -0.000973739    0.014480526
     33        1          -0.003242208    0.008572561   -0.029065777
     34        1          -0.010902953    0.018148125    0.025911742
     35        1          -0.001975550   -0.019563505   -0.003626641
     36        1          -0.005494609   -0.012468040    0.014912891
     37        1          -0.003800266    0.006461078    0.018726838
     38        1           0.002895413    0.018303632    0.002356159
     39        1          -0.023180001   -0.007739924   -0.017004807
     40        1           0.021639918    0.023963187   -0.006950028
     41        1           0.000805144    0.007666863   -0.014094272
     42        1          -0.007623186    0.015821957    0.001577906
     43        1           0.006880906   -0.017494366   -0.000795082
     44        1          -0.006438719    0.010608741   -0.016631748
     45        1           0.009722601    0.010591799   -0.012690836
     46        1           0.006618644   -0.012516633    0.020856789
     47        1          -0.014373475   -0.012548593    0.015007597
     48        1          -0.012354543    0.003428789   -0.010172162
     49        1           0.025265124   -0.007270606   -0.017110565
     50        1          -0.009530457   -0.001795922    0.023360864
     51        1           0.013244601   -0.018896161    0.001111702
     52        1           0.000816976   -0.013307243   -0.019334832
     53        1          -0.024379969    0.010780202   -0.001298635
 -------------------------------------------------------------------
 Cartesian Forces:  Max     0.218390844 RMS     0.038660511
 Leave Link  716 at Fri Aug 26 16:54:57 2022, MaxMem=  209715200 cpu:       0.2
 (Enter /opt/gaussian/l103.exe)

 GradGradGradGradGradGradGradGradGradGradGradGradGradGradGradGradGradGrad
 Berny optimization.
 Internal  Forces:  Max     0.258619925 RMS     0.024644484
 Search for a local minimum.
 Step number   1 out of a maximum of  299
 All quantities printed in internal units (Hartrees-Bohrs-Radians)
 RMS Force = .24644D-01 SwitMx=.10000D-02 MixMth= 1
 Mixed Optimization -- RFO/linear search
 Second derivative matrix not updated -- first step.
 ITU=  0
     Eigenvalues ---    0.00249   0.00834   0.00895   0.01093   0.01166
     Eigenvalues ---    0.01359   0.01486   0.01515   0.01578   0.01667
     Eigenvalues ---    0.01681   0.01712   0.01762   0.01769   0.01780
     Eigenvalues ---    0.01853   0.01856   0.01903   0.01942   0.01974
     Eigenvalues ---    0.02031   0.02037   0.02040   0.02050   0.02060
     Eigenvalues ---    0.02093   0.02093   0.02097   0.02126   0.02129
     Eigenvalues ---    0.02140   0.02148   0.02160   0.02180   0.02182
     Eigenvalues ---    0.02183   0.02249   0.02284   0.02310   0.02682
     Eigenvalues ---    0.03193   0.03228   0.03528   0.03894   0.04715
     Eigenvalues ---    0.04811   0.06495   0.06588   0.09036   0.09750
     Eigenvalues ---    0.09768   0.10284   0.10291   0.10747   0.10837
     Eigenvalues ---    0.12854   0.13458   0.13717   0.14878   0.15995
     Eigenvalues ---    0.15995   0.15998   0.15998   0.16000   0.16000
     Eigenvalues ---    0.16000   0.16000   0.16000   0.16000   0.16000
     Eigenvalues ---    0.16000   0.16000   0.17356   0.18555   0.22000
     Eigenvalues ---    0.22000   0.22001   0.22092   0.22154   0.22509
     Eigenvalues ---    0.22569   0.22659   0.22952   0.23496   0.24000
     Eigenvalues ---    0.24217   0.24400   0.24428   0.24547   0.24963
     Eigenvalues ---    0.24983   0.24998   0.24999   0.25000   0.25000
     Eigenvalues ---    0.25000   0.27040   0.27246   0.28601   0.30432
     Eigenvalues ---    0.30494   0.30614   0.30662   0.32018   0.32127
     Eigenvalues ---    0.32782   0.32813   0.33112   0.33160   0.33195
     Eigenvalues ---    0.33379   0.33421   0.33498   0.33534   0.33541
     Eigenvalues ---    0.33603   0.33751   0.33920   0.34620   0.34810
     Eigenvalues ---    0.34926   0.35034   0.37413   0.37743   0.38018
     Eigenvalues ---    0.38091   0.38869   0.39621   0.40106   0.40434
     Eigenvalues ---    0.41275   0.41566   0.41696   0.42768   0.43192
     Eigenvalues ---    0.43862   0.43914   0.45053   0.45307   0.45879
     Eigenvalues ---    0.45884   0.46073   0.46186   0.46786   0.46856
     Eigenvalues ---    0.47668   0.47773   0.47976   0.49036   0.77486
     Eigenvalues ---    0.86263   1.15570   1.18378
 RFO step:  Lambda=-1.81256777D-01 EMin= 2.49047359D-03
 Linear search not attempted -- first point.
 Maximum step size (   0.300) exceeded in Quadratic search.
    -- Step size scaled by   0.629
 Iteration  1 RMS(Cart)=  0.06870716 RMS(Int)=  0.00086924
 Iteration  2 RMS(Cart)=  0.00158210 RMS(Int)=  0.00004889
 Iteration  3 RMS(Cart)=  0.00000214 RMS(Int)=  0.00004888
 Iteration  4 RMS(Cart)=  0.00000000 RMS(Int)=  0.00004888
 Variable       Old X    -DE/DX   Delta X   Delta X   Delta X     New X
                                 (Linear)    (Quad)   (Total)
    R1        2.34705  -0.03597   0.00000  -0.02167  -0.02167   2.32537
    R2        2.90843  -0.01221   0.00000  -0.01644  -0.01644   2.89199
    R3        2.64268  -0.01804   0.00000  -0.01772  -0.01772   2.62495
    R4        2.72072  -0.00971   0.00000  -0.01058  -0.01058   2.71014
    R5        2.13362  -0.03037   0.00000  -0.03915  -0.03915   2.09447
    R6        2.13456  -0.03295   0.00000  -0.04251  -0.04251   2.09205
    R7        2.60212  -0.01020   0.00000  -0.00883  -0.00885   2.59327
    R8        2.68327  -0.03253   0.00000  -0.03447  -0.03447   2.64880
    R9        2.36914  -0.00344   0.00000  -0.00149  -0.00150   2.36764
   R10        2.71067  -0.02621   0.00000  -0.02806  -0.02805   2.68262
   R11        2.63395  -0.01180   0.00000  -0.01190  -0.01189   2.62207
   R12        2.73652  -0.04588   0.00000  -0.05301  -0.05297   2.68354
   R13        2.63044  -0.01139   0.00000  -0.01062  -0.01063   2.61981
   R14        2.07752  -0.01999   0.00000  -0.02424  -0.02424   2.05328
   R15        2.65312  -0.00759   0.00000  -0.00675  -0.00677   2.64636
   R16        2.08005  -0.02020   0.00000  -0.02456  -0.02456   2.05549
   R17        2.63005  -0.00982   0.00000  -0.00902  -0.00904   2.62101
   R18        2.08111  -0.02017   0.00000  -0.02455  -0.02455   2.05656
   R19        2.63527  -0.00912   0.00000  -0.00924  -0.00923   2.62603
   R20        2.07465  -0.01857   0.00000  -0.02244  -0.02244   2.05221
   R21        2.73120   0.01598   0.00000   0.01763   0.01763   2.74883
   R22        2.69312   0.00925   0.00000   0.00972   0.00972   2.70285
[...]
 ! D130  D(27,30,32,53)          0.3986         -DE/DX =    0.0                 !
 ! D131  D(49,30,32,52)          0.3653         -DE/DX =    0.0                 !
 ! D132  D(49,30,32,53)        142.7957         -DE/DX =    0.0                 !
 ! D133  D(50,31,32,52)        146.9385         -DE/DX =    0.0                 !
 ! D134  D(50,31,32,53)          0.2191         -DE/DX =    0.0                 !
 ! D135  D(51,31,32,52)         -0.041          -DE/DX =    0.0                 !
 ! D136  D(51,31,32,53)       -146.7605         -DE/DX =    0.0                 !
 --------------------------------------------------------------------------------
 GradGradGradGradGradGradGradGradGradGradGradGradGradGradGradGradGradGrad

 Largest change from initial coordinates is atom   45       2.322 Angstoms.
 Leave Link  103 at Fri Aug 26 18:02:38 2022, MaxMem=  209715200 cpu:       0.8
 (Enter /opt/gaussian/l202.exe)
 Stoichiometry    C22H21N5O3S2
 Framework group  C1[X(C22H21N5O3S2)]
 Deg. of freedom   153
 Full point group                 C1      NOp   1
 RotChk:  IX=0 Diff= 9.15D-16
 Largest Abelian subgroup         C1      NOp   1
 Largest concise Abelian subgroup C1      NOp   1
                         Standard orientation:                         
 ---------------------------------------------------------------------
 Center     Atomic      Atomic             Coordinates (Angstroms)
 Number     Number       Type             X           Y           Z
 ---------------------------------------------------------------------
      1          8           0        1.231191   -1.237310   -0.593440
      2          6           0        1.566767   -0.125097   -0.968602
      3          6           0        3.037963    0.201008   -1.197154
      4          7           0        3.876347   -0.939725   -1.000124
      5          7           0        4.278868   -1.671620   -2.078346
      6          7           0        4.964030   -2.662529   -1.684940
      7          6           0        5.037786   -2.636565   -0.301045
      8          6           0        5.675254   -3.498358    0.590374
      9          6           0        5.573557   -3.206790    1.928569
     10          6           0        4.848543   -2.079370    2.374962
     11          6           0        4.215505   -1.226114    1.502797
     12          6           0        4.327133   -1.528834    0.143387
     13          7           0        0.660332    0.879073   -1.209969
     14          6           0        1.078154    2.251746   -1.510003
     15          6           0        1.536630    3.057740   -0.316946
     16          6           0        2.139491    4.365750   -0.482597
     17          6           0        2.483240    4.955963    0.671717
     18         16           0        2.088176    3.933302    2.082261
     19          6           0        1.441035    2.688397    0.972699
     20          6           0       -0.745928    0.598981   -1.168483
     21          6           0       -1.266546   -0.493601   -1.855259
     22          6           0       -2.626974   -0.738207   -1.832974
     23          6           0       -3.486618    0.117428   -1.154990
     24          6           0       -2.972253    1.215110   -0.480954
     25          6           0       -1.604572    1.446611   -0.480566
     26          7           0       -4.885174   -0.158869   -1.185550
     27         16           0       -5.813549   -0.499841    0.231833
     28          8           0       -5.389876    0.489502    1.473469
     29          8           0       -7.367180   -0.467662   -0.323401
     30          6           0       -5.320553   -2.180457    0.696316
     31          6           0       -5.470258   -2.579496    2.135799
     32          6           0       -4.104893   -2.367178    1.558890
     33          1           0        3.187172    0.521096   -2.217857
     34          1           0        3.352249    1.002619   -0.543640
     35          1           0        6.217924   -4.349139    0.230842
     36          1           0        6.045880   -3.840281    2.652975
     37          1           0        4.789193   -1.888972    3.429020
     38          1           0        3.659093   -0.380570    1.854206
     39          1           0        1.863622    2.242816   -2.256010
     40          1           0        0.235948    2.744761   -1.974887
     41          1           0        2.296005    4.820472   -1.440500
     42          1           0        2.938694    5.909388    0.816269
     43          1           0        1.029814    1.788253    1.371502
     44          1           0       -0.612961   -1.160809   -2.375257
     45          1           0       -3.032656   -1.586571   -2.346796
     46          1           0       -3.630097    1.861499    0.062754
     47          1           0       -1.216266    2.284778    0.061443
     48          1           0       -5.472905    0.229118   -1.893536
     49          1           0       -5.561807   -2.852396   -0.099071
     50          1           0       -5.828847   -1.838653    2.822026
     51          1           0       -5.823026   -3.574540    2.319513
     52          1           0       -3.483578   -3.210401    1.331733
     53          1           0       -3.576186   -1.490398    1.873637
 ---------------------------------------------------------------------
 Rotational constants (GHZ):      0.1580072      0.0607757      0.0514060
 Leave Link  202 at Fri Aug 26 18:02:38 2022, MaxMem=  209715200 cpu:       0.0
 (Enter /opt/gaussian/l601.exe)
 Copying SCF densities to generalized density rwf, IOpCl= 0 IROHF=0.

 **********************************************************************

            Population analysis using the SCF density.

 **********************************************************************

 Orbital symmetries:
       Occupied  (A) (A) (A) (A) (A) (A) (A) (A) (A) (A) (A) (A)
                 (A) (A) (A) (A) (A) (A) (A) (A) (A) (A) (A) (A)
                 (A) (A) (A) (A) (A) (A) (A) (A) (A) (A) (A) (A)
                 (A) (A) (A) (A) (A) (A) (A) (A) (A) (A) (A) (A)
                 (A) (A) (A) (A) (A) (A) (A) (A) (A) (A) (A) (A)
                 (A) (A) (A) (A) (A) (A) (A) (A) (A) (A) (A) (A)
                 (A) (A) (A) (A) (A) (A) (A) (A) (A) (A) (A) (A)
                 (A) (A) (A) (A) (A) (A) (A) (A) (A) (A) (A) (A)
                 (A) (A) (A) (A) (A) (A) (A) (A) (A) (A) (A) (A)
                 (A) (A) (A) (A) (A) (A) (A) (A) (A) (A) (A) (A)
                 (A) (A)
       Virtual   (A) (A) (A) (A) (A) (A) (A) (A) (A) (A) (A) (A)
                 (A) (A) (A) (A) (A) (A) (A) (A) (A) (A) (A) (A)
                 (A) (A) (A) (A) (A) (A) (A) (A) (A) (A) (A) (A)
                 (A) (A) (A) (A) (A) (A) (A) (A) (A) (A) (A) (A)
                 (A) (A) (A) (A) (A) (A) (A) (A) (A) (A) (A) (A)
                 (A) (A) (A) (A) (A) (A) (A) (A) (A) (A) (A) (A)
                 (A) (A) (A) (A) (A) (A) (A) (A) (A) (A) (A) (A)
                 (A) (A) (A) (A) (A) (A) (A) (A) (A) (A) (A) (A)
                 (A) (A) (A) (A) (A) (A) (A) (A) (A) (A) (A) (A)
                 (A) (A) (A) (A) (A) (A) (A) (A) (A) (A) (A) (A)
                 (A) (A) (A) (A) (A) (A) (A) (A) (A) (A) (A) (A)
                 (A) (A) (A) (A) (A) (A) (A) (A) (A) (A) (A) (A)
                 (A) (A) (A) (A) (A) (A) (A) (A) (A) (A) (A) (A)
                 (A) (A) (A) (A) (A) (A) (A) (A) (A) (A) (A) (A)
                 (A) (A) (A) (A) (A) (A) (A) (A) (A) (A) (A) (A)
                 (A) (A) (A) (A) (A) (A) (A) (A) (A) (A) (A) (A)
                 (A) (A) (A) (A) (A) (A) (A) (A) (A) (A) (A) (A)
                 (A) (A) (A) (A) (A) (A) (A) (A) (A) (A) (A) (A)
 The electronic state is 1-A.
 Alpha  occ. eigenvalues --  -92.18947 -91.99264 -20.56379 -20.56330 -20.56007
 Alpha  occ. eigenvalues --  -15.66880 -15.65992 -15.63278 -15.62555 -15.61716
 Alpha  occ. eigenvalues --  -11.39837 -11.31934 -11.31890 -11.31331 -11.31318
 Alpha  occ. eigenvalues --  -11.30511 -11.30155 -11.30000 -11.29758 -11.28623
 Alpha  occ. eigenvalues --  -11.27250 -11.27038 -11.27022 -11.26955 -11.26306
 Alpha  occ. eigenvalues --  -11.26161 -11.26012 -11.25899 -11.25794 -11.25752
 Alpha  occ. eigenvalues --  -11.25727 -11.24549  -9.19570  -9.01041  -6.87724
 Alpha  occ. eigenvalues --   -6.87647  -6.87602  -6.69170  -6.69036  -6.68774
 Alpha  occ. eigenvalues --   -1.48017  -1.43292  -1.38086  -1.29827  -1.26714
 Alpha  occ. eigenvalues --   -1.25524  -1.25174  -1.20557  -1.20339  -1.18265
 Alpha  occ. eigenvalues --   -1.16793  -1.07240  -1.06744  -1.06026  -1.05010
 Alpha  occ. eigenvalues --   -1.03662  -1.02045  -1.01579  -0.97243  -0.95799
 Alpha  occ. eigenvalues --   -0.89390  -0.88488  -0.86818  -0.86643  -0.85540
 Alpha  occ. eigenvalues --   -0.83272  -0.81875  -0.81004  -0.78703  -0.76530
 Alpha  occ. eigenvalues --   -0.75082  -0.74375  -0.73166  -0.72898  -0.72787
 Alpha  occ. eigenvalues --   -0.71405  -0.70402  -0.68958  -0.67516  -0.66994
 Alpha  occ. eigenvalues --   -0.66039  -0.65387  -0.65102  -0.64315  -0.63013
 Alpha  occ. eigenvalues --   -0.62698  -0.61878  -0.61505  -0.61308  -0.60344
 Alpha  occ. eigenvalues --   -0.59335  -0.58625  -0.57661  -0.56369  -0.55365
 Alpha  occ. eigenvalues --   -0.54951  -0.54169  -0.53892  -0.53608  -0.53303
 Alpha  occ. eigenvalues --   -0.53143  -0.52432  -0.51086  -0.49951  -0.48803
 Alpha  occ. eigenvalues --   -0.48631  -0.48325  -0.46978  -0.46485  -0.45609
 Alpha  occ. eigenvalues --   -0.44441  -0.44062  -0.43694  -0.43350  -0.42776
 Alpha  occ. eigenvalues --   -0.42216  -0.37122  -0.36389  -0.35947  -0.34223
 Alpha  occ. eigenvalues --   -0.34111  -0.32597
 Alpha virt. eigenvalues --    0.09355   0.09944   0.10040   0.11977   0.15286
 Alpha virt. eigenvalues --    0.15787   0.16233   0.17604   0.17930   0.18147
 Alpha virt. eigenvalues --    0.20026   0.20564   0.21015   0.22022   0.22943
 Alpha virt. eigenvalues --    0.23145   0.23662   0.24076   0.24392   0.25140
 Alpha virt. eigenvalues --    0.26192   0.26450   0.27570   0.27836   0.28056
 Alpha virt. eigenvalues --    0.28833   0.28986   0.29436   0.30079   0.31368
 Alpha virt. eigenvalues --    0.31599   0.32048   0.32791   0.33367   0.33935
 Alpha virt. eigenvalues --    0.34752   0.35860   0.36040   0.36831   0.37271
 Alpha virt. eigenvalues --    0.37449   0.39615   0.39738   0.40193   0.40638
 Alpha virt. eigenvalues --    0.41929   0.42307   0.43770   0.44126   0.45345
 Alpha virt. eigenvalues --    0.46049   0.46765   0.47967   0.48893   0.50689
 Alpha virt. eigenvalues --    0.51219   0.51450   0.52103   0.52804   0.53731
 Alpha virt. eigenvalues --    0.54194   0.55678   0.56814   0.57153   0.58657
 Alpha virt. eigenvalues --    0.58732   0.59904   0.61029   0.61537   0.62646
 Alpha virt. eigenvalues --    0.63786   0.69333   0.70586   0.71671   0.72663
 Alpha virt. eigenvalues --    0.73002   0.73609   0.73972   0.74685   0.75007
 Alpha virt. eigenvalues --    0.75947   0.76560   0.77092   0.77443   0.78119
 Alpha virt. eigenvalues --    0.79094   0.79320   0.79781   0.81609   0.81978
 Alpha virt. eigenvalues --    0.82340   0.82825   0.82969   0.83323   0.83729
 Alpha virt. eigenvalues --    0.84215   0.84779   0.85252   0.85448   0.85812
 Alpha virt. eigenvalues --    0.86284   0.86465   0.86879   0.88143   0.88763
 Alpha virt. eigenvalues --    0.89455   0.89704   0.90119   0.90750   0.91505
 Alpha virt. eigenvalues --    0.92016   0.93350   0.93519   0.93906   0.94729
 Alpha virt. eigenvalues --    0.95252   0.95770   0.96459   0.97252   0.99265
 Alpha virt. eigenvalues --    0.99916   1.00411   1.00707   1.02314   1.03634
 Alpha virt. eigenvalues --    1.04566   1.05102   1.05834   1.07238   1.07604
 Alpha virt. eigenvalues --    1.09439   1.09878   1.10580   1.11201   1.11743
 Alpha virt. eigenvalues --    1.12535   1.13036   1.13404   1.13587   1.13985
 Alpha virt. eigenvalues --    1.14985   1.15651   1.15920   1.16528   1.17130
 Alpha virt. eigenvalues --    1.17474   1.17565   1.18661   1.19558   1.20262
 Alpha virt. eigenvalues --    1.20618   1.21167   1.21265   1.22343   1.22666
 Alpha virt. eigenvalues --    1.22973   1.23945   1.24425   1.24859   1.25755
 Alpha virt. eigenvalues --    1.26637   1.26758   1.28158   1.29332   1.29640
 Alpha virt. eigenvalues --    1.29936   1.30856   1.32135   1.32245   1.32363
 Alpha virt. eigenvalues --    1.33904   1.34928   1.35436   1.36547   1.37667
 Alpha virt. eigenvalues --    1.38950   1.39412   1.41854   1.42294   1.43656
 Alpha virt. eigenvalues --    1.44063   1.44745   1.45875   1.46204   1.47397
 Alpha virt. eigenvalues --    1.47968   1.49887   1.51391   1.53211   1.54997
 Alpha virt. eigenvalues --    1.55572   1.56865   1.59084   1.59533   1.60982
 Alpha virt. eigenvalues --    1.62947   1.64113   1.65344   1.66953   1.69459
 Alpha virt. eigenvalues --    1.71115   1.72644   1.74101   1.78644   1.82530
 Alpha virt. eigenvalues --    1.87205   1.89198   1.94764   2.02302   2.04143
 Alpha virt. eigenvalues --    2.07002   2.11697   2.16467   2.24287   2.25604
 Alpha virt. eigenvalues --    2.33401
          Condensed to atoms (all electrons):
 Mulliken atomic charges:
              1
     1  O   -0.569652
     2  C    0.787759
     3  C   -0.132028
     4  N   -0.882522
     5  N    0.096020
     6  N   -0.333524
     7  C   -0.019822
     8  C   -0.078262
     9  C   -0.233718
    10  C   -0.204561
    11  C   -0.069057
    12  C    0.486040
    13  N   -0.987221
    14  C   -0.085931
    15  C    0.064573
    16  C   -0.103699
    17  C   -0.551477
    18  S    0.485929
    19  C   -0.602945
    20  C    0.340160
    21  C   -0.155982
    22  C   -0.171409
    23  C    0.214227
    24  C   -0.142558
    25  C   -0.233025
    26  N   -1.088348
    27  S    1.709823
    28  O   -0.742727
    29  O   -0.711274
    30  C   -0.549963
    31  C   -0.321588
    32  C   -0.322647
    33  H    0.249967
    34  H    0.241425
    35  H    0.241640
    36  H    0.205438
    37  H    0.206852
    38  H    0.224218
    39  H    0.195708
    40  H    0.226674
    41  H    0.223465
    42  H    0.240762
    43  H    0.250305
    44  H    0.247485
    45  H    0.229822
    46  H    0.272709
    47  H    0.237994
    48  H    0.428621
    49  H    0.268893
    50  H    0.248061
    51  H    0.210497
    52  H    0.213413
    53  H    0.245461
 Sum of Mulliken atomic charges =   0.00000
 Mulliken charges with hydrogens summed into heavy atoms:
              1
     1  O   -0.569652
     2  C    0.787759
     3  C    0.359364
     4  N   -0.882522
     5  N    0.096020
     6  N   -0.333524
     7  C   -0.019822
     8  C    0.163378
     9  C   -0.028280
    10  C    0.002292
    11  C    0.155161
    12  C    0.486040
    13  N   -0.987221
    14  C    0.336451
    15  C    0.064573
    16  C    0.119766
    17  C   -0.310715
    18  S    0.485929
    19  C   -0.352640
    20  C    0.340160
    21  C    0.091503
    22  C    0.058413
    23  C    0.214227
    24  C    0.130152
    25  C    0.004969
    26  N   -0.659727
    27  S    1.709823
    28  O   -0.742727
    29  O   -0.711274
    30  C   -0.281069
    31  C    0.136970
    32  C    0.136227
 Sum of Mulliken charges with hydrogens summed into heavy atoms =   0.00000
 Electronic spatial extent (au):  <R**2>=          20541.6672
 Charge=              0.0000 electrons
 Dipole moment (field-independent basis, Debye):
    X=              4.2714    Y=              2.6918    Z=             -0.0722  Tot=              5.0494
 Quadrupole moment (field-independent basis, Debye-Ang):
   XX=           -262.3922   YY=           -182.7441   ZZ=           -200.2482
   XY=             33.3835   XZ=             21.2442   YZ=            -24.6542
 Traceless Quadrupole moment (field-independent basis, Debye-Ang):
   XX=            -47.2640   YY=             32.3841   ZZ=             14.8800
   XY=             33.3835   XZ=             21.2442   YZ=            -24.6542
 Octapole moment (field-independent basis, Debye-Ang**2):
  XXX=            400.5558  YYY=             42.4626  ZZZ=             17.3708  XYY=            -22.0085
  XXY=            -65.0721  XXZ=             68.7492  XZZ=            -43.1431  YZZ=             -1.4735
  YYZ=             17.2476  XYZ=            -33.8704
 Hexadecapole moment (field-independent basis, Debye-Ang**3):
 XXXX=         -24036.4913 YYYY=          -5795.9952 ZZZZ=          -2412.2604 XXXY=            365.0303
 XXXZ=            457.7749 YYYX=            428.8025 YYYZ=           -156.1734 ZZZX=            157.2879
 ZZZY=           -142.6033 XXYY=          -3747.4536 XXZZ=          -3629.7006 YYZZ=          -1490.9956
 XXYZ=           -575.1251 YYXZ=             99.7707 ZZXY=            142.5125
 N-N= 3.397697826582D+03 E-N=-1.182195706328D+04  KE= 2.137503058702D+03
 No NMR shielding tensors so no spin-rotation constants.
 Leave Link  601 at Fri Aug 26 18:02:39 2022, MaxMem=  209715200 cpu:       1.5
 (Enter /opt/gaussian/l9999.exe)
 1\1\GINC-LQCAPF-6\FOpt\RHF\6-31G\C22H21N5O3S2\LQCAPF-6\26-Aug-2022\0\\
 #p opt hf/6-31G\\Mol13.out\\0,1\O,20.9193082455,-6.8646220852,0.022152
 1754\C,21.4667729395,-7.9503090586,0.1314220409\C,22.9776000795,-8.038
 0457072,0.312265286\N,23.5811018672,-6.7461826355,0.4115416754\N,23.86
 09893743,-6.2284347978,1.6419304932\N,24.3381819827,-5.0616766598,1.51
 1245624\C,24.3860873595,-4.7444238355,0.1627895188\C,24.8302535931,-3.
 59163558,-0.4833332023\C,24.7570315628,-3.5714116435,-1.8545920113\C,2
 4.2486455204,-4.6766779549,-2.5728668829\C,23.8068081994,-5.8159307438
 ,-1.9433140882\C,23.8881244535,-5.8286846138,-0.548566763\N,20.7716131
 986,-9.1353576083,0.1058735236\C,21.4474155386,-10.4359630548,0.082522
 4517\C,22.024387969,-10.8348547115,-1.2558344762\C,22.8667895223,-12.0
 071036288,-1.3898574886\C,23.2912015352,-12.2311526067,-2.6423086888\S
 ,22.6802402999,-10.9965500896,-3.7798620909\C,21.8333813934,-10.195118
 2561,-2.4233059771\C,19.3372048552,-9.1235868226,0.0974179114\C,18.634
 3441281,-8.3432461561,1.0103770503\C,17.2520404092,-8.3612098352,1.013
 291829\C,16.5552328926,-9.1779189833,0.131131918\C,17.2531877746,-9.96
 73184898,-0.7708139564\C,18.6396558641,-9.9301233706,-0.7924701181\N,1
 5.1306351337,-9.1853938536,0.191942098\S,14.1246667075,-8.6993449168,-
 1.1267314616\O,14.7010618613,-9.2680156719,-2.5565362181\O,12.61722173
 3,-9.1544223159,-0.6331677159\C,14.2814385252,-6.8946310374,-1.1678608
 784\C,14.0285155101,-6.2012661999,-2.4751600946\C,15.4213547789,-6.283
 0925388,-1.9316271436\H,23.2062264767,-8.5569757361,1.2315013991\H,23.
 4236480886,-8.5878486916,-0.5045554672\H,25.2100122134,-2.7637846894,0
 .0806067806\H,25.0857242484,-2.7069197668,-2.3966059935\H,24.203932263
 4,-4.6194190906,-3.643162419\H,23.4127406707,-6.643306139,-2.498461725
 3\H,22.2327369884,-10.456300245,0.8284598909\H,20.7235367256,-11.17475
 05962,0.3966659573\H,23.1266790007,-12.6380784642,-0.5633137927\H,23.9
 153296933,-13.0197029234,-2.9972791117\H,21.2511944909,-9.3201906289,-
 2.6076037484\H,19.161073131,-7.7074896693,1.6894263162\H,16.7044644301
 ,-7.7509543618,1.7032639813\H,16.7178422993,-10.5784148954,-1.46806704
 82\H,19.1676480989,-10.5272520625,-1.507829939\H,14.6419268073,-9.8337
 661464,0.7733062009\H,13.9345931398,-6.488284135,-0.2421580409\H,13.80
 17793265,-6.8121988865,-3.3258628407\H,13.4903664923,-5.2758735127,-2.
 426649001\H,15.8769397823,-5.4162410822,-1.4961179997\H,16.0993108245,
 -6.9444428137,-2.4319577384\\Version=EM64L-G09RevC.01\State=1-A\HF=-21
 36.2167373\RMSD=4.650e-09\RMSF=6.949e-06\Dipole=1.8504786,-0.6993614,-
 0.1819745\Quadrupole=-24.3158232,22.0218634,2.2939598,-30.8088418,-19.
 148075,-17.7012561\PG=C01 [X(C22H21N5O3S2)]\\@


 GOORD'S AXIOM:  A MEETING IS AN EVENT AT WHICH
 THE MINUTES ARE KEPT AND THE HOURS ARE LOST.
 Job cpu time:  0 days  8 hours 46 minutes 45.6 seconds.
 File lengths (MBytes):  RWF=     78 Int=      0 D2E=      0 Chk=     11 Scr=      1
 Normal termination of Gaussian 09 at Fri Aug 26 18:02:39 2022.
