 Entering Gaussian System, Link 0=g09
 Input=Mol15.gjf
 Output=Mol15.log
 Initial command:
 /opt/gaussian/l1.exe /home/scr/lqcapf-6/Gau-243998.inp -scrdir=/home/scr/lqcapf-6/
 Entering Link 1 = /opt/gaussian/l1.exe PID=    244000.
  
 Copyright (c) 1988,1990,1992,1993,1995,1998,2003,2009,2011,
            Gaussian, Inc.  All Rights Reserved.
  
 This is part of the Gaussian(R) 09 program.  It is based on
 the Gaussian(R) 03 system (copyright 2003, Gaussian, Inc.),
 the Gaussian(R) 98 system (copyright 1998, Gaussian, Inc.),
 the Gaussian(R) 94 system (copyright 1995, Gaussian, Inc.),
 the Gaussian 92(TM) system (copyright 1992, Gaussian, Inc.),
 the Gaussian 90(TM) system (copyright 1990, Gaussian, Inc.),
 the Gaussian 88(TM) system (copyright 1988, Gaussian, Inc.),
 the Gaussian 86(TM) system (copyright 1986, Carnegie Mellon
 University), and the Gaussian 82(TM) system (copyright 1983,
 Carnegie Mellon University). Gaussian is a federally registered
 trademark of Gaussian, Inc.
  
 This software contains proprietary and confidential information,
 including trade secrets, belonging to Gaussian, Inc.
  
 This software is provided under written license and may be
 used, copied, transmitted, or stored only in accord with that
 written license.
  
 The following legend is applicable only to US Government
 contracts under FAR:
  
                    RESTRICTED RIGHTS LEGEND
  
 Use, reproduction and disclosure by the US Government is
 subject to restrictions as set forth in subparagraphs (a)
 and (c) of the Commercial Computer Software - Restricted
 Rights clause in FAR 52.227-19.
  
 Gaussian, Inc.
 340 Quinnipiac St., Bldg. 40, Wallingford CT 06492
  
  
 ---------------------------------------------------------------
 Warning -- This program may not be used in any manner that
 competes with the business of Gaussian, Inc. or will provide
 assistance to any competitor of Gaussian, Inc.  The licensee
 of this program is prohibited from giving any competitor of
 Gaussian, Inc. access to this program.  By using this program,
 the user acknowledges that Gaussian, Inc. is engaged in the
 business of creating and licensing software in the field of
 computational chemistry and represents and warrants to the
 licensee that it is not a competitor of Gaussian, Inc. and that
 it will not use this program in any manner prohibited above.
 ---------------------------------------------------------------
  

 Cite this work as:
 Gaussian 09, Revision C.01,
 M. J. Frisch, G. W. Trucks, H. B. Schlegel, G. E. Scuseria, 
 M. A. Robb, J. R. Cheeseman, G. Scalmani, V. Barone, B. Mennucci, 
 G. A. Petersson, H. Nakatsuji, M. Caricato, X. Li, H. P. Hratchian, 
 A. F. Izmaylov, J. Bloino, G. Zheng, J. L. Sonnenberg, M. Hada, 
 M. Ehara, K. Toyota, R. Fukuda, J. Hasegawa, M. Ishida, T. Nakajima, 
 Y. Honda, O. Kitao, H. Nakai, T. Vreven, J. A. Montgomery, Jr., 
 J. E. Peralta, F. Ogliaro, M. Bearpark, J. J. Heyd, E. Brothers, 
 K. N. Kudin, V. N. Staroverov, T. Keith, R. Kobayashi, J. Normand, 
 K. Raghavachari, A. Rendell, J. C. Burant, S. S. Iyengar, J. Tomasi, 
 M. Cossi, N. Rega, J. M. Millam, M. Klene, J. E. Knox, J. B. Cross, 
 V. Bakken, C. Adamo, J. Jaramillo, R. Gomperts, R. E. Stratmann, 
 O. Yazyev, A. J. Austin, R. Cammi, C. Pomelli, J. W. Ochterski, 
 R. L. Martin, K. Morokuma, V. G. Zakrzewski, G. A. Voth, 
 P. Salvador, J. J. Dannenberg, S. Dapprich, A. D. Daniels, 
 O. Farkas, J. B. Foresman, J. V. Ortiz, J. Cioslowski, 
 and D. J. Fox, Gaussian, Inc., Wallingford CT, 2010.
 
 ******************************************
 Gaussian 09:  EM64L-G09RevC.01 23-Sep-2011
                26-Aug-2022 
 ******************************************
 %nprocshared=8
 Will use up to    8 processors via shared memory.
 %mem=1600MB
 ---------------
 #p opt hf/6-31G
 ---------------
 1/18=20,19=15,38=1/1,3;
 2/9=110,12=2,17=6,18=5,40=1/2;
 3/5=1,6=6,11=9,16=1,25=1,30=1,71=1/1,2,3;
 4//1;
 5/5=2,38=5/2;
 6/7=2,8=2,9=2,10=2,28=1/1;
 7//1,2,3,16;
 1/18=20,19=15/3(2);
 2/9=110/2;
 99//99;
 2/9=110/2;
 3/5=1,6=6,11=9,16=1,25=1,30=1,71=1/1,2,3;
 4/5=5,16=3/1;
 5/5=2,38=5/2;
 7//1,2,3,16;
 1/18=20,19=15/3(-5);
 2/9=110/2;
 6/7=2,8=2,9=2,10=2,19=2,28=1/1;
 99/9=1/99;
 Leave Link    1 at Fri Aug 26 18:46:19 2022, MaxMem=  209715200 cpu:       0.1
 (Enter /opt/gaussian/l101.exe)
 ---------
 Mol15.out
 ---------
 Charge =  0 Multiplicity = 1
 Symbolic Z-Matrix:
 O                     21.1242  -6.5983   -0.1615 
 C                     21.6831  -7.642     0.2114 
 C                     23.1803  -7.6709    0.571 
 N                     23.9029  -6.4638    0.2647 
 N                     23.7889  -5.306     1.0015 
 N                     24.1919  -4.2983    0.3738 
 C                     24.5682  -4.6837   -0.9556 
 C                     25.0731  -3.9826   -2.0491 
 C                     25.3362  -4.7058   -3.2089 
 C                     25.1175  -6.0905   -3.2837 
 C                     24.6247  -6.8205   -2.2061 
 C                     24.3435  -6.1119   -1.0384 
 N                     20.9749  -8.84      0.3562 
 C                     21.6462  -10.0629   0.7348 
 C                     22.4289  -10.7669  -0.3204 
 C                     23.3483  -11.8154   0.0249 
 C                     23.9316  -12.3621  -1.0953 
 S                     23.3845  -11.6319  -2.4942 
 C                     22.3717  -10.582   -1.687 
 C                     19.6142  -8.9326   -0.0442 
 C                     19.1482  -10.0713  -0.7388 
 C                     17.8117  -10.1764  -1.1026 
 C                     16.9056  -9.1527   -0.8003 
 C                     17.361   -8.0219   -0.1135 
 C                     18.6954  -7.9071    0.2637 
 C                     15.4964  -9.276    -1.2095 
 C                     15.1997  -9.8284   -2.4775 
 C                     13.8666  -9.9508   -2.8692 
 C                     12.8636  -9.5238   -2.0001 
 C                     13.2481  -8.9811   -0.7595 
 N                     14.5234  -8.8522   -0.3587 
 H                     23.2685  -7.8614    1.6805 
 H                     23.6778  -8.5096    0.0022 
 H                     25.253   -2.8996   -1.9925 
 H                     25.7245  -4.1796   -4.0942 
 H                     25.3414  -6.6148   -4.2258 
 H                     24.4628  -7.904    -2.2739 
 H                     22.34    -9.8346    1.5983 
 H                     20.864   -10.7834   1.1237 
 H                     23.54    -12.1256   1.0542 
 H                     24.6601  -13.1718  -1.0973 
 H                     21.7426  -9.8549   -2.202 
 H                     19.8412  -10.8869  -1.0012 
 H                     17.4657  -11.0789  -1.6297 
 H                     16.6597  -7.2097    0.1367 
 H                     19.0313  -6.9972    0.788 
 H                     16.0127  -10.1457  -3.1445 
 H                     13.6137  -10.3756  -3.8514 
 H                     11.8031  -9.6033   -2.2689 
 H                     12.489   -8.6266   -0.0386 
 
 NAtoms=     50 NQM=        0 NQMF=       0 NMMI=     50 NMMIF=      0
                NMic=       0 NMicF=      0.
                    Isotopes and Nuclear Properties:
 (Nuclear quadrupole moments (NQMom) in fm**2, nuclear magnetic moments (NMagM)
  in nuclear magnetons)

  Atom         1           2           3           4           5           6           7           8           9          10
 IAtWgt=          16          12          12          14          14          14          12          12          12          12
 AtmWgt=  15.9949146  12.0000000  12.0000000  14.0030740  14.0030740  14.0030740  12.0000000  12.0000000  12.0000000  12.0000000
 NucSpn=           0           0           0           2           2           2           0           0           0           0
 AtZEff=   0.0000000   0.0000000   0.0000000   0.0000000   0.0000000   0.0000000   0.0000000   0.0000000   0.0000000   0.0000000
 NQMom=    0.0000000   0.0000000   0.0000000   2.0440000   2.0440000   2.0440000   0.0000000   0.0000000   0.0000000   0.0000000
 NMagM=    0.0000000   0.0000000   0.0000000   0.4037610   0.4037610   0.4037610   0.0000000   0.0000000   0.0000000   0.0000000

  Atom        11          12          13          14          15          16          17          18          19          20
 IAtWgt=          12          12          14          12          12          12          12          32          12          12
 AtmWgt=  12.0000000  12.0000000  14.0030740  12.0000000  12.0000000  12.0000000  12.0000000  31.9720718  12.0000000  12.0000000
 NucSpn=           0           0           2           0           0           0           0           0           0           0
 AtZEff=   0.0000000   0.0000000   0.0000000   0.0000000   0.0000000   0.0000000   0.0000000   0.0000000   0.0000000   0.0000000
 NQMom=    0.0000000   0.0000000   2.0440000   0.0000000   0.0000000   0.0000000   0.0000000   0.0000000   0.0000000   0.0000000
 NMagM=    0.0000000   0.0000000   0.4037610   0.0000000   0.0000000   0.0000000   0.0000000   0.0000000   0.0000000   0.0000000

  Atom        21          22          23          24          25          26          27          28          29          30
 IAtWgt=          12          12          12          12          12          12          12          12          12          12
 AtmWgt=  12.0000000  12.0000000  12.0000000  12.0000000  12.0000000  12.0000000  12.0000000  12.0000000  12.0000000  12.0000000
 NucSpn=           0           0           0           0           0           0           0           0           0           0
 AtZEff=   0.0000000   0.0000000   0.0000000   0.0000000   0.0000000   0.0000000   0.0000000   0.0000000   0.0000000   0.0000000
 NQMom=    0.0000000   0.0000000   0.0000000   0.0000000   0.0000000   0.0000000   0.0000000   0.0000000   0.0000000   0.0000000
 NMagM=    0.0000000   0.0000000   0.0000000   0.0000000   0.0000000   0.0000000   0.0000000   0.0000000   0.0000000   0.0000000

  Atom        31          32          33          34          35          36          37          38          39          40
 IAtWgt=          14           1           1           1           1           1           1           1           1           1
 AtmWgt=  14.0030740   1.0078250   1.0078250   1.0078250   1.0078250   1.0078250   1.0078250   1.0078250   1.0078250   1.0078250
 NucSpn=           2           1           1           1           1           1           1           1           1           1
 AtZEff=   0.0000000   0.0000000   0.0000000   0.0000000   0.0000000   0.0000000   0.0000000   0.0000000   0.0000000   0.0000000
 NQMom=    2.0440000   0.0000000   0.0000000   0.0000000   0.0000000   0.0000000   0.0000000   0.0000000   0.0000000   0.0000000
 NMagM=    0.4037610   2.7928460   2.7928460   2.7928460   2.7928460   2.7928460   2.7928460   2.7928460   2.7928460   2.7928460

  Atom        41          42          43          44          45          46          47          48          49          50
 IAtWgt=           1           1           1           1           1           1           1           1           1           1
 AtmWgt=   1.0078250   1.0078250   1.0078250   1.0078250   1.0078250   1.0078250   1.0078250   1.0078250   1.0078250   1.0078250
 NucSpn=           1           1           1           1           1           1           1           1           1           1
 AtZEff=   0.0000000   0.0000000   0.0000000   0.0000000   0.0000000   0.0000000   0.0000000   0.0000000   0.0000000   0.0000000
 NQMom=    0.0000000   0.0000000   0.0000000   0.0000000   0.0000000   0.0000000   0.0000000   0.0000000   0.0000000   0.0000000
 NMagM=    2.7928460   2.7928460   2.7928460   2.7928460   2.7928460   2.7928460   2.7928460   2.7928460   2.7928460   2.7928460
 Leave Link  101 at Fri Aug 26 18:46:19 2022, MaxMem=  209715200 cpu:       0.8
 (Enter /opt/gaussian/l103.exe)

 GradGradGradGradGradGradGradGradGradGradGradGradGradGradGradGradGradGrad
 Berny optimization.
 Initialization pass.
                           ----------------------------
                           !    Initial Parameters    !
                           ! (Angstroms and Degrees)  !
 --------------------------                            --------------------------
 ! Name  Definition              Value          Derivative Info.                !
 --------------------------------------------------------------------------------
 ! R1    R(1,2)                  1.2413         estimate D2E/DX2                !
 ! R2    R(2,3)                  1.5401         estimate D2E/DX2                !
 ! R3    R(2,13)                 1.3992         estimate D2E/DX2                !
 ! R4    R(3,4)                  1.4398         estimate D2E/DX2                !
 ! R5    R(3,32)                 1.1292         estimate D2E/DX2                !
 ! R6    R(3,33)                 1.1289         estimate D2E/DX2                !
 ! R7    R(4,5)                  1.3771         estimate D2E/DX2                !
 ! R8    R(4,12)                 1.4199         estimate D2E/DX2                !
 ! R9    R(5,6)                  1.2537         estimate D2E/DX2                !
 ! R10   R(6,7)                  1.4344         estimate D2E/DX2                !
 ! R11   R(7,8)                  1.3936         estimate D2E/DX2                !
 ! R12   R(7,12)                 1.4481         estimate D2E/DX2                !
 ! R13   R(8,9)                  1.3919         estimate D2E/DX2                !
 ! R14   R(8,34)                 1.0993         estimate D2E/DX2                !
 ! R15   R(9,10)                 1.4039         estimate D2E/DX2                !
 ! R16   R(9,35)                 1.1006         estimate D2E/DX2                !
 ! R17   R(10,11)                1.3918         estimate D2E/DX2                !
 ! R18   R(10,36)                1.1012         estimate D2E/DX2                !
 ! R19   R(11,12)                1.3945         estimate D2E/DX2                !
 ! R20   R(11,37)                1.0976         estimate D2E/DX2                !
 ! R21   R(13,14)                1.4455         estimate D2E/DX2                !
 ! R22   R(13,20)                1.4214         estimate D2E/DX2                !
 ! R23   R(14,15)                1.4905         estimate D2E/DX2                !
 ! R24   R(14,38)                1.131          estimate D2E/DX2                !
 ! R25   R(14,39)                1.1323         estimate D2E/DX2                !
 ! R26   R(15,16)                1.4366         estimate D2E/DX2                !
 ! R27   R(15,19)                1.3802         estimate D2E/DX2                !
 ! R28   R(16,17)                1.3762         estimate D2E/DX2                !
 ! R29   R(16,40)                1.092          estimate D2E/DX2                !
 ! R30   R(17,18)                1.6702         estimate D2E/DX2                !
 ! R31   R(17,41)                1.0892         estimate D2E/DX2                !
 ! R32   R(18,19)                1.6672         estimate D2E/DX2                !
 ! R33   R(19,42)                1.0907         estimate D2E/DX2                !
 ! R34   R(20,21)                1.4129         estimate D2E/DX2                !
 ! R35   R(20,25)                1.4109         estimate D2E/DX2                !
 ! R36   R(21,22)                1.3891         estimate D2E/DX2                !
 ! R37   R(21,43)                1.102          estimate D2E/DX2                !
 ! R38   R(22,23)                1.4001         estimate D2E/DX2                !
 ! R39   R(22,44)                1.1009         estimate D2E/DX2                !
 ! R40   R(23,24)                1.3992         estimate D2E/DX2                !
 ! R41   R(23,26)                1.4726         estimate D2E/DX2                !
 ! R42   R(24,25)                1.3914         estimate D2E/DX2                !
 ! R43   R(24,45)                1.1019         estimate D2E/DX2                !
 ! R44   R(25,46)                1.1026         estimate D2E/DX2                !
 ! R45   R(26,27)                1.4146         estimate D2E/DX2                !
 ! R46   R(26,31)                1.3602         estimate D2E/DX2                !
 ! R47   R(27,28)                1.3948         estimate D2E/DX2                !
 ! R48   R(27,47)                1.0984         estimate D2E/DX2                !
 ! R49   R(28,29)                1.3942         estimate D2E/DX2                !
 ! R50   R(28,48)                1.0996         estimate D2E/DX2                !
 ! R51   R(29,30)                1.4076         estimate D2E/DX2                !
 ! R52   R(29,49)                1.0969         estimate D2E/DX2                !
 ! R53   R(30,31)                1.343          estimate D2E/DX2                !
 ! R54   R(30,50)                1.1053         estimate D2E/DX2                !
 ! A1    A(1,2,3)              121.5785         estimate D2E/DX2                !
 ! A2    A(1,2,13)             121.5419         estimate D2E/DX2                !
 ! A3    A(3,2,13)             116.8616         estimate D2E/DX2                !
 ! A4    A(2,3,4)              114.9926         estimate D2E/DX2                !
 ! A5    A(2,3,32)             107.9707         estimate D2E/DX2                !
 ! A6    A(2,3,33)             108.9486         estimate D2E/DX2                !
 ! A7    A(4,3,32)             108.1355         estimate D2E/DX2                !
 ! A8    A(4,3,33)             107.1271         estimate D2E/DX2                !
 ! A9    A(32,3,33)            109.591          estimate D2E/DX2                !
 ! A10   A(3,4,5)              123.3328         estimate D2E/DX2                !
 ! A11   A(3,4,12)             123.97           estimate D2E/DX2                !
 ! A12   A(5,4,12)             107.9601         estimate D2E/DX2                !
 ! A13   A(4,5,6)              112.4129         estimate D2E/DX2                !
 ! A14   A(5,6,7)              109.4137         estimate D2E/DX2                !
 ! A15   A(6,7,8)              133.4002         estimate D2E/DX2                !
 ! A16   A(6,7,12)             106.0976         estimate D2E/DX2                !
 ! A17   A(8,7,12)             120.4974         estimate D2E/DX2                !
 ! A18   A(7,8,9)              117.4451         estimate D2E/DX2                !
 ! A19   A(7,8,34)             120.9644         estimate D2E/DX2                !
 ! A20   A(9,8,34)             121.5905         estimate D2E/DX2                !
 ! A21   A(8,9,10)             121.8325         estimate D2E/DX2                !
 ! A22   A(8,9,35)             119.2425         estimate D2E/DX2                !
 ! A23   A(10,9,35)            118.9248         estimate D2E/DX2                !
 ! A24   A(9,10,11)            122.0911         estimate D2E/DX2                !
 ! A25   A(9,10,36)            118.917          estimate D2E/DX2                !
 ! A26   A(11,10,36)           118.9918         estimate D2E/DX2                !
 ! A27   A(10,11,12)           116.9499         estimate D2E/DX2                !
 ! A28   A(10,11,37)           121.4779         estimate D2E/DX2                !
 ! A29   A(12,11,37)           121.572          estimate D2E/DX2                !
 ! A30   A(4,12,7)             103.8926         estimate D2E/DX2                !
 ! A31   A(4,12,11)            134.8391         estimate D2E/DX2                !
 ! A32   A(7,12,11)            121.1795         estimate D2E/DX2                !
 ! A33   A(2,13,14)            121.0915         estimate D2E/DX2                !
 ! A34   A(2,13,20)            120.7412         estimate D2E/DX2                !
 ! A35   A(14,13,20)           117.5963         estimate D2E/DX2                !
 ! A36   A(13,14,15)           117.2599         estimate D2E/DX2                !
 ! A37   A(13,14,38)           108.3058         estimate D2E/DX2                !
 ! A38   A(13,14,39)           107.9061         estimate D2E/DX2                !
 ! A39   A(15,14,38)           108.2834         estimate D2E/DX2                !
 ! A40   A(15,14,39)           107.7791         estimate D2E/DX2                !
 ! A41   A(38,14,39)           106.8568         estimate D2E/DX2                !
 ! A42   A(14,15,16)           120.7049         estimate D2E/DX2                !
 ! A43   A(14,15,19)           128.0178         estimate D2E/DX2                !
 ! A44   A(16,15,19)           111.2399         estimate D2E/DX2                !
 ! A45   A(15,16,17)           111.4404         estimate D2E/DX2                !
 ! A46   A(15,16,40)           123.1089         estimate D2E/DX2                !
 ! A47   A(17,16,40)           125.45           estimate D2E/DX2                !
 ! A48   A(16,17,18)           111.6695         estimate D2E/DX2                !
 ! A49   A(16,17,41)           125.4713         estimate D2E/DX2                !
 ! A50   A(18,17,41)           122.8591         estimate D2E/DX2                !
 ! A51   A(17,18,19)            93.9445         estimate D2E/DX2                !
 ! A52   A(15,19,18)           111.7057         estimate D2E/DX2                !
 ! A53   A(15,19,42)           125.5002         estimate D2E/DX2                !
 ! A54   A(18,19,42)           122.7905         estimate D2E/DX2                !
 ! A55   A(13,20,21)           120.4457         estimate D2E/DX2                !
 ! A56   A(13,20,25)           120.9692         estimate D2E/DX2                !
 ! A57   A(21,20,25)           118.5736         estimate D2E/DX2                !
 ! A58   A(20,21,22)           120.468          estimate D2E/DX2                !
 ! A59   A(20,21,43)           120.4078         estimate D2E/DX2                !
 ! A60   A(22,21,43)           119.1241         estimate D2E/DX2                !
 ! A61   A(21,22,23)           120.7158         estimate D2E/DX2                !
 ! A62   A(21,22,44)           119.3266         estimate D2E/DX2                !
 ! A63   A(23,22,44)           119.9569         estimate D2E/DX2                !
 ! A64   A(22,23,24)           119.0937         estimate D2E/DX2                !
 ! A65   A(22,23,26)           119.8734         estimate D2E/DX2                !
 ! A66   A(24,23,26)           121.0326         estimate D2E/DX2                !
 ! A67   A(23,24,25)           120.7884         estimate D2E/DX2                !
 ! A68   A(23,24,45)           120.0015         estimate D2E/DX2                !
 ! A69   A(25,24,45)           119.2099         estimate D2E/DX2                !
 ! A70   A(20,25,24)           120.3576         estimate D2E/DX2                !
 ! A71   A(20,25,46)           120.3454         estimate D2E/DX2                !
 ! A72   A(24,25,46)           119.2858         estimate D2E/DX2                !
 ! A73   A(23,26,27)           118.8491         estimate D2E/DX2                !
 ! A74   A(23,26,31)           118.9889         estimate D2E/DX2                !
 ! A75   A(27,26,31)           122.1618         estimate D2E/DX2                !
 ! A76   A(26,27,28)           119.1079         estimate D2E/DX2                !
 ! A77   A(26,27,47)           120.1243         estimate D2E/DX2                !
 ! A78   A(28,27,47)           120.765          estimate D2E/DX2                !
 ! A79   A(27,28,29)           119.0552         estimate D2E/DX2                !
 ! A80   A(27,28,48)           120.3016         estimate D2E/DX2                !
 ! A81   A(29,28,48)           120.643          estimate D2E/DX2                !
 ! A82   A(28,29,30)           118.0979         estimate D2E/DX2                !
 ! A83   A(28,29,49)           121.3716         estimate D2E/DX2                !
 ! A84   A(30,29,49)           120.5304         estimate D2E/DX2                !
 ! A85   A(29,30,31)           124.0149         estimate D2E/DX2                !
 ! A86   A(29,30,50)           120.7238         estimate D2E/DX2                !
 ! A87   A(31,30,50)           115.2613         estimate D2E/DX2                !
 ! A88   A(26,31,30)           117.5611         estimate D2E/DX2                !
 ! D1    D(1,2,3,4)             -8.2723         estimate D2E/DX2                !
 ! D2    D(1,2,3,32)           112.5404         estimate D2E/DX2                !
 ! D3    D(1,2,3,33)          -128.509          estimate D2E/DX2                !
 ! D4    D(13,2,3,4)           173.2505         estimate D2E/DX2                !
 ! D5    D(13,2,3,32)          -65.9368         estimate D2E/DX2                !
 ! D6    D(13,2,3,33)           53.0138         estimate D2E/DX2                !
 ! D7    D(1,2,13,14)          177.2776         estimate D2E/DX2                !
 ! D8    D(1,2,13,20)            6.1513         estimate D2E/DX2                !
 ! D9    D(3,2,13,14)           -4.2445         estimate D2E/DX2                !
 ! D10   D(3,2,13,20)         -175.3709         estimate D2E/DX2                !
 ! D11   D(2,3,4,5)             74.4119         estimate D2E/DX2                !
 ! D12   D(2,3,4,12)           -78.2287         estimate D2E/DX2                !
 ! D13   D(32,3,4,5)           -46.3105         estimate D2E/DX2                !
 ! D14   D(32,3,4,12)          161.0489         estimate D2E/DX2                !
 ! D15   D(33,3,4,5)          -164.3537         estimate D2E/DX2                !
 ! D16   D(33,3,4,12)           43.0057         estimate D2E/DX2                !
 ! D17   D(3,4,5,6)           -161.4284         estimate D2E/DX2                !
 ! D18   D(12,4,5,6)            -5.0478         estimate D2E/DX2                !
 ! D19   D(3,4,12,7)           160.3911         estimate D2E/DX2                !
 ! D20   D(3,4,12,11)          -23.1645         estimate D2E/DX2                !
 ! D21   D(5,4,12,7)             4.1968         estimate D2E/DX2                !
 ! D22   D(5,4,12,11)         -179.3588         estimate D2E/DX2                !
 ! D23   D(4,5,6,7)              3.5389         estimate D2E/DX2                !
 ! D24   D(5,6,7,8)           -179.8658         estimate D2E/DX2                !
 ! D25   D(5,6,7,12)            -0.6841         estimate D2E/DX2                !
 ! D26   D(6,7,8,9)            179.6081         estimate D2E/DX2                !
 ! D27   D(6,7,8,34)            -0.496          estimate D2E/DX2                !
 ! D28   D(12,7,8,9)             0.5207         estimate D2E/DX2                !
 ! D29   D(12,7,8,34)         -179.5834         estimate D2E/DX2                !
 ! D30   D(6,7,12,4)            -2.2245         estimate D2E/DX2                !
 ! D31   D(6,7,12,11)         -179.2782         estimate D2E/DX2                !
 ! D32   D(8,7,12,4)           177.0854         estimate D2E/DX2                !
 ! D33   D(8,7,12,11)            0.0317         estimate D2E/DX2                !
 ! D34   D(7,8,9,10)            -0.5744         estimate D2E/DX2                !
 ! D35   D(7,8,9,35)           179.2897         estimate D2E/DX2                !
 ! D36   D(34,8,9,10)          179.5304         estimate D2E/DX2                !
 ! D37   D(34,8,9,35)           -0.6055         estimate D2E/DX2                !
 ! D38   D(8,9,10,11)            0.0648         estimate D2E/DX2                !
 ! D39   D(8,9,10,36)          179.9479         estimate D2E/DX2                !
 ! D40   D(35,9,10,11)        -179.7998         estimate D2E/DX2                !
 ! D41   D(35,9,10,36)           0.0833         estimate D2E/DX2                !
 ! D42   D(9,10,11,12)           0.4921         estimate D2E/DX2                !
 ! D43   D(9,10,11,37)        -179.6514         estimate D2E/DX2                !
 ! D44   D(36,10,11,12)       -179.3909         estimate D2E/DX2                !
 ! D45   D(36,10,11,37)          0.4656         estimate D2E/DX2                !
 ! D46   D(10,11,12,4)        -176.4984         estimate D2E/DX2                !
 ! D47   D(10,11,12,7)          -0.5334         estimate D2E/DX2                !
 ! D48   D(37,11,12,4)           3.6453         estimate D2E/DX2                !
 ! D49   D(37,11,12,7)         179.6102         estimate D2E/DX2                !
 ! D50   D(2,13,14,15)         -77.0049         estimate D2E/DX2                !
 ! D51   D(2,13,14,38)          45.8277         estimate D2E/DX2                !
 ! D52   D(2,13,14,39)         161.1608         estimate D2E/DX2                !
 ! D53   D(20,13,14,15)         94.3914         estimate D2E/DX2                !
 ! D54   D(20,13,14,38)       -142.7761         estimate D2E/DX2                !
 ! D55   D(20,13,14,39)        -27.443          estimate D2E/DX2                !
 ! D56   D(2,13,20,21)         137.5914         estimate D2E/DX2                !
 ! D57   D(2,13,20,25)         -43.6588         estimate D2E/DX2                !
 ! D58   D(14,13,20,21)        -33.8366         estimate D2E/DX2                !
 ! D59   D(14,13,20,25)        144.9132         estimate D2E/DX2                !
 ! D60   D(13,14,15,16)        166.6724         estimate D2E/DX2                !
 ! D61   D(13,14,15,19)        -15.7556         estimate D2E/DX2                !
 ! D62   D(38,14,15,16)         43.8283         estimate D2E/DX2                !
 ! D63   D(38,14,15,19)       -138.5996         estimate D2E/DX2                !
 ! D64   D(39,14,15,16)        -71.4276         estimate D2E/DX2                !
 ! D65   D(39,14,15,19)        106.1445         estimate D2E/DX2                !
 ! D66   D(14,15,16,17)        177.9288         estimate D2E/DX2                !
 ! D67   D(14,15,16,40)         -1.7831         estimate D2E/DX2                !
 ! D68   D(19,15,16,17)         -0.0192         estimate D2E/DX2                !
 ! D69   D(19,15,16,40)       -179.7311         estimate D2E/DX2                !
 ! D70   D(14,15,19,18)       -177.7471         estimate D2E/DX2                !
 ! D71   D(14,15,19,42)          1.5861         estimate D2E/DX2                !
 ! D72   D(16,15,19,18)          0.0133         estimate D2E/DX2                !
 ! D73   D(16,15,19,42)        179.3466         estimate D2E/DX2                !
 ! D74   D(15,16,17,18)          0.0167         estimate D2E/DX2                !
 ! D75   D(15,16,17,41)       -179.8577         estimate D2E/DX2                !
 ! D76   D(40,16,17,18)        179.7204         estimate D2E/DX2                !
 ! D77   D(40,16,17,41)         -0.154          estimate D2E/DX2                !
 ! D78   D(16,17,18,19)         -0.008          estimate D2E/DX2                !
 ! D79   D(41,17,18,19)        179.8703         estimate D2E/DX2                !
 ! D80   D(17,18,19,15)         -0.0034         estimate D2E/DX2                !
 ! D81   D(17,18,19,42)       -179.3577         estimate D2E/DX2                !
 ! D82   D(13,20,21,22)        178.4759         estimate D2E/DX2                !
 ! D83   D(13,20,21,43)         -1.6702         estimate D2E/DX2                !
 ! D84   D(25,20,21,22)         -0.3034         estimate D2E/DX2                !
 ! D85   D(25,20,21,43)        179.5505         estimate D2E/DX2                !
 ! D86   D(13,20,25,24)       -178.8409         estimate D2E/DX2                !
 ! D87   D(13,20,25,46)          2.3849         estimate D2E/DX2                !
 ! D88   D(21,20,25,24)         -0.0682         estimate D2E/DX2                !
 ! D89   D(21,20,25,46)       -178.8424         estimate D2E/DX2                !
 ! D90   D(20,21,22,23)          0.628          estimate D2E/DX2                !
 ! D91   D(20,21,22,44)       -179.0638         estimate D2E/DX2                !
 ! D92   D(43,21,22,23)       -179.2278         estimate D2E/DX2                !
 ! D93   D(43,21,22,44)          1.0805         estimate D2E/DX2                !
 ! D94   D(21,22,23,24)         -0.5692         estimate D2E/DX2                !
 ! D95   D(21,22,23,26)        179.24           estimate D2E/DX2                !
 ! D96   D(44,22,23,24)        179.1206         estimate D2E/DX2                !
 ! D97   D(44,22,23,26)         -1.0702         estimate D2E/DX2                !
 ! D98   D(22,23,24,25)          0.1945         estimate D2E/DX2                !
 ! D99   D(22,23,24,45)       -179.6814         estimate D2E/DX2                !
 ! D100  D(26,23,24,25)       -179.6124         estimate D2E/DX2                !
 ! D101  D(26,23,24,45)          0.5117         estimate D2E/DX2                !
 ! D102  D(22,23,26,27)        -39.7853         estimate D2E/DX2                !
 ! D103  D(22,23,26,31)        140.395          estimate D2E/DX2                !
 ! D104  D(24,23,26,27)        140.0201         estimate D2E/DX2                !
 ! D105  D(24,23,26,31)        -39.7996         estimate D2E/DX2                !
 ! D106  D(23,24,25,20)          0.1206         estimate D2E/DX2                !
 ! D107  D(23,24,25,46)        178.9079         estimate D2E/DX2                !
 ! D108  D(45,24,25,20)        179.9975         estimate D2E/DX2                !
 ! D109  D(45,24,25,46)         -1.2153         estimate D2E/DX2                !
 ! D110  D(23,26,27,28)        179.8408         estimate D2E/DX2                !
 ! D111  D(23,26,27,47)         -0.7614         estimate D2E/DX2                !
 ! D112  D(31,26,27,28)         -0.3455         estimate D2E/DX2                !
 ! D113  D(31,26,27,47)        179.0523         estimate D2E/DX2                !
 ! D114  D(23,26,31,30)       -179.8409         estimate D2E/DX2                !
 ! D115  D(27,26,31,30)          0.3457         estimate D2E/DX2                !
 ! D116  D(26,27,28,29)          0.0644         estimate D2E/DX2                !
 ! D117  D(26,27,28,48)        179.879          estimate D2E/DX2                !
 ! D118  D(47,27,28,29)       -179.3295         estimate D2E/DX2                !
 ! D119  D(47,27,28,48)          0.4851         estimate D2E/DX2                !
 ! D120  D(27,28,29,30)          0.1872         estimate D2E/DX2                !
 ! D121  D(27,28,29,49)       -179.9319         estimate D2E/DX2                !
 ! D122  D(48,28,29,30)       -179.6268         estimate D2E/DX2                !
 ! D123  D(48,28,29,49)          0.2542         estimate D2E/DX2                !
 ! D124  D(28,29,30,31)         -0.1914         estimate D2E/DX2                !
 ! D125  D(28,29,30,50)        179.8354         estimate D2E/DX2                !
 ! D126  D(49,29,30,31)        179.9265         estimate D2E/DX2                !
 ! D127  D(49,29,30,50)         -0.0466         estimate D2E/DX2                !
 ! D128  D(29,30,31,26)         -0.0751         estimate D2E/DX2                !
 ! D129  D(50,30,31,26)        179.8994         estimate D2E/DX2                !
 --------------------------------------------------------------------------------
 Trust Radius=3.00D-01 FncErr=1.00D-07 GrdErr=1.00D-07
 Number of steps in this run=    281 maximum allowed number of steps=    300.
 GradGradGradGradGradGradGradGradGradGradGradGradGradGradGradGradGradGrad

 Leave Link  103 at Fri Aug 26 18:46:19 2022, MaxMem=  209715200 cpu:       0.1
 (Enter /opt/gaussian/l202.exe)
                          Input orientation:                          
 ---------------------------------------------------------------------
 Center     Atomic      Atomic             Coordinates (Angstroms)
 Number     Number       Type             X           Y           Z
 ---------------------------------------------------------------------
      1          8           0       21.124200   -6.598300   -0.161500
      2          6           0       21.683100   -7.642000    0.211400
      3          6           0       23.180300   -7.670900    0.571000
      4          7           0       23.902900   -6.463800    0.264700
      5          7           0       23.788900   -5.306000    1.001500
      6          7           0       24.191900   -4.298300    0.373800
      7          6           0       24.568200   -4.683700   -0.955600
      8          6           0       25.073100   -3.982600   -2.049100
      9          6           0       25.336200   -4.705800   -3.208900
     10          6           0       25.117500   -6.090500   -3.283700
     11          6           0       24.624700   -6.820500   -2.206100
     12          6           0       24.343500   -6.111900   -1.038400
     13          7           0       20.974900   -8.840000    0.356200
     14          6           0       21.646200  -10.062900    0.734800
     15          6           0       22.428900  -10.766900   -0.320400
     16          6           0       23.348300  -11.815400    0.024900
     17          6           0       23.931600  -12.362100   -1.095300
     18         16           0       23.384500  -11.631900   -2.494200
     19          6           0       22.371700  -10.582000   -1.687000
     20          6           0       19.614200   -8.932600   -0.044200
     21          6           0       19.148200  -10.071300   -0.738800
     22          6           0       17.811700  -10.176400   -1.102600
     23          6           0       16.905600   -9.152700   -0.800300
     24          6           0       17.361000   -8.021900   -0.113500
     25          6           0       18.695400   -7.907100    0.263700
     26          6           0       15.496400   -9.276000   -1.209500
     27          6           0       15.199700   -9.828400   -2.477500
     28          6           0       13.866600   -9.950800   -2.869200
     29          6           0       12.863600   -9.523800   -2.000100
     30          6           0       13.248100   -8.981100   -0.759500
     31          7           0       14.523400   -8.852200   -0.358700
     32          1           0       23.268500   -7.861400    1.680500
     33          1           0       23.677800   -8.509600    0.002200
     34          1           0       25.253000   -2.899600   -1.992500
     35          1           0       25.724500   -4.179600   -4.094200
     36          1           0       25.341400   -6.614800   -4.225800
     37          1           0       24.462800   -7.904000   -2.273900
     38          1           0       22.340000   -9.834600    1.598300
     39          1           0       20.864000  -10.783400    1.123700
     40          1           0       23.540000  -12.125600    1.054200
     41          1           0       24.660100  -13.171800   -1.097300
     42          1           0       21.742600   -9.854900   -2.202000
     43          1           0       19.841200  -10.886900   -1.001200
     44          1           0       17.465700  -11.078900   -1.629700
     45          1           0       16.659700   -7.209700    0.136700
     46          1           0       19.031300   -6.997200    0.788000
     47          1           0       16.012700  -10.145700   -3.144500
     48          1           0       13.613700  -10.375600   -3.851400
     49          1           0       11.803100   -9.603300   -2.268900
     50          1           0       12.489000   -8.626600   -0.038600
 ---------------------------------------------------------------------
                    Distance matrix (angstroms):
                    1          2          3          4          5
     1  O    0.000000
     2  C    1.241263   0.000000
     3  C    2.431990   1.540050   0.000000
     4  N    2.814411   2.513664   1.439813   0.000000
     5  N    3.181703   3.242769   2.479612   1.377088   0.000000
     6  N    3.871347   4.183393   3.526564   2.187422   1.253745
     7  C    4.019630   4.293860   3.630446   2.258431   2.196544
     8  C    5.098895   5.476602   4.904200   3.588787   3.564648
     9  C    5.532553   5.802143   5.265678   4.148591   4.525687
    10  C    5.094354   5.139842   4.594466   3.769051   4.554510
    11  C    4.059958   3.895148   3.243726   2.598669   3.644306
    12  C    3.371859   3.313749   2.524616   1.419870   2.262355
    13  N    2.305542   1.399185   2.505339   3.771987   4.563350
    14  C    3.616530   2.477108   2.846394   4.274016   5.224020
    15  C    4.370894   3.256383   3.308234   4.586032   5.780869
    16  C    5.674460   4.497215   4.183698   5.385602   6.596981
    17  C    6.478801   5.389115   5.034716   6.053129   7.362437
    18  S    5.990624   5.112175   5.012651   5.881286   7.238817
    19  C    4.444465   3.566748   3.771856   4.807627   6.088733
    20  C    2.782592   2.451801   3.832418   4.958159   5.627951
    21  C    4.037274   3.637320   4.871891   6.052127   6.875524
    22  C    4.965997   4.810147   6.156325   7.263307   7.992181
    23  C    4.972888   5.111776   6.591514   7.571434   8.088473
    24  C    4.023756   4.350912   5.869923   6.735515   7.066628
    25  C    2.791563   2.999894   4.501617   5.403811   5.766612
    26  C    6.319851   6.554706   8.049152   8.986155   9.455949
    27  C    7.134221   7.351531   8.811250   9.725527  10.311639
    28  C    8.440596   8.713112  10.187145  11.077356  11.619317
    29  C    8.954134   9.285229  10.792502  11.677288  12.089732
    30  C    8.250351   8.595642  10.106209  10.995933  11.301148
    31  N    6.977787   7.283605   8.786451   9.698871  10.013749
    32  H    3.096193   2.172529   1.129185   2.088118   2.694796
    33  H    3.193859   2.185251   1.128919   2.074819   3.357677
    34  H    5.837802   6.331802   5.799390   4.429587   4.110765
    35  H    6.517592   6.845387   6.358162   5.247457   5.566101
    36  H    5.856926   5.841836   5.366096   4.717698   5.607841
    37  H    4.160930   3.737926   3.129313   2.971894   4.234618
    38  H    3.879266   2.676285   2.538316   3.947586   4.792045
    39  H    4.385716   3.372182   3.918977   5.350863   6.210627
    40  H    6.153459   4.925552   4.495244   5.728087   6.824344
    41  H    7.522580   6.415132   5.935734   6.886629   8.187476
    42  H    3.892493   3.274899   3.811347   4.717103   5.928090
    43  H    4.554479   3.923311   4.895310   6.137078   7.123313
    44  H    5.967915   5.743552   7.008152   8.144043   8.957257
    45  H    4.516026   5.042520   6.551301   7.282630   7.429498
    46  H    2.332574   2.789315   4.208938   4.928574   5.053761
    47  H    6.899983   7.048689   8.444173   9.350630  10.053920
    48  H    9.181011   9.438969  10.880848  11.752110  12.360671
    49  H   10.017688  10.373668  11.884439  12.754636  13.146167
    50  H    8.871064   9.250049  10.751226  11.620964  11.823533
                    6          7          8          9         10
     6  N    0.000000
     7  C    1.434378   0.000000
     8  C    2.597426   1.393631   0.000000
     9  C    3.783017   2.380688   1.391897   0.000000
    10  C    4.176844   2.775043   2.443246   1.403859   0.000000
    11  C    3.633826   2.476461   2.877393   2.446180   1.391752
    12  C    2.303570   1.448137   2.467336   2.770134   2.375059
    13  N    5.565648   5.648668   6.795222   6.987309   6.161960
    14  C    6.312014   6.350695   7.514239   7.607062   6.631608
    15  C    6.740391   6.479615   7.483777   7.316608   6.154546
    16  C    7.572330   7.301416   8.284272   8.059505   6.844807
    17  C    8.200663   7.706011   8.510510   8.065924   6.747475
    18  S    7.915744   7.214286   7.846099   7.231237   5.859498
    19  C    6.858929   6.336363   7.140081   6.755307   5.501131
    20  C    6.527388   6.589834   7.636865   7.786042   6.989864
    21  C    7.746245   7.645236   8.596138   8.554609   7.612872
    22  C    8.799930   8.708711   9.590983   9.538452   8.650231
    23  C    8.833679   8.871951   9.746666   9.831139   9.109316
    24  C    7.795117   7.987268   8.918463   9.175066   8.599056
    25  C    6.576251   6.809316   7.837461   8.149080   7.558270
    26  C   10.143769  10.171098  10.974434  11.032044  10.344819
    27  C   10.934879  10.795967  11.482201  11.380888  10.629422
    28  C   12.209817  12.080085  12.723114  12.616543  11.901953
    29  C   12.699277  12.708863  13.408176  13.425352  12.790357
    30  C   11.957414  12.109945  12.902662  13.053732  12.474366
    31  N   10.712351  10.891772  11.741662  11.926144  11.332147
    32  H    3.905869   4.328513   5.675525   6.175713   5.585532
    33  H    4.258807   4.043229   5.162211   5.246937   4.326883
    34  H    2.946467   2.174195   1.099298   2.179199   3.444909
    35  H    4.725037   3.382596   2.155357   1.100645   2.162614
    36  H    5.276727   3.875718   3.426147   2.162959   1.101169
    37  H    4.481604   3.481287   3.974969   3.444639   2.176490
    38  H    5.964860   6.165959   7.417497   7.641399   6.750312
    39  H    7.327605   7.433097   8.604305   8.701104   7.716265
    40  H    7.883815   7.776784   8.848125   8.743786   7.597915
    41  H    9.006795   8.489780   9.247588   8.751521   7.425252
    42  H    6.596182   6.023192   6.752741   6.359327   5.170177
    43  H    8.014291   7.799122   8.725837   8.560080   7.486962
    44  H    9.758705   9.581153  10.411816  10.249636   9.282774
    45  H    8.078769   8.373659   9.272389   9.630379   9.191633
    46  H    5.838443   6.248975   7.323954   7.808808   7.378528
    47  H   10.652222  10.383704  11.012473  10.794643   9.968019
    48  H   12.910624  12.680081  13.245248  13.037501  12.289092
    49  H   13.733508  13.743180  14.412962  14.422687  13.807347
    50  H   12.484475  12.739483  13.563496  13.801233  13.283128
                   11         12         13         14         15
    11  C    0.000000
    12  C    1.394529   0.000000
    13  N    4.895386   4.553560   0.000000
    14  C    5.294668   5.101967   1.445499   0.000000
    15  C    4.894024   5.084313   2.506960   1.490531   0.000000
    16  C    5.617436   5.886505   3.820444   2.544083   1.436621
    17  C    5.694172   6.264016   4.822252   3.722719   2.324487
    18  S    4.977014   5.788733   4.661079   3.988720   2.527212
    19  C    4.415241   4.928536   3.026596   2.580878   1.380237
    20  C    5.851486   5.595629   1.421408   2.452232   3.370976
    21  C    6.535497   6.538941   2.460073   2.900271   3.379632
    22  C    7.674422   7.693419   3.730938   4.253506   4.720070
    23  C    8.185349   8.038999   4.241990   5.065401   5.774321
    24  C    7.653997   7.297866   3.734994   4.821642   5.767273
    25  C    6.514385   6.067886   2.464747   3.684648   4.739056
    26  C    9.505186   9.397446   5.714497   6.497658   7.146526
    27  C    9.897057   9.974591   6.508435   7.206332   7.602315
    28  C   11.223867  11.307273   7.884479   8.574588   8.970807
    29  C   12.069538  12.014742   8.474250   9.214357   9.790896
    30  C   11.669956  11.463769   7.808209   8.598332   9.363171
    31  N   10.467901  10.217906   6.491000   7.307244   8.134155
    32  H    4.245988   3.407168   2.823478   2.893580   3.626356
    33  H    2.937051   2.697215   2.745933   2.660233   2.599851
    34  H    3.976662   3.472228   7.688100   8.471130   8.524428
    35  H    3.427657   3.870253   8.005254   8.635102   8.276175
    36  H    2.152942   3.377607   6.709140   7.081769   6.401151
    37  H    1.097625   2.179981   4.467546   4.652565   4.018595
    38  H    5.364523   4.982439   2.096554   1.130978   2.135064
    39  H    6.398047   6.213253   2.092405   1.132343   2.129462
    40  H    6.320618   6.417879   4.226359   2.818373   2.229380
    41  H    6.447457   7.067241   5.870081   4.701643   3.371257
    42  H    4.184985   4.704115   2.857232   2.945734   2.200720
    43  H    6.392907   6.562981   2.705108   2.636417   2.678447
    44  H    8.349700   8.504402   4.612045   4.909144   5.142467
    45  H    8.311523   7.850274   4.618118   5.776128   6.793105
    46  H    6.346809   5.686736   2.712922   4.029770   5.194504
    47  H    9.279229   9.492599   6.211536   6.840479   7.037688
    48  H   11.687081  11.883632   8.616799   9.254840   9.504148
    49  H   13.120265  13.075383   9.570564  10.301459  10.865461
    50  H   12.459345  12.159461   8.497759   9.301366  10.171623
                   16         17         18         19         20
    16  C    0.000000
    17  C    1.376215   0.000000
    18  S    2.526034   1.670159   0.000000
    19  C    2.325000   2.439703   1.667221   0.000000
    20  C    4.717925   5.613041   5.244414   3.608756   0.000000
    21  C    4.611503   5.315616   4.843876   3.398654   1.412892
    22  C    5.883155   6.498501   5.925465   4.615153   2.432335
    23  C    7.019922   7.729939   7.140860   5.719037   2.820753
    24  C    7.089257   7.935619   7.415011   5.842699   2.431273
    25  C    6.081226   7.007974   6.593012   4.947272   1.410903
    26  C    8.344137   8.982742   8.332037   7.014513   4.293265
    27  C    8.752706   9.196531   8.381160   7.254680   5.119689
    28  C   10.087377  10.500729   9.672494   8.610037   6.484772
    29  C   10.921584  11.461904  10.741395   9.571927   7.053061
    30  C   10.519628  11.210758  10.619912   9.309308   6.406343
    31  N    9.317004  10.068575   9.529228   8.145698   5.101139
    32  H    4.287365   5.329265   5.626566   4.421083   4.180427
    33  H    3.322258   4.013811   4.008341   2.975590   4.085820
    34  H    9.337520   9.596352   8.944052   8.210633   8.484635
    35  H    8.995485   8.897258   7.973229   7.617520   8.736663
    36  H    7.006221   6.694701   5.656783   5.568061   7.460482
    37  H    4.671792   4.641759   3.886966   3.448019   5.434933
    38  H    2.723201   4.022055   4.590188   3.369393   3.307778
    39  H    2.905879   4.102002   4.490220   3.195897   2.520209
    40  H    1.091985   2.197643   3.585953   3.355861   5.178189
    41  H    2.195444   1.089188   2.439216   3.505936   6.673900
    42  H    3.373561   3.507500   2.436995   1.090718   3.168095
    43  H    3.770245   4.349304   3.916510   2.639454   2.187845
    44  H    6.155089   6.613626   6.007109   4.931433   3.425853
    45  H    8.121720   8.996976   8.467610   6.879334   3.424935
    46  H    6.514128   7.506125   7.155671   5.489507   2.185887
    47  H    8.163579   8.474705   7.548186   6.538467   4.904516
    48  H   10.576444  10.862842   9.944286   9.023846   7.251415
    49  H   11.976917  12.493551  11.759881  10.629759   8.149381
    50  H   11.317989  12.083198  11.566059  10.208260   7.131770
                   21         22         23         24         25
    21  C    0.000000
    22  C    1.389111   0.000000
    23  C    2.424224   1.400130   0.000000
    24  C    2.790184   2.413156   1.399211   0.000000
    25  C    2.427714   2.792387   2.426314   1.391432   0.000000
    26  C    3.766922   2.486516   1.472580   2.500143   3.778598
    27  C    4.321195   2.972204   2.485893   3.677384   4.839989
    28  C    5.696352   4.328462   3.762025   4.850296   6.108116
    29  C    6.433260   5.071004   4.232611   5.103094   6.461300
    30  C    6.000012   4.730000   3.661751   4.272391   5.645661
    31  N    4.797860   3.622128   2.441350   2.966731   4.322751
    32  H    5.264365   6.548400   6.950419   6.175982   4.787761
    33  H    4.848223   6.197575   6.849838   6.336655   5.025505
    34  H    9.501243  10.445893  10.497699   9.594387   8.553807
    35  H    9.445558  10.369363  10.646807  10.027830   9.071593
    36  H    7.903309   8.895828   9.451863   9.087229   8.123729
    37  H    5.941270   7.125509   7.800130   7.424068   6.300978
    38  H    3.963036   5.283672   5.979212   5.568355   4.333535
    39  H    2.630582   3.826408   4.693601   4.628991   3.703448
    40  H    5.169420   6.423752   7.502837   7.508923   6.472309
    41  H    6.334245   7.474827   8.739202   8.987001   8.071371
    42  H    2.986418   4.094389   5.084724   5.188462   4.377103
    43  H    1.101956   2.152664   3.415488   3.891995   3.433954
    44  H    2.154012   1.100934   2.170683   3.413953   3.893256
    45  H    3.892029   3.415300   2.171102   1.101858   2.155590
    46  H    3.434367   3.894754   3.418695   2.156992   1.102559
    47  H    3.952757   2.721525   2.697887   3.938959   4.880987
    48  H    6.357009   5.021831   4.652021   5.792586   6.989364
    49  H    7.517362   6.147518   5.328727   6.167400   7.536243
    50  H    6.849991   5.644919   4.512574   4.909955   6.255275
                   26         27         28         29         30
    26  C    0.000000
    27  C    1.414567   0.000000
    28  C    2.422025   1.394836   0.000000
    29  C    2.760089   2.403759   1.394157   0.000000
    30  C    2.311778   2.734627   2.402851   1.407641   0.000000
    31  N    1.360219   2.428922   2.817964   2.429028   1.342999
    32  H    8.411821   9.287819  10.651811  11.161198  10.373801
    33  H    8.306076   8.931200  10.323838  11.044670  10.468101
    34  H   11.681730  12.219343  13.421555  14.049104  13.513791
    35  H   11.785958  12.053799  13.244515  14.083624  13.778069
    36  H   10.635040  10.781366  12.026649  13.004288  12.800880
    37  H    9.132998   9.463075  10.808479  11.714955  11.367632
    38  H    7.418264   8.221683   9.579696  10.141363   9.431348
    39  H    6.043774   6.779746   8.099388   8.680502   8.049637
    40  H    8.828593   9.344016  10.662903  11.405421  10.913322
    41  H    9.958074  10.128299  11.402373  12.380645  12.161818
    42  H    6.351000   6.548751   7.904791   8.887465   8.660304
    43  H    4.638499   4.984316   6.329420   7.179328   6.867275
    44  H    2.702806   2.723467   3.970200   4.871843   4.790215
    45  H    2.726741   3.977843   4.934620   4.932682   3.947157
    46  H    4.656013   5.775841   6.983766   7.224800   6.306823
    47  H    2.183385   1.098425   2.172446   3.407821   3.832432
    48  H    3.425393   2.168508   1.099605   2.171526   3.411472
    49  H    3.856153   3.410436   2.176959   1.096920   2.180240
    50  H    3.291988   3.839329   3.415199   2.189241   1.105260
                   31         32         33         34         35
    31  N    0.000000
    32  H    9.034201   0.000000
    33  H    9.167915   1.845096   0.000000
    34  H   12.378492   6.484491   6.158911   0.000000
    35  H   12.698496   7.275627   6.302251   2.505565   0.000000
    36  H   11.704253   6.382422   4.922785   4.335684   2.468660
    37  H   10.166550   4.131035   2.482661   5.074211   4.333190
    38  H    8.117524   2.182289   2.468374   8.335085   8.708526
    39  H    6.791925   3.824883   3.787532   9.546116   9.719111
    40  H    9.695902   4.318491   3.768441   9.865892   9.716840
    41  H   11.043422   6.152485   4.889777  10.328166   9.538030
    42  H    7.517979   4.623442   3.226969   7.793779   7.186444
    43  H    5.729905   5.300146   4.623620   9.698826   9.442867
    44  H    3.902661   7.415000   6.917701  11.299319  11.040013
    45  H    2.739891   6.817937   7.138736   9.846586  10.452398
    46  H    5.007705   4.415570   4.949222   7.951796   8.750638
    47  H    3.413479   9.008068   8.445845  11.798992  11.437453
    48  H    3.917557  11.407817  10.937015  13.957772  13.605912
    49  H    3.407792  12.251015  12.139299  15.030496  15.051698
    50  H    2.071749  10.942507  11.189486  14.125719  14.539675
                   36         37         38         39         40
    36  H    0.000000
    37  H    2.498777   0.000000
    38  H    7.300387   4.819484   0.000000
    39  H    8.126591   5.725905   1.817703   0.000000
    40  H    7.841706   5.454330   2.642863   2.994546   0.000000
    41  H    7.296981   5.401207   4.877092   5.004765   2.641611
    42  H    5.248369   3.348234   3.847022   3.562910   4.357702
    43  H    7.674704   5.645941   3.756160   2.360515   4.409101
    44  H    9.417780   7.710667   5.977212   4.383717   6.722799
    45  H    9.734332   8.196427   6.425899   5.605501   8.505669
    46  H    8.068568   6.300691   4.433387   4.219810   6.833720
    47  H   10.033001   8.785633   7.913638   6.493020   8.843604
    48  H   12.321637  11.238340  10.302438   8.802543  11.209766
    49  H   14.001648  12.773240  11.226531   9.746911  12.456316
    50  H   13.666169  12.202074  10.058872   8.726016  11.643102
                   41         42         43         44         45
    41  H    0.000000
    42  H    4.553460   0.000000
    43  H    5.334023   2.474321   0.000000
    44  H    7.511529   4.485262   2.464726   0.000000
    45  H   10.053646   6.188899   4.993852   4.329031   0.000000
    46  H    8.565246   4.945472   4.357401   4.995663   2.468569
    47  H    9.387536   5.814174   4.449778   2.297105   4.450278
    48  H   11.722916   8.310876   6.867811   4.502054   5.933463
    49  H   13.394375   9.942909   8.238067   5.886511   5.924761
    50  H   13.035159   9.582178   7.751800   5.771734   4.408296
                   46         47         48         49         50
    46  H    0.000000
    47  H    5.872781   0.000000
    48  H    7.892275   2.511526   0.000000
    49  H    8.269418   4.333775   2.525673   0.000000
    50  H    6.792636   4.936673   4.342971   2.529553   0.000000
 Stoichiometry    C24H19N5OS
 Framework group  C1[X(C24H19N5OS)]
 Deg. of freedom   144
 Full point group                 C1      NOp   1
 Largest Abelian subgroup         C1      NOp   1
 Largest concise Abelian subgroup C1      NOp   1
                         Standard orientation:                         
 ---------------------------------------------------------------------
 Center     Atomic      Atomic             Coordinates (Angstroms)
 Number     Number       Type             X           Y           Z
 ---------------------------------------------------------------------
      1          8           0        0.887553   -1.713098   -0.644803
      2          6           0        1.125513   -0.581519   -1.096067
      3          6           0        2.554860   -0.146294   -1.469297
      4          7           0        3.591650   -1.067849   -1.083467
      5          7           0        3.826665   -2.258311   -1.734572
      6          7           0        4.495789   -3.059189   -1.039774
      7          6           0        4.727632   -2.488176    0.255460
      8          6           0        5.399717   -2.933870    1.392063
      9          6           0        5.427694   -2.085160    2.494917
     10          6           0        4.817038   -0.821275    2.472285
     11          6           0        4.147977   -0.343366    1.349372
     12          6           0        4.098554   -1.183934    0.237746
     13          7           0        0.103082    0.346963   -1.320286
     14          6           0        0.396891    1.681721   -1.790993
     15          6           0        0.929113    2.655003   -0.795431
     16          6           0        1.510406    3.897410   -1.222519
     17          6           0        1.896415    4.667455   -0.149208
     18         16           0        1.566048    3.911297    1.302864
     19          6           0        0.910428    2.558829    0.581325
     20          6           0       -1.231256    0.070105   -0.916193
     21          6           0       -2.015391    1.071553   -0.300971
     22          6           0       -3.329713    0.811033    0.065520
     23          6           0       -3.897202   -0.449763   -0.155195
     24          6           0       -3.125597   -1.446183   -0.763114
     25          6           0       -1.810310   -1.196480   -1.142259
     26          6           0       -5.286952   -0.710721    0.255883
     27          6           0       -5.746812   -0.179335    1.483547
     28          6           0       -7.063236   -0.420379    1.876600
     29          6           0       -7.888790   -1.179772    1.048677
     30          6           0       -7.348041   -1.674556   -0.153085
     31          7           0       -6.084948   -1.457083   -0.554267
     32          1           0        2.598327   -0.017580   -2.590280
     33          1           0        2.781333    0.838586   -0.966128
     34          1           0        5.885770   -3.919683    1.411587
     35          1           0        5.940250   -2.412383    3.412321
     36          1           0        4.867772   -0.189211    3.372560
     37          1           0        3.678866    0.648926    1.340833
     38          1           0        1.137999    1.603279   -2.641708
     39          1           0       -0.555205    2.115663   -2.223899
     40          1           0        1.617314    4.176019   -2.272938
     41          1           0        2.359602    5.651296   -0.211221
     42          1           0        0.511924    1.719246    1.152255
     43          1           0       -1.591205    2.069216   -0.103386
     44          1           0       -3.928557    1.609842    0.529574
     45          1           0       -3.558865   -2.442137   -0.948705
     46          1           0       -1.219029   -2.005077   -1.602906
     47          1           0       -5.068837    0.406044    2.119329
     48          1           0       -7.440639   -0.018391    2.827970
     49          1           0       -8.930313   -1.391619    1.319943
     50          1           0       -7.962981   -2.283674   -0.840415
 ---------------------------------------------------------------------
 Rotational constants (GHZ):      0.1962738      0.0679916      0.0581089
 Leave Link  202 at Fri Aug 26 18:46:19 2022, MaxMem=  209715200 cpu:       0.0
 (Enter /opt/gaussian/l301.exe)
 Standard basis: 6-31G (6D, 7F)
 Ernie: Thresh=  0.10000D-02 Tol=  0.10000D-05 Strict=F.
 There are   321 symmetry adapted basis functions of A   symmetry.
 Integral buffers will be    131072 words long.
 Raffenetti 1 integral format.
 Two-electron integral symmetry is turned on.
   321 basis functions,   782 primitive gaussians,   321 cartesian basis functions
   111 alpha electrons      111 beta electrons
       nuclear repulsion energy      2909.0916424298 Hartrees.



 Warning!  S  atom   18 may be hypervalent but has no d functions.



 IExCor=    0 DFT=F Ex=HF Corr=None ExCW=0 ScaHFX=  1.000000
 ScaDFX=  1.000000  1.000000  1.000000  1.000000 ScalE2=  1.000000  1.000000
 IRadAn=      0 IRanWt=     -1 IRanGd=            0 ICorTp=0
 NAtoms=   50 NActive=   50 NUniq=   50 SFac= 1.00D+00 NAtFMM=   60 NAOKFM=F Big=F
 Leave Link  301 at Fri Aug 26 18:46:19 2022, MaxMem=  209715200 cpu:       0.2
 (Enter /opt/gaussian/l302.exe)
 NPDir=0 NMtPBC=     1 NCelOv=     1 NCel=       1 NClECP=     1 NCelD=      1
         NCelK=      1 NCelE2=     1 NClLst=     1 CellRange=     0.0.
 One-electron integrals computed using PRISM.
 NBasis=   321 RedAO= T  NBF=   321
 NBsUse=   321 1.00D-06 NBFU=   321
 Leave Link  302 at Fri Aug 26 18:46:20 2022, MaxMem=  209715200 cpu:       1.9
 (Enter /opt/gaussian/l303.exe)
 DipDrv:  MaxL=1.
 Leave Link  303 at Fri Aug 26 18:46:20 2022, MaxMem=  209715200 cpu:       0.4
 (Enter /opt/gaussian/l401.exe)
 Harris functional with IExCor=  205 diagonalized for initial guess.
 ExpMin= 1.17D-01 ExpMax= 2.19D+04 ExpMxC= 3.30D+03 IAcc=1 IRadAn=         1 AccDes= 0.00D+00
 HarFok:  IExCor=  205 AccDes= 0.00D+00 IRadAn=         1 IDoV= 1
 ScaDFX=  1.000000  1.000000  1.000000  1.000000
 FoFCou: FMM=F IPFlag=           0 FMFlag=      100000 FMFlg1=           0
         NFxFlg=           0 DoJE=T BraDBF=F KetDBF=T FulRan=T
         Omega=  0.000000  0.000000  1.000000  0.000000  0.000000 ICntrl=     500 IOpCl=  0
         NMat0=    1 NMatS0=    1 NMatT0=    0 NMatD0=    1 NMtDS0=    0 NMtDT0=    0
         I1Cent=           4 NGrid=           0.
 Petite list used in FoFCou.
 Harris En= -1664.99339622134    
 Initial guess orbital symmetries:
       Occupied  (A) (A) (A) (A) (A) (A) (A) (A) (A) (A) (A) (A)
                 (A) (A) (A) (A) (A) (A) (A) (A) (A) (A) (A) (A)
                 (A) (A) (A) (A) (A) (A) (A) (A) (A) (A) (A) (A)
                 (A) (A) (A) (A) (A) (A) (A) (A) (A) (A) (A) (A)
                 (A) (A) (A) (A) (A) (A) (A) (A) (A) (A) (A) (A)
                 (A) (A) (A) (A) (A) (A) (A) (A) (A) (A) (A) (A)
                 (A) (A) (A) (A) (A) (A) (A) (A) (A) (A) (A) (A)
                 (A) (A) (A) (A) (A) (A) (A) (A) (A) (A) (A) (A)
                 (A) (A) (A) (A) (A) (A) (A) (A) (A) (A) (A) (A)
                 (A) (A) (A)
       Virtual   (A) (A) (A) (A) (A) (A) (A) (A) (A) (A) (A) (A)
                 (A) (A) (A) (A) (A) (A) (A) (A) (A) (A) (A) (A)
                 (A) (A) (A) (A) (A) (A) (A) (A) (A) (A) (A) (A)
                 (A) (A) (A) (A) (A) (A) (A) (A) (A) (A) (A) (A)
                 (A) (A) (A) (A) (A) (A) (A) (A) (A) (A) (A) (A)
                 (A) (A) (A) (A) (A) (A) (A) (A) (A) (A) (A) (A)
                 (A) (A) (A) (A) (A) (A) (A) (A) (A) (A) (A) (A)
                 (A) (A) (A) (A) (A) (A) (A) (A) (A) (A) (A) (A)
                 (A) (A) (A) (A) (A) (A) (A) (A) (A) (A) (A) (A)
                 (A) (A) (A) (A) (A) (A) (A) (A) (A) (A) (A) (A)
                 (A) (A) (A) (A) (A) (A) (A) (A) (A) (A) (A) (A)
                 (A) (A) (A) (A) (A) (A) (A) (A) (A) (A) (A) (A)
                 (A) (A) (A) (A) (A) (A) (A) (A) (A) (A) (A) (A)
                 (A) (A) (A) (A) (A) (A) (A) (A) (A) (A) (A) (A)
                 (A) (A) (A) (A) (A) (A) (A) (A) (A) (A) (A) (A)
                 (A) (A) (A) (A) (A) (A) (A) (A) (A) (A) (A) (A)
                 (A) (A) (A) (A) (A) (A) (A) (A) (A) (A) (A) (A)
                 (A) (A) (A) (A) (A) (A)
 The electronic state of the initial guess is 1-A.
 Leave Link  401 at Fri Aug 26 18:46:20 2022, MaxMem=  209715200 cpu:       4.4
 (Enter /opt/gaussian/l502.exe)
 Closed shell SCF:
 Requested convergence on RMS density matrix=1.00D-08 within 128 cycles.
 Requested convergence on MAX density matrix=1.00D-06.
 Requested convergence on             energy=1.00D-06.
 No special actions if energy rises.
 Using DIIS extrapolation, IDIIS=  1040.
 Integral symmetry usage will be decided dynamically.
 IEnd=      332316 IEndB=      332316 NGot=   209715200 MDV=   209502887
 LenX=   209502887 LenY=   209399405
 Fock matrices will be formed incrementally for  20 cycles.
 Integral accuracy reduced to 1.0D-05 until final iterations.

 Cycle   1  Pass 0  IDiag  1:
 FoFCou: FMM=F IPFlag=           0 FMFlag=      100000 FMFlg1=           0
         NFxFlg=           0 DoJE=F BraDBF=F KetDBF=F FulRan=T
         Omega=  0.000000  0.000000  1.000000  0.000000  0.000000 ICntrl=       0 IOpCl=  0
         NMat0=    1 NMatS0=    1 NMatT0=    0 NMatD0=    1 NMtDS0=    0 NMtDT0=    0
         I1Cent=           0 NGrid=           0.
 Symmetry not used in FoFCou.
 E= -1662.90515604077    
 DIIS: error= 4.57D-02 at cycle   1 NSaved=   1.
 NSaved= 1 IEnMin= 1 EnMin= -1662.90515604077     IErMin= 1 ErrMin= 4.57D-02
 ErrMax= 4.57D-02 EMaxC= 1.00D-01 BMatC= 1.08D+00 BMatP= 1.08D+00
 IDIUse=3 WtCom= 5.43D-01 WtEn= 4.57D-01
 Coeff-Com:  0.100D+01
 Coeff-En:   0.100D+01
 Coeff:      0.100D+01
 Gap=     0.516 Goal=   None    Shift=    0.000
 GapD=    0.516 DampG=2.000 DampE=0.500 DampFc=1.0000 IDamp=-1.
 RMSDP=5.89D-03 MaxDP=1.64D-01              OVMax= 2.02D-01

 Cycle   2  Pass 0  IDiag  1:
 RMSU=  4.13D-03    CP:  9.71D-01
 E= -1663.64437976110     Delta-E=       -0.739223720323 Rises=F Damp=F
 DIIS: error= 1.68D-02 at cycle   2 NSaved=   2.
 NSaved= 2 IEnMin= 2 EnMin= -1663.64437976110     IErMin= 2 ErrMin= 1.68D-02
 ErrMax= 1.68D-02 EMaxC= 1.00D-01 BMatC= 2.02D-01 BMatP= 1.08D+00
 IDIUse=3 WtCom= 8.32D-01 WtEn= 1.68D-01
 Coeff-Com:  0.254D+00 0.746D+00
 Coeff-En:   0.000D+00 0.100D+01
 Coeff:      0.211D+00 0.789D+00
 Gap=     0.431 Goal=   None    Shift=    0.000
 RMSDP=2.65D-03 MaxDP=8.49D-02 DE=-7.39D-01 OVMax= 9.44D-02

 Cycle   3  Pass 0  IDiag  1:
 RMSU=  1.63D-03    CP:  9.71D-01  7.77D-01
 E= -1663.81883609956     Delta-E=       -0.174456338463 Rises=F Damp=F
 DIIS: error= 8.44D-03 at cycle   3 NSaved=   3.
 NSaved= 3 IEnMin= 3 EnMin= -1663.81883609956     IErMin= 3 ErrMin= 8.44D-03
 ErrMax= 8.44D-03 EMaxC= 1.00D-01 BMatC= 2.61D-02 BMatP= 2.02D-01
 IDIUse=3 WtCom= 9.16D-01 WtEn= 8.44D-02
 Coeff-Com:  0.399D-02 0.247D+00 0.749D+00
 Coeff-En:   0.000D+00 0.000D+00 0.100D+01
 Coeff:      0.366D-02 0.226D+00 0.771D+00
 Gap=     0.392 Goal=   None    Shift=    0.000
 RMSDP=7.55D-04 MaxDP=3.05D-02 DE=-1.74D-01 OVMax= 3.41D-02

 Cycle   4  Pass 0  IDiag  1:
 RMSU=  3.40D-04    CP:  9.72D-01  8.64D-01  8.80D-01
 E= -1663.84304482374     Delta-E=       -0.024208724178 Rises=F Damp=F
 DIIS: error= 2.73D-03 at cycle   4 NSaved=   4.
 NSaved= 4 IEnMin= 4 EnMin= -1663.84304482374     IErMin= 4 ErrMin= 2.73D-03
 ErrMax= 2.73D-03 EMaxC= 1.00D-01 BMatC= 2.57D-03 BMatP= 2.61D-02
 IDIUse=3 WtCom= 9.73D-01 WtEn= 2.73D-02
 Coeff-Com: -0.139D-01 0.222D-01 0.277D+00 0.714D+00
 Coeff-En:   0.000D+00 0.000D+00 0.000D+00 0.100D+01
 Coeff:     -0.136D-01 0.216D-01 0.270D+00 0.722D+00
 Gap=     0.389 Goal=   None    Shift=    0.000
 RMSDP=2.54D-04 MaxDP=9.11D-03 DE=-2.42D-02 OVMax= 1.06D-02

 Cycle   5  Pass 0  IDiag  1:
 RMSU=  1.30D-04    CP:  9.71D-01  8.61D-01  9.40D-01  7.85D-01
 E= -1663.84563196254     Delta-E=       -0.002587138807 Rises=F Damp=F
 DIIS: error= 9.82D-04 at cycle   5 NSaved=   5.
 NSaved= 5 IEnMin= 5 EnMin= -1663.84563196254     IErMin= 5 ErrMin= 9.82D-04
 ErrMax= 9.82D-04 EMaxC= 1.00D-01 BMatC= 1.33D-04 BMatP= 2.57D-03
 IDIUse=3 WtCom= 9.90D-01 WtEn= 9.82D-03
 Coeff-Com: -0.184D-02-0.160D-01-0.107D-01 0.966D-01 0.932D+00
 Coeff-En:   0.000D+00 0.000D+00 0.000D+00 0.000D+00 0.100D+01
 Coeff:     -0.183D-02-0.158D-01-0.106D-01 0.956D-01 0.933D+00
 Gap=     0.390 Goal=   None    Shift=    0.000
 RMSDP=9.69D-05 MaxDP=4.89D-03 DE=-2.59D-03 OVMax= 5.23D-03

 Cycle   6  Pass 0  IDiag  1:
 RMSU=  4.96D-05    CP:  9.71D-01  8.61D-01  9.63D-01  8.56D-01  1.12D+00
 E= -1663.84598437333     Delta-E=       -0.000352410783 Rises=F Damp=F
 DIIS: error= 4.61D-04 at cycle   6 NSaved=   6.
 NSaved= 6 IEnMin= 6 EnMin= -1663.84598437333     IErMin= 6 ErrMin= 4.61D-04
 ErrMax= 4.61D-04 EMaxC= 1.00D-01 BMatC= 3.27D-05 BMatP= 1.33D-04
 IDIUse=3 WtCom= 9.95D-01 WtEn= 4.61D-03
 Coeff-Com:  0.269D-02-0.862D-02-0.580D-01-0.157D+00 0.125D+00 0.110D+01
 Coeff-En:   0.000D+00 0.000D+00 0.000D+00 0.000D+00 0.000D+00 0.100D+01
 Coeff:      0.268D-02-0.858D-02-0.577D-01-0.156D+00 0.124D+00 0.110D+01
 Gap=     0.390 Goal=   None    Shift=    0.000
 RMSDP=6.57D-05 MaxDP=2.56D-03 DE=-3.52D-04 OVMax= 6.05D-03

 Cycle   7  Pass 0  IDiag  1:
 RMSU=  1.89D-05    CP:  9.70D-01  8.60D-01  9.74D-01  8.76D-01  1.39D+00
                    CP:  1.29D+00
 E= -1663.84610348387     Delta-E=       -0.000119110548 Rises=F Damp=F
 DIIS: error= 2.06D-04 at cycle   7 NSaved=   7.
 NSaved= 7 IEnMin= 7 EnMin= -1663.84610348387     IErMin= 7 ErrMin= 2.06D-04
 ErrMax= 2.06D-04 EMaxC= 1.00D-01 BMatC= 3.82D-06 BMatP= 3.27D-05
 IDIUse=3 WtCom= 9.98D-01 WtEn= 2.06D-03
 Coeff-Com:  0.235D-03 0.152D-02 0.279D-02-0.180D-01-0.103D+00 0.164D-01
 Coeff-Com:  0.110D+01
 Coeff-En:   0.000D+00 0.000D+00 0.000D+00 0.000D+00 0.000D+00 0.000D+00
 Coeff-En:   0.100D+01
 Coeff:      0.235D-03 0.152D-02 0.278D-02-0.179D-01-0.102D+00 0.164D-01
 Coeff:      0.110D+01
 Gap=     0.390 Goal=   None    Shift=    0.000
 RMSDP=2.15D-05 MaxDP=8.89D-04 DE=-1.19D-04 OVMax= 1.67D-03

 Cycle   8  Pass 0  IDiag  1:
 RMSU=  6.36D-06    CP:  9.70D-01  8.59D-01  9.76D-01  8.79D-01  1.44D+00
                    CP:  1.47D+00  1.35D+00
 E= -1663.84611795356     Delta-E=       -0.000014469687 Rises=F Damp=F
 DIIS: error= 5.41D-05 at cycle   8 NSaved=   8.
 NSaved= 8 IEnMin= 8 EnMin= -1663.84611795356     IErMin= 8 ErrMin= 5.41D-05
 ErrMax= 5.41D-05 EMaxC= 1.00D-01 BMatC= 7.31D-07 BMatP= 3.82D-06
 IDIUse=1 WtCom= 1.00D+00 WtEn= 0.00D+00
 Coeff-Com: -0.524D-03 0.212D-02 0.138D-01 0.283D-01-0.406D-01-0.237D+00
 Coeff-Com:  0.194D+00 0.104D+01
 Coeff:     -0.524D-03 0.212D-02 0.138D-01 0.283D-01-0.406D-01-0.237D+00
 Coeff:      0.194D+00 0.104D+01
 Gap=     0.390 Goal=   None    Shift=    0.000
 RMSDP=9.78D-06 MaxDP=4.17D-04 DE=-1.45D-05 OVMax= 7.76D-04

 Initial convergence to 1.0D-05 achieved.  Increase integral accuracy.
 Cycle   9  Pass 1  IDiag  1:
 E= -1663.84612317541     Delta-E=       -0.000005221847 Rises=F Damp=F
 DIIS: error= 1.07D-04 at cycle   1 NSaved=   1.
 NSaved= 1 IEnMin= 1 EnMin= -1663.84612317541     IErMin= 1 ErrMin= 1.07D-04
 ErrMax= 1.07D-04 EMaxC= 1.00D-01 BMatC= 1.40D-06 BMatP= 1.40D-06
 IDIUse=3 WtCom= 9.99D-01 WtEn= 1.07D-03
 Coeff-Com:  0.100D+01
 Coeff-En:   0.100D+01
 Coeff:      0.100D+01
 Gap=     0.390 Goal=   None    Shift=    0.000
 RMSDP=9.78D-06 MaxDP=4.17D-04 DE=-5.22D-06 OVMax= 1.96D-04

 Cycle  10  Pass 1  IDiag  1:
 RMSU=  3.41D-05    CP:  1.00D+00
 E= -1663.84612466012     Delta-E=       -0.000001484714 Rises=F Damp=F
 DIIS: error= 1.57D-05 at cycle   2 NSaved=   2.
 NSaved= 2 IEnMin= 2 EnMin= -1663.84612466012     IErMin= 2 ErrMin= 1.57D-05
 ErrMax= 1.57D-05 EMaxC= 1.00D-01 BMatC= 3.00D-08 BMatP= 1.40D-06
 IDIUse=1 WtCom= 1.00D+00 WtEn= 0.00D+00
 Coeff-Com: -0.303D-01 0.103D+01
 Coeff:     -0.303D-01 0.103D+01
 Gap=     0.390 Goal=   None    Shift=    0.000
 RMSDP=2.83D-06 MaxDP=5.67D-05 DE=-1.48D-06 OVMax= 1.32D-04

 Cycle  11  Pass 1  IDiag  1:
 RMSU=  9.59D-07    CP:  1.00D+00  1.05D+00
 E= -1663.84612474263     Delta-E=       -0.000000082508 Rises=F Damp=F
 DIIS: error= 8.87D-06 at cycle   3 NSaved=   3.
 NSaved= 3 IEnMin= 3 EnMin= -1663.84612474263     IErMin= 3 ErrMin= 8.87D-06
 ErrMax= 8.87D-06 EMaxC= 1.00D-01 BMatC= 1.56D-08 BMatP= 3.00D-08
 IDIUse=1 WtCom= 1.00D+00 WtEn= 0.00D+00
 Coeff-Com: -0.257D-01 0.362D+00 0.663D+00
 Coeff:     -0.257D-01 0.362D+00 0.663D+00
 Gap=     0.390 Goal=   None    Shift=    0.000
 RMSDP=5.89D-07 MaxDP=1.54D-05 DE=-8.25D-08 OVMax= 5.75D-05

 Cycle  12  Pass 1  IDiag  1:
 RMSU=  4.09D-07    CP:  1.00D+00  1.05D+00  1.02D+00
 E= -1663.84612477195     Delta-E=       -0.000000029320 Rises=F Damp=F
 DIIS: error= 7.44D-06 at cycle   4 NSaved=   4.
 NSaved= 4 IEnMin= 4 EnMin= -1663.84612477195     IErMin= 4 ErrMin= 7.44D-06
 ErrMax= 7.44D-06 EMaxC= 1.00D-01 BMatC= 4.04D-09 BMatP= 1.56D-08
 IDIUse=1 WtCom= 1.00D+00 WtEn= 0.00D+00
 Coeff-Com:  0.258D-01-0.628D+00-0.403D+00 0.201D+01
 Coeff:      0.258D-01-0.628D+00-0.403D+00 0.201D+01
 Gap=     0.390 Goal=   None    Shift=    0.000
 RMSDP=1.01D-06 MaxDP=2.77D-05 DE=-2.93D-08 OVMax= 1.34D-04

 Cycle  13  Pass 1  IDiag  1:
 RMSU=  2.82D-07    CP:  1.00D+00  1.06D+00  1.51D+00  2.09D+00
 E= -1663.84612480064     Delta-E=       -0.000000028693 Rises=F Damp=F
 DIIS: error= 1.43D-06 at cycle   5 NSaved=   5.
 NSaved= 5 IEnMin= 5 EnMin= -1663.84612480064     IErMin= 5 ErrMin= 1.43D-06
 ErrMax= 1.43D-06 EMaxC= 1.00D-01 BMatC= 2.84D-10 BMatP= 4.04D-09
 IDIUse=1 WtCom= 1.00D+00 WtEn= 0.00D+00
 Coeff-Com:  0.716D-02-0.150D+00-0.130D+00 0.356D+00 0.917D+00
 Coeff:      0.716D-02-0.150D+00-0.130D+00 0.356D+00 0.917D+00
 Gap=     0.390 Goal=   None    Shift=    0.000
 RMSDP=1.88D-07 MaxDP=5.09D-06 DE=-2.87D-08 OVMax= 2.45D-05

 Cycle  14  Pass 1  IDiag  1:
 RMSU=  6.71D-08    CP:  1.00D+00  1.05D+00  1.57D+00  2.28D+00  1.22D+00
 E= -1663.84612480183     Delta-E=       -0.000000001191 Rises=F Damp=F
 DIIS: error= 5.29D-07 at cycle   6 NSaved=   6.
 NSaved= 6 IEnMin= 6 EnMin= -1663.84612480183     IErMin= 6 ErrMin= 5.29D-07
 ErrMax= 5.29D-07 EMaxC= 1.00D-01 BMatC= 5.05D-11 BMatP= 2.84D-10
 IDIUse=1 WtCom= 1.00D+00 WtEn= 0.00D+00
 Coeff-Com: -0.378D-02 0.946D-01 0.683D-01-0.328D+00 0.103D+00 0.107D+01
 Coeff:     -0.378D-02 0.946D-01 0.683D-01-0.328D+00 0.103D+00 0.107D+01
 Gap=     0.390 Goal=   None    Shift=    0.000
 RMSDP=7.09D-08 MaxDP=1.63D-06 DE=-1.19D-09 OVMax= 9.29D-06

 Cycle  15  Pass 1  IDiag  1:
 RMSU=  2.78D-08    CP:  1.00D+00  1.05D+00  1.58D+00  2.33D+00  1.34D+00
                    CP:  1.18D+00
 E= -1663.84612480200     Delta-E=       -0.000000000167 Rises=F Damp=F
 DIIS: error= 1.38D-07 at cycle   7 NSaved=   7.
 NSaved= 7 IEnMin= 7 EnMin= -1663.84612480200     IErMin= 7 ErrMin= 1.38D-07
 ErrMax= 1.38D-07 EMaxC= 1.00D-01 BMatC= 7.03D-12 BMatP= 5.05D-11
 IDIUse=1 WtCom= 1.00D+00 WtEn= 0.00D+00
 Coeff-Com: -0.644D-03 0.122D-01 0.176D-01-0.340D-01-0.127D+00-0.708D-01
 Coeff-Com:  0.120D+01
 Coeff:     -0.644D-03 0.122D-01 0.176D-01-0.340D-01-0.127D+00-0.708D-01
 Coeff:      0.120D+01
 Gap=     0.390 Goal=   None    Shift=    0.000
 RMSDP=3.07D-08 MaxDP=7.42D-07 DE=-1.67D-10 OVMax= 3.27D-06

 Cycle  16  Pass 1  IDiag  1:
 RMSU=  9.69D-09    CP:  1.00D+00  1.05D+00  1.58D+00  2.34D+00  1.36D+00
                    CP:  1.35D+00  1.41D+00
 E= -1663.84612480204     Delta-E=       -0.000000000044 Rises=F Damp=F
 DIIS: error= 9.50D-08 at cycle   8 NSaved=   8.
 NSaved= 8 IEnMin= 8 EnMin= -1663.84612480204     IErMin= 8 ErrMin= 9.50D-08
 ErrMax= 9.50D-08 EMaxC= 1.00D-01 BMatC= 2.06D-12 BMatP= 7.03D-12
 IDIUse=1 WtCom= 1.00D+00 WtEn= 0.00D+00
 Coeff-Com:  0.448D-03-0.127D-01-0.369D-02 0.472D-01-0.663D-01-0.226D+00
 Coeff-Com:  0.463D+00 0.798D+00
 Coeff:      0.448D-03-0.127D-01-0.369D-02 0.472D-01-0.663D-01-0.226D+00
 Coeff:      0.463D+00 0.798D+00
 Gap=     0.390 Goal=   None    Shift=    0.000
 RMSDP=1.02D-08 MaxDP=3.32D-07 DE=-4.37D-11 OVMax= 9.54D-07

 Cycle  17  Pass 1  IDiag  1:
 RMSU=  5.30D-09    CP:  1.00D+00  1.05D+00  1.58D+00  2.34D+00  1.36D+00
                    CP:  1.38D+00  1.57D+00  9.69D-01
 E= -1663.84612480202     Delta-E=        0.000000000023 Rises=F Damp=F
 DIIS: error= 4.36D-08 at cycle   9 NSaved=   9.
 NSaved= 9 IEnMin= 8 EnMin= -1663.84612480204     IErMin= 9 ErrMin= 4.36D-08
 ErrMax= 4.36D-08 EMaxC= 1.00D-01 BMatC= 1.87D-13 BMatP= 2.06D-12
 IDIUse=1 WtCom= 1.00D+00 WtEn= 0.00D+00
 Coeff-Com:  0.103D-03-0.216D-02-0.178D-02 0.497D-02 0.137D-01-0.211D-02
 Coeff-Com: -0.122D+00-0.135D-02 0.111D+01
 Coeff:      0.103D-03-0.216D-02-0.178D-02 0.497D-02 0.137D-01-0.211D-02
 Coeff:     -0.122D+00-0.135D-02 0.111D+01
 Gap=     0.390 Goal=   None    Shift=    0.000
 RMSDP=4.71D-09 MaxDP=1.47D-07 DE= 2.27D-11 OVMax= 5.14D-07

 SCF Done:  E(RHF) =  -1663.84612480     A.U. after   17 cycles
             Convg  =    0.4711D-08             -V/T =  2.0000
 KE= 1.663776041936D+03 PE=-9.719271136542D+03 EE= 3.482557327374D+03
 Leave Link  502 at Fri Aug 26 18:47:39 2022, MaxMem=  209715200 cpu:     594.1
 (Enter /opt/gaussian/l601.exe)
 Copying SCF densities to generalized density rwf, IOpCl= 0 IROHF=0.

 **********************************************************************

            Population analysis using the SCF density.

 **********************************************************************

 Orbital symmetries:
       Occupied  (A) (A) (A) (A) (A) (A) (A) (A) (A) (A) (A) (A)
                 (A) (A) (A) (A) (A) (A) (A) (A) (A) (A) (A) (A)
                 (A) (A) (A) (A) (A) (A) (A) (A) (A) (A) (A) (A)
                 (A) (A) (A) (A) (A) (A) (A) (A) (A) (A) (A) (A)
                 (A) (A) (A) (A) (A) (A) (A) (A) (A) (A) (A) (A)
                 (A) (A) (A) (A) (A) (A) (A) (A) (A) (A) (A) (A)
                 (A) (A) (A) (A) (A) (A) (A) (A) (A) (A) (A) (A)
                 (A) (A) (A) (A) (A) (A) (A) (A) (A) (A) (A) (A)
                 (A) (A) (A) (A) (A) (A) (A) (A) (A) (A) (A) (A)
                 (A) (A) (A)
       Virtual   (A) (A) (A) (A) (A) (A) (A) (A) (A) (A) (A) (A)
                 (A) (A) (A) (A) (A) (A) (A) (A) (A) (A) (A) (A)
                 (A) (A) (A) (A) (A) (A) (A) (A) (A) (A) (A) (A)
                 (A) (A) (A) (A) (A) (A) (A) (A) (A) (A) (A) (A)
                 (A) (A) (A) (A) (A) (A) (A) (A) (A) (A) (A) (A)
                 (A) (A) (A) (A) (A) (A) (A) (A) (A) (A) (A) (A)
                 (A) (A) (A) (A) (A) (A) (A) (A) (A) (A) (A) (A)
                 (A) (A) (A) (A) (A) (A) (A) (A) (A) (A) (A) (A)
                 (A) (A) (A) (A) (A) (A) (A) (A) (A) (A) (A) (A)
                 (A) (A) (A) (A) (A) (A) (A) (A) (A) (A) (A) (A)
                 (A) (A) (A) (A) (A) (A) (A) (A) (A) (A) (A) (A)
                 (A) (A) (A) (A) (A) (A) (A) (A) (A) (A) (A) (A)
                 (A) (A) (A) (A) (A) (A) (A) (A) (A) (A) (A) (A)
                 (A) (A) (A) (A) (A) (A) (A) (A) (A) (A) (A) (A)
                 (A) (A) (A) (A) (A) (A) (A) (A) (A) (A) (A) (A)
                 (A) (A) (A) (A) (A) (A) (A) (A) (A) (A) (A) (A)
                 (A) (A) (A) (A) (A) (A) (A) (A) (A) (A) (A) (A)
                 (A) (A) (A) (A) (A) (A)
 The electronic state is 1-A.
[...]
     1  O    0.000000   0.001320   0.001395   0.000000   0.000000   0.000000
     2  C    0.000000  -0.040124  -0.048519   0.000000   0.000000   0.000000
     3  C    0.000000   0.390532   0.397693   0.000001   0.000000   0.000001
     4  N    0.000000  -0.037829  -0.043605  -0.000109  -0.000006  -0.000101
     5  N    0.000000   0.008830   0.001402  -0.000085   0.000002   0.000001
     6  N    0.000000   0.000017  -0.000137   0.001111  -0.000066  -0.000004
     7  C    0.000000  -0.000195   0.000088  -0.020273   0.002804   0.000468
     8  C    0.000000  -0.000003  -0.000005   0.361753  -0.020140   0.002345
     9  C    0.000000   0.000000  -0.000001  -0.020704   0.374905  -0.024434
    10  C    0.000000   0.000001  -0.000020   0.002066  -0.026337   0.373812
    11  C    0.000000   0.000043  -0.000282   0.000020   0.002613  -0.022752
    12  C    0.000000   0.003922   0.001069   0.003160   0.000371   0.002800
    13  N    0.000000   0.004568   0.004301   0.000000   0.000000   0.000000
    14  C    0.000000  -0.003427  -0.002966   0.000000   0.000000   0.000000
    15  C    0.000000   0.000144   0.005284   0.000000   0.000000   0.000000
    16  C    0.000000  -0.000031   0.000035   0.000000   0.000000   0.000000
    17  C    0.000000  -0.000003  -0.000120   0.000000   0.000000   0.000000
    18  S    0.000000   0.000001  -0.000320   0.000000   0.000000   0.000000
    19  C    0.000000   0.000097   0.002801   0.000000   0.000000   0.000000
    20  C   -0.000014  -0.000198  -0.000158   0.000000   0.000000   0.000000
    21  C   -0.000106  -0.000007   0.000018   0.000000   0.000000   0.000000
    22  C    0.001228   0.000000   0.000000   0.000000   0.000000   0.000000
    23  C   -0.096552   0.000000   0.000000   0.000000   0.000000   0.000000
    24  C    0.006200   0.000000   0.000000   0.000000   0.000000   0.000000
    25  C    0.000803   0.000052  -0.000013   0.000000   0.000000   0.000000
    26  C    0.497285   0.000000   0.000000   0.000000   0.000000   0.000000
    27  C   -0.136233   0.000000   0.000000   0.000000   0.000000   0.000000
    28  C   -0.015338   0.000000   0.000000   0.000000   0.000000   0.000000
    29  C   -0.084159   0.000000   0.000000   0.000000   0.000000   0.000000
    30  C    0.426850   0.000000   0.000000   0.000000   0.000000   0.000000
    31  N    7.021115   0.000000   0.000000   0.000000   0.000000   0.000000
    32  H    0.000000   0.437901  -0.016267   0.000000   0.000000   0.000000
    33  H    0.000000  -0.016267   0.461112   0.000000   0.000000   0.000000
    34  H    0.000000   0.000000   0.000000   0.433211  -0.000110  -0.000088
    35  H    0.000000   0.000000   0.000000  -0.000110   0.462815  -0.000273
    36  H    0.000000   0.000000   0.000000  -0.000088  -0.000273   0.463611
    37  H    0.000000   0.000017   0.000318   0.000009  -0.000099  -0.000171
    38  H    0.000000   0.001602  -0.002122   0.000000   0.000000   0.000000
    39  H    0.000000   0.000065   0.000149   0.000000   0.000000   0.000000
    40  H    0.000000   0.000000   0.000001   0.000000   0.000000   0.000000
    41  H    0.000000   0.000000   0.000000   0.000000   0.000000   0.000000
    42  H    0.000000   0.000004  -0.000067   0.000000   0.000000   0.000000
    43  H    0.000001  -0.000001  -0.000001   0.000000   0.000000   0.000000
    44  H    0.000178   0.000000   0.000000   0.000000   0.000000   0.000000
    45  H    0.004072   0.000000   0.000000   0.000000   0.000000   0.000000
    46  H   -0.000003  -0.000006  -0.000001   0.000000   0.000000   0.000000
    47  H    0.002764   0.000000   0.000000   0.000000   0.000000   0.000000
    48  H    0.000160   0.000000   0.000000   0.000000   0.000000   0.000000
    49  H    0.002972   0.000000   0.000000   0.000000   0.000000   0.000000
    50  H   -0.043932   0.000000   0.000000   0.000000   0.000000   0.000000
             37         38         39         40         41         42
     1  O    0.000418   0.000078  -0.000055   0.000000   0.000000   0.000168
     2  C    0.000136  -0.000940   0.001712  -0.000001   0.000000   0.000684
     3  C   -0.000103  -0.000870   0.000194   0.000000   0.000000  -0.000199
     4  N   -0.002959  -0.000100  -0.000004   0.000000   0.000000   0.000002
     5  N   -0.000005  -0.000027   0.000000   0.000000   0.000000   0.000000
     6  N   -0.000101   0.000000   0.000000   0.000000   0.000000   0.000000
     7  C    0.000830   0.000000   0.000000   0.000000   0.000000   0.000000
     8  C    0.000168   0.000000   0.000000   0.000000   0.000000   0.000000
     9  C    0.002024   0.000000   0.000000   0.000000   0.000000   0.000000
    10  C   -0.015688   0.000000   0.000000   0.000000   0.000000   0.000000
    11  C    0.371185   0.000000   0.000000   0.000000   0.000000   0.000011
    12  C   -0.031748  -0.000010   0.000000   0.000000   0.000000  -0.000004
    13  N   -0.000014  -0.052750  -0.042871   0.000029   0.000001   0.000005
    14  C   -0.000006   0.430198   0.422256  -0.000976  -0.000067  -0.000155
    15  C    0.000042  -0.074804  -0.058474  -0.031088   0.000210  -0.014401
    16  C   -0.000002   0.000196   0.000011   0.377271  -0.010574   0.001275
    17  C   -0.000002   0.000305   0.000109  -0.021976   0.381829   0.001867
    18  S    0.000083  -0.000067   0.000007   0.002352  -0.016787  -0.013736
    19  C    0.000593   0.000760  -0.001088   0.005950   0.002779   0.383825
    20  C    0.000000   0.002422   0.005516  -0.000002   0.000000   0.000403
    21  C    0.000000   0.000399  -0.000204   0.000000   0.000000   0.000621
    22  C    0.000000   0.000010  -0.000244   0.000000   0.000000   0.000026
    23  C    0.000000  -0.000001  -0.000014   0.000000   0.000000  -0.000001
    24  C    0.000000  -0.000003  -0.000097   0.000000   0.000000  -0.000001
    25  C    0.000000   0.000093   0.000620   0.000000   0.000000  -0.000002
    26  C    0.000000   0.000000   0.000000   0.000000   0.000000   0.000000
    27  C    0.000000   0.000000   0.000000   0.000000   0.000000   0.000000
    28  C    0.000000   0.000000   0.000000   0.000000   0.000000   0.000000
    29  C    0.000000   0.000000   0.000000   0.000000   0.000000   0.000000
    30  C    0.000000   0.000000   0.000000   0.000000   0.000000   0.000000
    31  N    0.000000   0.000000   0.000000   0.000000   0.000000   0.000000
    32  H    0.000017   0.001602   0.000065   0.000000   0.000000   0.000004
    33  H    0.000318  -0.002122   0.000149   0.000001   0.000000  -0.000067
    34  H    0.000009   0.000000   0.000000   0.000000   0.000000   0.000000
    35  H   -0.000099   0.000000   0.000000   0.000000   0.000000   0.000000
    36  H   -0.000171   0.000000   0.000000   0.000000   0.000000   0.000000
    37  H    0.451656  -0.000002   0.000000   0.000000   0.000000   0.000173
    38  H   -0.000002   0.526075  -0.023776   0.000220   0.000000  -0.000047
    39  H    0.000000  -0.023776   0.469945   0.000116   0.000000  -0.000028
    40  H    0.000000   0.000220   0.000116   0.444655   0.000809  -0.000070
    41  H    0.000000   0.000000   0.000000   0.000809   0.403365  -0.000012
    42  H    0.000173  -0.000047  -0.000028  -0.000070  -0.000012   0.389037
    43  H    0.000000   0.000119  -0.000951   0.000001   0.000000  -0.000151
    44  H    0.000000   0.000000  -0.000002   0.000000   0.000000   0.000000
    45  H    0.000000   0.000000   0.000000   0.000000   0.000000   0.000000
    46  H    0.000000   0.000015   0.000021   0.000000   0.000000   0.000000
    47  H    0.000000   0.000000   0.000000   0.000000   0.000000   0.000000
    48  H    0.000000   0.000000   0.000000   0.000000   0.000000   0.000000
    49  H    0.000000   0.000000   0.000000   0.000000   0.000000   0.000000
    50  H    0.000000   0.000000   0.000000   0.000000   0.000000   0.000000
             43         44         45         46         47         48
     1  O    0.000004   0.000000  -0.000007   0.002874   0.000000   0.000000
     2  C    0.000068   0.000000  -0.000001   0.002038   0.000000   0.000000
     3  C    0.000009   0.000000   0.000000  -0.000074   0.000000   0.000000
     4  N    0.000000   0.000000   0.000000  -0.000007   0.000000   0.000000
     5  N    0.000000   0.000000   0.000000   0.000001   0.000000   0.000000
     6  N    0.000000   0.000000   0.000000   0.000000   0.000000   0.000000
     7  C    0.000000   0.000000   0.000000   0.000000   0.000000   0.000000
     8  C    0.000000   0.000000   0.000000   0.000000   0.000000   0.000000
     9  C    0.000000   0.000000   0.000000   0.000000   0.000000   0.000000
    10  C    0.000000   0.000000   0.000000   0.000000   0.000000   0.000000
    11  C    0.000000   0.000000   0.000000   0.000000   0.000000   0.000000
    12  C    0.000000   0.000000   0.000000   0.000001   0.000000   0.000000
    13  N   -0.002219  -0.000126  -0.000104  -0.005560   0.000000   0.000000
    14  C   -0.000681   0.000008   0.000001   0.000010   0.000000   0.000000
    15  C    0.002177  -0.000001   0.000000  -0.000009   0.000000   0.000000
    16  C    0.000013   0.000000   0.000000   0.000000   0.000000   0.000000
    17  C   -0.000079   0.000000   0.000000   0.000000   0.000000   0.000000
    18  S   -0.000308   0.000000   0.000000   0.000000   0.000000   0.000000
    19  C    0.003622  -0.000001   0.000000   0.000001   0.000000   0.000000
    20  C   -0.028715   0.001418   0.001459  -0.025206  -0.000001   0.000000
    21  C    0.368133  -0.017736   0.000356   0.002449   0.000051   0.000000
    22  C   -0.014225   0.368856   0.002224   0.000221   0.000776   0.000006
    23  C    0.001444  -0.028861  -0.023389   0.001687   0.001260  -0.000123
    24  C    0.000260   0.001846   0.370297  -0.015006  -0.000022   0.000001
    25  C    0.002116   0.000428  -0.019852   0.369989  -0.000004   0.000000
    26  C   -0.000128   0.001169  -0.000047  -0.000137  -0.018411   0.001710
    27  C    0.000010  -0.000939   0.000379   0.000001   0.366678  -0.021931
    28  C    0.000000   0.000020  -0.000011   0.000000  -0.020980   0.376186
    29  C    0.000000  -0.000005   0.000034   0.000000   0.002388  -0.022519
    30  C    0.000000  -0.000002  -0.000038   0.000000  -0.000072   0.002144
    31  N    0.000001   0.000178   0.004072  -0.000003   0.002764   0.000160
    32  H   -0.000001   0.000000   0.000000  -0.000006   0.000000   0.000000
    33  H   -0.000001   0.000000   0.000000  -0.000001   0.000000   0.000000
    34  H    0.000000   0.000000   0.000000   0.000000   0.000000   0.000000
    35  H    0.000000   0.000000   0.000000   0.000000   0.000000   0.000000
    36  H    0.000000   0.000000   0.000000   0.000000   0.000000   0.000000
    37  H    0.000000   0.000000   0.000000   0.000000   0.000000   0.000000
    38  H    0.000119   0.000000   0.000000   0.000015   0.000000   0.000000
    39  H   -0.000951  -0.000002   0.000000   0.000021   0.000000   0.000000
    40  H    0.000001   0.000000   0.000000   0.000000   0.000000   0.000000
    41  H    0.000000   0.000000   0.000000   0.000000   0.000000   0.000000
    42  H   -0.000151   0.000000   0.000000   0.000000   0.000000   0.000000
    43  H    0.443815   0.000457   0.000007  -0.000106  -0.000003   0.000000
    44  H    0.000457   0.460484  -0.000127   0.000008   0.001868   0.000001
    45  H    0.000007  -0.000127   0.410022   0.000197  -0.000008   0.000000
    46  H   -0.000106   0.000008   0.000197   0.428164   0.000000   0.000000
    47  H   -0.000003   0.001868  -0.000008   0.000000   0.444521  -0.000315
    48  H    0.000000   0.000001   0.000000   0.000000  -0.000315   0.450029
    49  H    0.000000   0.000000   0.000000   0.000000  -0.000083  -0.000369
    50  H    0.000000   0.000000  -0.000025   0.000000   0.000006  -0.000086
             49         50
     1  O    0.000000   0.000000
     2  C    0.000000   0.000000
     3  C    0.000000   0.000000
     4  N    0.000000   0.000000
     5  N    0.000000   0.000000
     6  N    0.000000   0.000000
     7  C    0.000000   0.000000
     8  C    0.000000   0.000000
     9  C    0.000000   0.000000
    10  C    0.000000   0.000000
    11  C    0.000000   0.000000
    12  C    0.000000   0.000000
    13  N    0.000000   0.000000
    14  C    0.000000   0.000000
    15  C    0.000000   0.000000
    16  C    0.000000   0.000000
    17  C    0.000000   0.000000
    18  S    0.000000   0.000000
    19  C    0.000000   0.000000
    20  C    0.000000   0.000000
    21  C    0.000000   0.000000
    22  C    0.000000   0.000003
    23  C    0.000013   0.000244
    24  C   -0.000001  -0.000021
    25  C    0.000000  -0.000001
    26  C    0.000275   0.004315
    27  C    0.002194  -0.001202
    28  C   -0.021373   0.003383
    29  C    0.368450  -0.051651
    30  C   -0.016557   0.403794
    31  N    0.002972  -0.043932
    32  H    0.000000   0.000000
    33  H    0.000000   0.000000
    34  H    0.000000   0.000000
    35  H    0.000000   0.000000
    36  H    0.000000   0.000000
    37  H    0.000000   0.000000
    38  H    0.000000   0.000000
    39  H    0.000000   0.000000
    40  H    0.000000   0.000000
    41  H    0.000000   0.000000
    42  H    0.000000   0.000000
    43  H    0.000000   0.000000
    44  H    0.000000   0.000000
    45  H    0.000000  -0.000025
    46  H    0.000000   0.000000
    47  H   -0.000083   0.000006
    48  H   -0.000369  -0.000086
    49  H    0.448547   0.001310
    50  H    0.001310   0.473423
 Mulliken atomic charges:
              1
     1  O   -0.567935
     2  C    0.786800
     3  C   -0.130734
     4  N   -0.883779
     5  N    0.094727
     6  N   -0.335426
     7  C   -0.020202
     8  C   -0.078777
     9  C   -0.233481
    10  C   -0.205635
    11  C   -0.064002
    12  C    0.488308
    13  N   -0.985439
    14  C   -0.083554
    15  C    0.067534
    16  C   -0.103767
    17  C   -0.551980
    18  S    0.477607
    19  C   -0.602848
    20  C    0.330285
    21  C   -0.221463
    22  C   -0.197458
    23  C   -0.028433
    24  C   -0.185744
    25  C   -0.151135
    26  C    0.216173
    27  C   -0.188948
    28  C   -0.166009
    29  C   -0.241744
    30  C    0.073682
    31  N   -0.587293
    32  H    0.248975
    33  H    0.238938
    34  H    0.240037
    35  H    0.203522
    36  H    0.204787
    37  H    0.223247
    38  H    0.193026
    39  H    0.227089
    40  H    0.222709
    41  H    0.238447
    42  H    0.250774
    43  H    0.225312
    44  H    0.211059
    45  H    0.254560
    46  H    0.238438
    47  H    0.219587
    48  H    0.215105
    49  H    0.214622
    50  H    0.210440
 Sum of Mulliken atomic charges =   0.00000
 Mulliken charges with hydrogens summed into heavy atoms:
              1
     1  O   -0.567935
     2  C    0.786800
     3  C    0.357179
     4  N   -0.883779
     5  N    0.094727
     6  N   -0.335426
     7  C   -0.020202
     8  C    0.161260
     9  C   -0.029959
    10  C   -0.000848
    11  C    0.159245
    12  C    0.488308
    13  N   -0.985439
    14  C    0.336561
    15  C    0.067534
    16  C    0.118942
    17  C   -0.313533
    18  S    0.477607
    19  C   -0.352074
    20  C    0.330285
    21  C    0.003849
    22  C    0.013601
    23  C   -0.028433
    24  C    0.068817
    25  C    0.087303
    26  C    0.216173
    27  C    0.030639
    28  C    0.049097
    29  C   -0.027122
    30  C    0.284122
    31  N   -0.587293
 Sum of Mulliken charges with hydrogens summed into heavy atoms =   0.00000
 Electronic spatial extent (au):  <R**2>=          18798.8811
 Charge=              0.0000 electrons
 Dipole moment (field-independent basis, Debye):
    X=             -3.1808    Y=              6.7874    Z=              1.7957  Tot=              7.7078
 Quadrupole moment (field-independent basis, Debye-Ang):
   XX=           -166.3122   YY=           -187.6214   ZZ=           -184.5080
   XY=             12.0317   XZ=              2.5097   YZ=            -15.4814
 Traceless Quadrupole moment (field-independent basis, Debye-Ang):
   XX=             13.1683   YY=             -8.1409   ZZ=             -5.0275
   XY=             12.0317   XZ=              2.5097   YZ=            -15.4814
 Octapole moment (field-independent basis, Debye-Ang**2):
  XXX=           -295.9701  YYY=             72.2752  ZZZ=             21.2230  XYY=              5.2207
  XXY=            -31.8916  XXZ=            168.2824  XZZ=             -5.4705  YZZ=             27.7465
  YYZ=            -15.7741  XYZ=            -76.2017
 Hexadecapole moment (field-independent basis, Debye-Ang**3):
 XXXX=         -16315.9523 YYYY=          -5575.5552 ZZZZ=          -1623.9551 XXXY=            347.8272
 XXXZ=           -146.1539 YYYX=            249.2789 YYYZ=           -214.9824 ZZZX=            101.4030
 ZZZY=            -96.1281 XXYY=          -3945.2590 XXZZ=          -3364.3015 YYZZ=          -1321.4826
 XXYZ=           -234.8007 YYXZ=            130.2637 ZZXY=             32.1087
 N-N= 2.891709536629D+03 E-N=-9.686140939124D+03  KE= 1.665323095628D+03
 No NMR shielding tensors so no spin-rotation constants.
 Leave Link  601 at Fri Aug 26 19:11:46 2022, MaxMem=  209715200 cpu:       1.4
 (Enter /opt/gaussian/l9999.exe)
 1\1\GINC-LQCAPF-6\FOpt\RHF\6-31G\C24H19N5O1S1\LQCAPF-6\26-Aug-2022\0\\
 #p opt hf/6-31G\\Mol15.out\\0,1\O,21.2727129138,-6.8739785156,-0.94419
 85157\C,21.730490497,-7.7944250947,-0.2856062533\C,23.1480510248,-7.71
 38559091,0.2692626197\N,23.7588964438,-6.4468784899,0.0090295274\N,23.
 8186397311,-5.514423279,1.0021065043\N,24.3610277478,-4.4577932975,0.5
 588211999\C,24.6817394702,-4.6444868097,-0.7763001308\C,25.2911109744,
 -3.7874685487,-1.6919771007\C,25.485897051,-4.2632313782,-2.9652254849
 \C,25.078596655,-5.5675239902,-3.3252887771\C,24.4746943919,-6.4170624
 067,-2.4297133466\C,24.2846571612,-5.9263696885,-1.1352885148\N,21.017
 5851961,-8.9337066312,-0.0071677109\C,21.617823802,-10.0884745549,0.66
 46468635\C,22.4882464324,-10.9600372466,-0.2110967358\C,23.2733212101,
 -12.0419617729,0.3508122208\C,23.9837149803,-12.7276897274,-0.55675838
 21\S,23.7436254577,-12.0866908913,-2.2075355174\C,22.6292072626,-10.85
 35185716,-1.5439972423\C,19.6268592458,-9.0146657547,-0.360838067\C,19
 .1396456493,-10.1304136445,-1.0251304305\C,17.7875418493,-10.236754471
 4,-1.3146086277\C,16.8968096676,-9.2303923036,-0.95859731\C,17.3984404
 32,-8.1169371165,-0.2847484206\C,18.7431459795,-8.00810964,0.012795205
 5\C,15.4488528653,-9.3176439653,-1.2679233727\C,14.9483710232,-10.0901
 513264,-2.3154788102\C,13.5820360031,-10.1253376372,-2.5384541938\C,12
 .7397438037,-9.3851955532,-1.7223842013\C,13.313410988,-8.6287559206,-
 0.7143372706\N,14.624494855,-8.6000844602,-0.4988141713\H,23.130431581
 6,-7.8281619996,1.3428087499\H,23.7574299092,-8.5060246502,-0.14348567
 11\H,25.5886074623,-2.8009010164,-1.3990467235\H,25.9491906976,-3.6412
 391002,-3.7053423219\H,25.2424060062,-5.8989912316,-4.3323459729\H,24.
 1550346035,-7.3978427779,-2.7185432522\H,22.1934758436,-9.7616519312,1
 .5224648423\H,20.8049391704,-10.6794390915,1.062666083\H,23.284757775,
 -12.2729061013,1.397441212\H,24.6337293774,-13.55800591,-0.3972636124\
 H,22.1596357138,-10.1567912378,-2.2015173432\H,19.8038469467,-10.91936
 67402,-1.3159674011\H,17.4383534489,-11.1229371296,-1.806648534\H,16.7
 211885087,-7.3431509727,0.0106910014\H,19.1082463967,-7.1369958612,0.5
 149571719\H,15.6101595119,-10.6339211032,-2.9571448957\H,13.1831203646
 ,-10.7134069429,-3.3420827593\H,11.6782626964,-9.387275464,-1.86648919
 55\H,12.7133932204,-8.0299721413,-0.0596569311\\Version=EM64L-G09RevC.
 01\State=1-A\HF=-1663.8985569\RMSD=6.842e-09\RMSF=4.696e-06\Dipole=-0.
 4019926,-2.9248429,-0.692626\Quadrupole=13.3873133,-9.8675682,-3.51974
 51,-2.7656993,1.8877307,-11.5545355\PG=C01 [X(C24H19N5O1S1)]\\@


 The best way to pay for a lovely moment is to enjoy it.
 -- Richard Bach
 Job cpu time:  0 days  3 hours 17 minutes 12.0 seconds.
 File lengths (MBytes):  RWF=     71 Int=      0 D2E=      0 Chk=     10 Scr=      1
 Normal termination of Gaussian 09 at Fri Aug 26 19:11:46 2022.
