 Entering Gaussian System, Link 0=g09
 Input=Mol17.gjf
 Output=Mol17.log
 Initial command:
 /opt/gaussian/l1.exe /home/scr/lqcapf-6/Gau-248791.inp -scrdir=/home/scr/lqcapf-6/
 Entering Link 1 = /opt/gaussian/l1.exe PID=    248793.
  
 Copyright (c) 1988,1990,1992,1993,1995,1998,2003,2009,2011,
            Gaussian, Inc.  All Rights Reserved.
  
 This is part of the Gaussian(R) 09 program.  It is based on
 the Gaussian(R) 03 system (copyright 2003, Gaussian, Inc.),
 the Gaussian(R) 98 system (copyright 1998, Gaussian, Inc.),
 the Gaussian(R) 94 system (copyright 1995, Gaussian, Inc.),
 the Gaussian 92(TM) system (copyright 1992, Gaussian, Inc.),
 the Gaussian 90(TM) system (copyright 1990, Gaussian, Inc.),
 the Gaussian 88(TM) system (copyright 1988, Gaussian, Inc.),
 the Gaussian 86(TM) system (copyright 1986, Carnegie Mellon
 University), and the Gaussian 82(TM) system (copyright 1983,
 Carnegie Mellon University). Gaussian is a federally registered
 trademark of Gaussian, Inc.
  
 This software contains proprietary and confidential information,
 including trade secrets, belonging to Gaussian, Inc.
  
 This software is provided under written license and may be
 used, copied, transmitted, or stored only in accord with that
 written license.
  
 The following legend is applicable only to US Government
 contracts under FAR:
  
                    RESTRICTED RIGHTS LEGEND
  
 Use, reproduction and disclosure by the US Government is
 subject to restrictions as set forth in subparagraphs (a)
 and (c) of the Commercial Computer Software - Restricted
 Rights clause in FAR 52.227-19.
  
 Gaussian, Inc.
 340 Quinnipiac St., Bldg. 40, Wallingford CT 06492
  
  
 ---------------------------------------------------------------
 Warning -- This program may not be used in any manner that
 competes with the business of Gaussian, Inc. or will provide
 assistance to any competitor of Gaussian, Inc.  The licensee
 of this program is prohibited from giving any competitor of
 Gaussian, Inc. access to this program.  By using this program,
 the user acknowledges that Gaussian, Inc. is engaged in the
 business of creating and licensing software in the field of
 computational chemistry and represents and warrants to the
 licensee that it is not a competitor of Gaussian, Inc. and that
 it will not use this program in any manner prohibited above.
 ---------------------------------------------------------------
  

 Cite this work as:
 Gaussian 09, Revision C.01,
 M. J. Frisch, G. W. Trucks, H. B. Schlegel, G. E. Scuseria, 
 M. A. Robb, J. R. Cheeseman, G. Scalmani, V. Barone, B. Mennucci, 
 G. A. Petersson, H. Nakatsuji, M. Caricato, X. Li, H. P. Hratchian, 
 A. F. Izmaylov, J. Bloino, G. Zheng, J. L. Sonnenberg, M. Hada, 
 M. Ehara, K. Toyota, R. Fukuda, J. Hasegawa, M. Ishida, T. Nakajima, 
 Y. Honda, O. Kitao, H. Nakai, T. Vreven, J. A. Montgomery, Jr., 
 J. E. Peralta, F. Ogliaro, M. Bearpark, J. J. Heyd, E. Brothers, 
 K. N. Kudin, V. N. Staroverov, T. Keith, R. Kobayashi, J. Normand, 
 K. Raghavachari, A. Rendell, J. C. Burant, S. S. Iyengar, J. Tomasi, 
 M. Cossi, N. Rega, J. M. Millam, M. Klene, J. E. Knox, J. B. Cross, 
 V. Bakken, C. Adamo, J. Jaramillo, R. Gomperts, R. E. Stratmann, 
 O. Yazyev, A. J. Austin, R. Cammi, C. Pomelli, J. W. Ochterski, 
 R. L. Martin, K. Morokuma, V. G. Zakrzewski, G. A. Voth, 
 P. Salvador, J. J. Dannenberg, S. Dapprich, A. D. Daniels, 
 O. Farkas, J. B. Foresman, J. V. Ortiz, J. Cioslowski, 
 and D. J. Fox, Gaussian, Inc., Wallingford CT, 2010.
 
 ******************************************
 Gaussian 09:  EM64L-G09RevC.01 23-Sep-2011
                26-Aug-2022 
 ******************************************
 %nprocshared=8
 Will use up to    8 processors via shared memory.
 %mem=1600MB
 ---------------
 #p opt hf/6-31G
 ---------------
 1/18=20,19=15,38=1/1,3;
 2/9=110,12=2,17=6,18=5,40=1/2;
 3/5=1,6=6,11=9,16=1,25=1,30=1,71=1/1,2,3;
 4//1;
 5/5=2,38=5/2;
 6/7=2,8=2,9=2,10=2,28=1/1;
 7//1,2,3,16;
 1/18=20,19=15/3(2);
 2/9=110/2;
 99//99;
 2/9=110/2;
 3/5=1,6=6,11=9,16=1,25=1,30=1,71=1/1,2,3;
 4/5=5,16=3/1;
 5/5=2,38=5/2;
 7//1,2,3,16;
 1/18=20,19=15/3(-5);
 2/9=110/2;
 6/7=2,8=2,9=2,10=2,19=2,28=1/1;
 99/9=1/99;
 Leave Link    1 at Fri Aug 26 19:42:28 2022, MaxMem=  209715200 cpu:       0.1
 (Enter /opt/gaussian/l101.exe)
 ---------
 Mol17.out
 ---------
 Charge =  0 Multiplicity = 1
 Symbolic Z-Matrix:
 S                     13.909   -8.009    -1.918 
 C                     14.9749  -6.7267   -1.9331 
 C                     15.0054  -9.0692   -1.248 
 C                     16.2036  -7.0719   -1.4267 
 C                     16.2347  -8.4633   -1.013 
 N                     17.3849  -9.0609   -0.4638 
 C                     20.7931  -6.5434   -0.1147 
 C                     20.6723  -7.4326   -1.1916 
 C                     19.7801  -6.5199    0.8572 
 C                     19.5641  -8.266    -1.3097 
 C                     18.6666  -7.3445    0.7504 
 C                     18.5422  -8.2297   -0.3402 
 C                     17.4166  -10.3843  -0.0262 
 C                     18.7391  -10.9415   0.5433 
 O                     16.4094  -11.1125  -0.0499 
 C                     18.7119  -13.4754   0.414 
 N                     19.1245  -12.1997  -0.0406 
 C                     19.0765  -14.3616  -0.6725 
 N                     19.6129  -12.3323  -1.3162 
 N                     19.6347  -13.5298  -1.6949 
 C                     18.1368  -13.9681   1.5869 
 C                     17.9263  -15.3404   1.6565 
 C                     18.859   -15.7359  -0.567 
 C                     18.2793  -16.2052   0.606 
 C                     24.1411  -3.9332    0.2288 
 N                     24.3188  -5.1768   -0.3185 
 C                     22.9075  -3.5083    0.6584 
 C                     23.2495  -6.0855   -0.4695 
 C                     21.7905  -4.3821    0.5357 
 C                     21.9286  -5.6363    0.0012 
 O                     23.5179  -7.1873   -0.9869 
 H                     14.7087  -5.739    -2.3071 
 H                     14.753   -10.1104  -1.0361 
 H                     17.0638  -6.4045   -1.3408 
 H                     21.4709  -7.4846   -1.9513 
 H                     19.8651  -5.8454    1.7232 
 H                     19.4957  -8.9557   -2.1672 
 H                     17.8786  -7.2941    1.5185 
 H                     19.5946  -10.2188   0.409 
 H                     18.5659  -11.1109   1.6448 
 H                     17.8509  -13.3014   2.411 
 H                     17.4627  -15.7641   2.5612 
 H                     19.1342  -16.4153  -1.3861 
 H                     18.0858  -17.2829   0.7172 
 H                     25.042   -3.2967    0.3025 
 H                     25.2215  -5.4634   -0.6302 
 H                     22.7778  -2.5087    1.0904 
 H                     20.8064  -4.0206    0.8766 
 
 NAtoms=     48 NQM=        0 NQMF=       0 NMMI=     48 NMMIF=      0
                NMic=       0 NMicF=      0.
                    Isotopes and Nuclear Properties:
 (Nuclear quadrupole moments (NQMom) in fm**2, nuclear magnetic moments (NMagM)
  in nuclear magnetons)

  Atom         1           2           3           4           5           6           7           8           9          10
 IAtWgt=          32          12          12          12          12          14          12          12          12          12
 AtmWgt=  31.9720718  12.0000000  12.0000000  12.0000000  12.0000000  14.0030740  12.0000000  12.0000000  12.0000000  12.0000000
 NucSpn=           0           0           0           0           0           2           0           0           0           0
 AtZEff=   0.0000000   0.0000000   0.0000000   0.0000000   0.0000000   0.0000000   0.0000000   0.0000000   0.0000000   0.0000000
 NQMom=    0.0000000   0.0000000   0.0000000   0.0000000   0.0000000   2.0440000   0.0000000   0.0000000   0.0000000   0.0000000
 NMagM=    0.0000000   0.0000000   0.0000000   0.0000000   0.0000000   0.4037610   0.0000000   0.0000000   0.0000000   0.0000000

  Atom        11          12          13          14          15          16          17          18          19          20
 IAtWgt=          12          12          12          12          16          12          14          12          14          14
 AtmWgt=  12.0000000  12.0000000  12.0000000  12.0000000  15.9949146  12.0000000  14.0030740  12.0000000  14.0030740  14.0030740
 NucSpn=           0           0           0           0           0           0           2           0           2           2
 AtZEff=   0.0000000   0.0000000   0.0000000   0.0000000   0.0000000   0.0000000   0.0000000   0.0000000   0.0000000   0.0000000
 NQMom=    0.0000000   0.0000000   0.0000000   0.0000000   0.0000000   0.0000000   2.0440000   0.0000000   2.0440000   2.0440000
 NMagM=    0.0000000   0.0000000   0.0000000   0.0000000   0.0000000   0.0000000   0.4037610   0.0000000   0.4037610   0.4037610

  Atom        21          22          23          24          25          26          27          28          29          30
 IAtWgt=          12          12          12          12          12          14          12          12          12          12
 AtmWgt=  12.0000000  12.0000000  12.0000000  12.0000000  12.0000000  14.0030740  12.0000000  12.0000000  12.0000000  12.0000000
 NucSpn=           0           0           0           0           0           2           0           0           0           0
 AtZEff=   0.0000000   0.0000000   0.0000000   0.0000000   0.0000000   0.0000000   0.0000000   0.0000000   0.0000000   0.0000000
 NQMom=    0.0000000   0.0000000   0.0000000   0.0000000   0.0000000   2.0440000   0.0000000   0.0000000   0.0000000   0.0000000
 NMagM=    0.0000000   0.0000000   0.0000000   0.0000000   0.0000000   0.4037610   0.0000000   0.0000000   0.0000000   0.0000000

  Atom        31          32          33          34          35          36          37          38          39          40
 IAtWgt=          16           1           1           1           1           1           1           1           1           1
 AtmWgt=  15.9949146   1.0078250   1.0078250   1.0078250   1.0078250   1.0078250   1.0078250   1.0078250   1.0078250   1.0078250
 NucSpn=           0           1           1           1           1           1           1           1           1           1
 AtZEff=   0.0000000   0.0000000   0.0000000   0.0000000   0.0000000   0.0000000   0.0000000   0.0000000   0.0000000   0.0000000
 NQMom=    0.0000000   0.0000000   0.0000000   0.0000000   0.0000000   0.0000000   0.0000000   0.0000000   0.0000000   0.0000000
 NMagM=    0.0000000   2.7928460   2.7928460   2.7928460   2.7928460   2.7928460   2.7928460   2.7928460   2.7928460   2.7928460

  Atom        41          42          43          44          45          46          47          48
 IAtWgt=           1           1           1           1           1           1           1           1
 AtmWgt=   1.0078250   1.0078250   1.0078250   1.0078250   1.0078250   1.0078250   1.0078250   1.0078250
 NucSpn=           1           1           1           1           1           1           1           1
 AtZEff=   0.0000000   0.0000000   0.0000000   0.0000000   0.0000000   0.0000000   0.0000000   0.0000000
 NQMom=    0.0000000   0.0000000   0.0000000   0.0000000   0.0000000   0.0000000   0.0000000   0.0000000
 NMagM=    2.7928460   2.7928460   2.7928460   2.7928460   2.7928460   2.7928460   2.7928460   2.7928460
 Leave Link  101 at Fri Aug 26 19:42:28 2022, MaxMem=  209715200 cpu:       0.7
 (Enter /opt/gaussian/l103.exe)

 GradGradGradGradGradGradGradGradGradGradGradGradGradGradGradGradGradGrad
 Berny optimization.
 Initialization pass.
                           ----------------------------
                           !    Initial Parameters    !
                           ! (Angstroms and Degrees)  !
 --------------------------                            --------------------------
 ! Name  Definition              Value          Derivative Info.                !
 --------------------------------------------------------------------------------
 ! R1    R(1,2)                  1.6675         estimate D2E/DX2                !
 ! R2    R(1,3)                  1.6658         estimate D2E/DX2                !
 ! R3    R(2,4)                  1.3731         estimate D2E/DX2                !
 ! R4    R(2,32)                 1.0892         estimate D2E/DX2                !
 ! R5    R(3,5)                  1.3905         estimate D2E/DX2                !
 ! R6    R(3,33)                 1.0921         estimate D2E/DX2                !
 ! R7    R(4,5)                  1.4519         estimate D2E/DX2                !
 ! R8    R(4,34)                 1.0921         estimate D2E/DX2                !
 ! R9    R(5,6)                  1.4077         estimate D2E/DX2                !
 ! R10   R(6,12)                 1.4302         estimate D2E/DX2                !
 ! R11   R(6,13)                 1.3942         estimate D2E/DX2                !
 ! R12   R(7,8)                  1.4018         estimate D2E/DX2                !
 ! R13   R(7,9)                  1.404          estimate D2E/DX2                !
 ! R14   R(7,30)                 1.458          estimate D2E/DX2                !
 ! R15   R(8,10)                 1.3916         estimate D2E/DX2                !
 ! R16   R(8,35)                 1.1035         estimate D2E/DX2                !
 ! R17   R(9,11)                 1.3897         estimate D2E/DX2                !
 ! R18   R(9,36)                 1.101          estimate D2E/DX2                !
 ! R19   R(10,12)                1.4091         estimate D2E/DX2                !
 ! R20   R(10,37)                1.1026         estimate D2E/DX2                !
 ! R21   R(11,12)                1.4101         estimate D2E/DX2                !
 ! R22   R(11,38)                1.1016         estimate D2E/DX2                !
 ! R23   R(13,14)                1.544          estimate D2E/DX2                !
 ! R24   R(13,15)                1.2431         estimate D2E/DX2                !
 ! R25   R(14,17)                1.4396         estimate D2E/DX2                !
 ! R26   R(14,39)                1.1279         estimate D2E/DX2                !
 ! R27   R(14,40)                1.1278         estimate D2E/DX2                !
 ! R28   R(16,17)                1.4157         estimate D2E/DX2                !
 ! R29   R(16,18)                1.4487         estimate D2E/DX2                !
 ! R30   R(16,21)                1.3961         estimate D2E/DX2                !
 ! R31   R(17,19)                1.3723         estimate D2E/DX2                !
 ! R32   R(18,20)                1.4314         estimate D2E/DX2                !
 ! R33   R(18,23)                1.3954         estimate D2E/DX2                !
 ! R34   R(19,20)                1.2561         estimate D2E/DX2                !
 ! R35   R(21,22)                1.3901         estimate D2E/DX2                !
 ! R36   R(21,41)                1.0979         estimate D2E/DX2                !
 ! R37   R(22,24)                1.4057         estimate D2E/DX2                !
 ! R38   R(22,42)                1.1013         estimate D2E/DX2                !
 ! R39   R(23,24)                1.39           estimate D2E/DX2                !
 ! R40   R(23,43)                1.0992         estimate D2E/DX2                !
 ! R41   R(24,44)                1.1006         estimate D2E/DX2                !
 ! R42   R(25,26)                1.3703         estimate D2E/DX2                !
 ! R43   R(25,27)                1.3736         estimate D2E/DX2                !
 ! R44   R(25,45)                1.1055         estimate D2E/DX2                !
 ! R45   R(26,28)                1.4114         estimate D2E/DX2                !
 ! R46   R(26,46)                0.9971         estimate D2E/DX2                !
 ! R47   R(27,29)                1.4235         estimate D2E/DX2                !
 ! R48   R(27,47)                1.0967         estimate D2E/DX2                !
 ! R49   R(28,30)                1.4725         estimate D2E/DX2                !
 ! R50   R(28,31)                1.2465         estimate D2E/DX2                !
 ! R51   R(29,30)                1.3703         estimate D2E/DX2                !
 ! R52   R(29,48)                1.1024         estimate D2E/DX2                !
 ! A1    A(2,1,3)               94.1486         estimate D2E/DX2                !
 ! A2    A(1,2,4)              112.0449         estimate D2E/DX2                !
 ! A3    A(1,2,32)             122.9716         estimate D2E/DX2                !
 ! A4    A(4,2,32)             124.9833         estimate D2E/DX2                !
 ! A5    A(1,3,5)              111.8708         estimate D2E/DX2                !
 ! A6    A(1,3,33)             122.1878         estimate D2E/DX2                !
 ! A7    A(5,3,33)             125.9411         estimate D2E/DX2                !
 ! A8    A(2,4,5)              111.4186         estimate D2E/DX2                !
 ! A9    A(2,4,34)             125.4643         estimate D2E/DX2                !
 ! A10   A(5,4,34)             123.1163         estimate D2E/DX2                !
 ! A11   A(3,5,4)              110.5168         estimate D2E/DX2                !
 ! A12   A(3,5,6)              127.1058         estimate D2E/DX2                !
 ! A13   A(4,5,6)              122.3762         estimate D2E/DX2                !
 ! A14   A(5,6,12)             116.6249         estimate D2E/DX2                !
 ! A15   A(5,6,13)             122.9544         estimate D2E/DX2                !
 ! A16   A(12,6,13)            120.4059         estimate D2E/DX2                !
 ! A17   A(8,7,9)              118.7005         estimate D2E/DX2                !
 ! A18   A(8,7,30)             121.524          estimate D2E/DX2                !
 ! A19   A(9,7,30)             119.7674         estimate D2E/DX2                !
 ! A20   A(7,8,10)             120.9111         estimate D2E/DX2                !
 ! A21   A(7,8,35)             119.7646         estimate D2E/DX2                !
 ! A22   A(10,8,35)            119.3197         estimate D2E/DX2                !
 ! A23   A(7,9,11)             120.9954         estimate D2E/DX2                !
 ! A24   A(7,9,36)             119.9364         estimate D2E/DX2                !
 ! A25   A(11,9,36)            119.067          estimate D2E/DX2                !
 ! A26   A(8,10,12)            120.2453         estimate D2E/DX2                !
 ! A27   A(8,10,37)            119.3418         estimate D2E/DX2                !
 ! A28   A(12,10,37)           120.4127         estimate D2E/DX2                !
 ! A29   A(9,11,12)            120.1726         estimate D2E/DX2                !
 ! A30   A(9,11,38)            119.5008         estimate D2E/DX2                !
 ! A31   A(12,11,38)           120.3241         estimate D2E/DX2                !
 ! A32   A(6,12,10)            120.8239         estimate D2E/DX2                !
 ! A33   A(6,12,11)            120.202          estimate D2E/DX2                !
 ! A34   A(10,12,11)           118.9681         estimate D2E/DX2                !
 ! A35   A(6,13,14)            118.5419         estimate D2E/DX2                !
 ! A36   A(6,13,15)            122.1155         estimate D2E/DX2                !
 ! A37   A(14,13,15)           119.3171         estimate D2E/DX2                !
 ! A38   A(13,14,17)           113.273          estimate D2E/DX2                !
 ! A39   A(13,14,39)           111.9951         estimate D2E/DX2                !
 ! A40   A(13,14,40)           106.434          estimate D2E/DX2                !
 ! A41   A(17,14,39)           107.9775         estimate D2E/DX2                !
 ! A42   A(17,14,40)           107.8161         estimate D2E/DX2                !
 ! A43   A(39,14,40)           109.2084         estimate D2E/DX2                !
 ! A44   A(17,16,18)           103.7119         estimate D2E/DX2                !
 ! A45   A(17,16,21)           135.0569         estimate D2E/DX2                !
 ! A46   A(18,16,21)           121.1883         estimate D2E/DX2                !
 ! A47   A(14,17,16)           125.3991         estimate D2E/DX2                !
 ! A48   A(14,17,19)           123.8296         estimate D2E/DX2                !
 ! A49   A(16,17,19)           108.3685         estimate D2E/DX2                !
 ! A50   A(16,18,20)           106.1624         estimate D2E/DX2                !
 ! A51   A(16,18,23)           120.4334         estimate D2E/DX2                !
 ! A52   A(20,18,23)           133.4034         estimate D2E/DX2                !
 ! A53   A(17,19,20)           112.242          estimate D2E/DX2                !
 ! A54   A(18,20,19)           109.3834         estimate D2E/DX2                !
 ! A55   A(16,21,22)           116.9251         estimate D2E/DX2                !
 ! A56   A(16,21,41)           121.5718         estimate D2E/DX2                !
 ! A57   A(22,21,41)           121.4978         estimate D2E/DX2                !
 ! A58   A(21,22,24)           122.1329         estimate D2E/DX2                !
 ! A59   A(21,22,42)           118.9905         estimate D2E/DX2                !
 ! A60   A(24,22,42)           118.8757         estimate D2E/DX2                !
 ! A61   A(18,23,24)           117.4719         estimate D2E/DX2                !
 ! A62   A(18,23,43)           120.889          estimate D2E/DX2                !
 ! A63   A(24,23,43)           121.6386         estimate D2E/DX2                !
 ! A64   A(22,24,23)           121.8464         estimate D2E/DX2                !
 ! A65   A(22,24,44)           118.866          estimate D2E/DX2                !
 ! A66   A(23,24,44)           119.2871         estimate D2E/DX2                !
 ! A67   A(26,25,27)           121.4736         estimate D2E/DX2                !
 ! A68   A(26,25,45)           116.3253         estimate D2E/DX2                !
 ! A69   A(27,25,45)           122.201          estimate D2E/DX2                !
 ! A70   A(25,26,28)           121.9248         estimate D2E/DX2                !
 ! A71   A(25,26,46)           120.2076         estimate D2E/DX2                !
 ! A72   A(28,26,46)           117.8663         estimate D2E/DX2                !
 ! A73   A(25,27,29)           119.2006         estimate D2E/DX2                !
 ! A74   A(25,27,47)           120.7546         estimate D2E/DX2                !
 ! A75   A(29,27,47)           120.0447         estimate D2E/DX2                !
 ! A76   A(26,28,30)           116.682          estimate D2E/DX2                !
 ! A77   A(26,28,31)           116.7685         estimate D2E/DX2                !
 ! A78   A(30,28,31)           126.5495         estimate D2E/DX2                !
 ! A79   A(27,29,30)           121.0893         estimate D2E/DX2                !
 ! A80   A(27,29,48)           118.1988         estimate D2E/DX2                !
 ! A81   A(30,29,48)           120.7106         estimate D2E/DX2                !
 ! A82   A(7,30,28)            118.9111         estimate D2E/DX2                !
 ! A83   A(7,30,29)            121.4644         estimate D2E/DX2                !
 ! A84   A(28,30,29)           119.6245         estimate D2E/DX2                !
 ! D1    D(3,1,2,4)              0.0646         estimate D2E/DX2                !
 ! D2    D(3,1,2,32)           179.9481         estimate D2E/DX2                !
 ! D3    D(2,1,3,5)              0.0357         estimate D2E/DX2                !
 ! D4    D(2,1,3,33)          -179.7621         estimate D2E/DX2                !
 ! D5    D(1,2,4,5)             -0.1427         estimate D2E/DX2                !
 ! D6    D(1,2,4,34)           179.5593         estimate D2E/DX2                !
 ! D7    D(32,2,4,5)           179.9766         estimate D2E/DX2                !
 ! D8    D(32,2,4,34)           -0.3214         estimate D2E/DX2                !
 ! D9    D(1,3,5,4)             -0.1201         estimate D2E/DX2                !
 ! D10   D(1,3,5,6)           -179.7362         estimate D2E/DX2                !
 ! D11   D(33,3,5,4)           179.6686         estimate D2E/DX2                !
 ! D12   D(33,3,5,6)             0.0524         estimate D2E/DX2                !
 ! D13   D(2,4,5,3)              0.1675         estimate D2E/DX2                !
 ! D14   D(2,4,5,6)            179.805          estimate D2E/DX2                !
 ! D15   D(34,4,5,3)          -179.5427         estimate D2E/DX2                !
 ! D16   D(34,4,5,6)             0.0948         estimate D2E/DX2                !
 ! D17   D(3,5,6,12)           179.0184         estimate D2E/DX2                !
 ! D18   D(3,5,6,13)            -2.3749         estimate D2E/DX2                !
 ! D19   D(4,5,6,12)            -0.5559         estimate D2E/DX2                !
 ! D20   D(4,5,6,13)           178.0508         estimate D2E/DX2                !
 ! D21   D(5,6,12,10)          -97.8936         estimate D2E/DX2                !
 ! D22   D(5,6,12,11)           81.2061         estimate D2E/DX2                !
 ! D23   D(13,6,12,10)          83.462          estimate D2E/DX2                !
 ! D24   D(13,6,12,11)         -97.4383         estimate D2E/DX2                !
 ! D25   D(5,6,13,14)          179.2298         estimate D2E/DX2                !
 ! D26   D(5,6,13,15)           -2.6172         estimate D2E/DX2                !
 ! D27   D(12,6,13,14)          -2.2144         estimate D2E/DX2                !
 ! D28   D(12,6,13,15)         175.9386         estimate D2E/DX2                !
 ! D29   D(9,7,8,10)             0.817          estimate D2E/DX2                !
 ! D30   D(9,7,8,35)          -178.3949         estimate D2E/DX2                !
 ! D31   D(30,7,8,10)         -178.1482         estimate D2E/DX2                !
 ! D32   D(30,7,8,35)            2.6399         estimate D2E/DX2                !
 ! D33   D(8,7,9,11)            -0.9545         estimate D2E/DX2                !
 ! D34   D(8,7,9,36)           178.6494         estimate D2E/DX2                !
 ! D35   D(30,7,9,11)          178.0293         estimate D2E/DX2                !
 ! D36   D(30,7,9,36)           -2.3668         estimate D2E/DX2                !
 ! D37   D(8,7,30,28)          -34.5515         estimate D2E/DX2                !
 ! D38   D(8,7,30,29)          145.4207         estimate D2E/DX2                !
 ! D39   D(9,7,30,28)          146.4942         estimate D2E/DX2                !
 ! D40   D(9,7,30,29)          -33.5336         estimate D2E/DX2                !
 ! D41   D(7,8,10,12)           -0.144          estimate D2E/DX2                !
 ! D42   D(7,8,10,37)         -179.9859         estimate D2E/DX2                !
 ! D43   D(35,8,10,12)         179.0714         estimate D2E/DX2                !
 ! D44   D(35,8,10,37)          -0.7706         estimate D2E/DX2                !
 ! D45   D(7,9,11,12)            0.4164         estimate D2E/DX2                !
 ! D46   D(7,9,11,38)         -179.0054         estimate D2E/DX2                !
 ! D47   D(36,9,11,12)        -179.1909         estimate D2E/DX2                !
 ! D48   D(36,9,11,38)           1.3873         estimate D2E/DX2                !
 ! D49   D(8,10,12,6)          178.7057         estimate D2E/DX2                !
 ! D50   D(8,10,12,11)          -0.405          estimate D2E/DX2                !
 ! D51   D(37,10,12,6)          -1.4541         estimate D2E/DX2                !
 ! D52   D(37,10,12,11)        179.4352         estimate D2E/DX2                !
 ! D53   D(9,11,12,6)         -178.8465         estimate D2E/DX2                !
 ! D54   D(9,11,12,10)           0.2699         estimate D2E/DX2                !
 ! D55   D(38,11,12,6)           0.5705         estimate D2E/DX2                !
 ! D56   D(38,11,12,10)        179.6868         estimate D2E/DX2                !
 ! D57   D(6,13,14,17)        -130.0788         estimate D2E/DX2                !
 ! D58   D(6,13,14,39)          -7.6612         estimate D2E/DX2                !
 ! D59   D(6,13,14,40)         111.6195         estimate D2E/DX2                !
 ! D60   D(15,13,14,17)         51.7153         estimate D2E/DX2                !
 ! D61   D(15,13,14,39)        174.133          estimate D2E/DX2                !
 ! D62   D(15,13,14,40)        -66.5863         estimate D2E/DX2                !
 ! D63   D(13,14,17,16)        -87.3304         estimate D2E/DX2                !
 ! D64   D(13,14,17,19)         72.9998         estimate D2E/DX2                !
 ! D65   D(39,14,17,16)        148.0454         estimate D2E/DX2                !
 ! D66   D(39,14,17,19)        -51.6244         estimate D2E/DX2                !
 ! D67   D(40,14,17,16)         30.1669         estimate D2E/DX2                !
 ! D68   D(40,14,17,19)       -169.5028         estimate D2E/DX2                !
 ! D69   D(18,16,17,14)        166.1468         estimate D2E/DX2                !
 ! D70   D(18,16,17,19)          3.2817         estimate D2E/DX2                !
 ! D71   D(21,16,17,14)        -16.3268         estimate D2E/DX2                !
 ! D72   D(21,16,17,19)       -179.1919         estimate D2E/DX2                !
 ! D73   D(17,16,18,20)         -1.7954         estimate D2E/DX2                !
 ! D74   D(17,16,18,23)        177.9237         estimate D2E/DX2                !
 ! D75   D(21,16,18,20)       -179.7531         estimate D2E/DX2                !
 ! D76   D(21,16,18,23)         -0.034          estimate D2E/DX2                !
 ! D77   D(17,16,21,22)       -177.5349         estimate D2E/DX2                !
 ! D78   D(17,16,21,41)          3.2925         estimate D2E/DX2                !
 ! D79   D(18,16,21,22)         -0.3442         estimate D2E/DX2                !
 ! D80   D(18,16,21,41)       -179.5167         estimate D2E/DX2                !
 ! D81   D(14,17,19,20)       -167.0606         estimate D2E/DX2                !
 ! D82   D(16,17,19,20)         -3.8649         estimate D2E/DX2                !
 ! D83   D(16,18,20,19)         -0.4163         estimate D2E/DX2                !
 ! D84   D(23,18,20,19)        179.9171         estimate D2E/DX2                !
 ! D85   D(16,18,23,24)          0.349          estimate D2E/DX2                !
 ! D86   D(16,18,23,43)       -179.9037         estimate D2E/DX2                !
 ! D87   D(20,18,23,24)        179.9776         estimate D2E/DX2                !
 ! D88   D(20,18,23,43)         -0.2751         estimate D2E/DX2                !
 ! D89   D(17,19,20,18)          2.6316         estimate D2E/DX2                !
 ! D90   D(16,21,22,24)          0.4133         estimate D2E/DX2                !
 ! D91   D(16,21,22,42)       -179.2273         estimate D2E/DX2                !
 ! D92   D(41,21,22,24)        179.5865         estimate D2E/DX2                !
 ! D93   D(41,21,22,42)         -0.0541         estimate D2E/DX2                !
 ! D94   D(21,22,24,23)         -0.1002         estimate D2E/DX2                !
 ! D95   D(21,22,24,44)       -179.8329         estimate D2E/DX2                !
 ! D96   D(42,22,24,23)        179.5408         estimate D2E/DX2                !
 ! D97   D(42,22,24,44)         -0.1919         estimate D2E/DX2                !
 ! D98   D(18,23,24,22)         -0.289          estimate D2E/DX2                !
 ! D99   D(18,23,24,44)        179.4426         estimate D2E/DX2                !
 ! D100  D(43,23,24,22)        179.9657         estimate D2E/DX2                !
 ! D101  D(43,23,24,44)         -0.3027         estimate D2E/DX2                !
 ! D102  D(27,25,26,28)         -0.0381         estimate D2E/DX2                !
 ! D103  D(27,25,26,46)        179.5576         estimate D2E/DX2                !
 ! D104  D(45,25,26,28)       -179.9718         estimate D2E/DX2                !
 ! D105  D(45,25,26,46)         -0.3761         estimate D2E/DX2                !
 ! D106  D(26,25,27,29)          0.2087         estimate D2E/DX2                !
 ! D107  D(26,25,27,47)       -179.7127         estimate D2E/DX2                !
 ! D108  D(45,25,27,29)       -179.8614         estimate D2E/DX2                !
 ! D109  D(45,25,27,47)          0.2171         estimate D2E/DX2                !
 ! D110  D(25,26,28,30)         -0.4806         estimate D2E/DX2                !
 ! D111  D(25,26,28,31)        179.5569         estimate D2E/DX2                !
 ! D112  D(46,26,28,30)        179.9146         estimate D2E/DX2                !
 ! D113  D(46,26,28,31)         -0.0479         estimate D2E/DX2                !
 ! D114  D(25,27,29,30)          0.1858         estimate D2E/DX2                !
 ! D115  D(25,27,29,48)       -179.4113         estimate D2E/DX2                !
 ! D116  D(47,27,29,30)       -179.8922         estimate D2E/DX2                !
 ! D117  D(47,27,29,48)          0.5108         estimate D2E/DX2                !
 ! D118  D(26,28,30,7)        -179.177          estimate D2E/DX2                !
 ! D119  D(26,28,30,29)          0.8503         estimate D2E/DX2                !
 ! D120  D(31,28,30,7)           0.7813         estimate D2E/DX2                !
 ! D121  D(31,28,30,29)       -179.1914         estimate D2E/DX2                !
 ! D122  D(27,29,30,7)         179.3105         estimate D2E/DX2                !
 ! D123  D(27,29,30,28)         -0.7175         estimate D2E/DX2                !
 ! D124  D(48,29,30,7)          -1.1026         estimate D2E/DX2                !
 ! D125  D(48,29,30,28)        178.8695         estimate D2E/DX2                !
 --------------------------------------------------------------------------------
 Trust Radius=3.00D-01 FncErr=1.00D-07 GrdErr=1.00D-07
 Number of steps in this run=    271 maximum allowed number of steps=    288.
 GradGradGradGradGradGradGradGradGradGradGradGradGradGradGradGradGradGrad

 Leave Link  103 at Fri Aug 26 19:42:28 2022, MaxMem=  209715200 cpu:       0.1
 (Enter /opt/gaussian/l202.exe)
                          Input orientation:                          
 ---------------------------------------------------------------------
 Center     Atomic      Atomic             Coordinates (Angstroms)
 Number     Number       Type             X           Y           Z
 ---------------------------------------------------------------------
      1         16           0       13.909000   -8.009000   -1.918000
      2          6           0       14.974900   -6.726700   -1.933100
      3          6           0       15.005400   -9.069200   -1.248000
      4          6           0       16.203600   -7.071900   -1.426700
      5          6           0       16.234700   -8.463300   -1.013000
      6          7           0       17.384900   -9.060900   -0.463800
      7          6           0       20.793100   -6.543400   -0.114700
      8          6           0       20.672300   -7.432600   -1.191600
      9          6           0       19.780100   -6.519900    0.857200
     10          6           0       19.564100   -8.266000   -1.309700
     11          6           0       18.666600   -7.344500    0.750400
     12          6           0       18.542200   -8.229700   -0.340200
     13          6           0       17.416600  -10.384300   -0.026200
     14          6           0       18.739100  -10.941500    0.543300
     15          8           0       16.409400  -11.112500   -0.049900
     16          6           0       18.711900  -13.475400    0.414000
     17          7           0       19.124500  -12.199700   -0.040600
     18          6           0       19.076500  -14.361600   -0.672500
     19          7           0       19.612900  -12.332300   -1.316200
     20          7           0       19.634700  -13.529800   -1.694900
     21          6           0       18.136800  -13.968100    1.586900
     22          6           0       17.926300  -15.340400    1.656500
     23          6           0       18.859000  -15.735900   -0.567000
     24          6           0       18.279300  -16.205200    0.606000
     25          6           0       24.141100   -3.933200    0.228800
     26          7           0       24.318800   -5.176800   -0.318500
     27          6           0       22.907500   -3.508300    0.658400
     28          6           0       23.249500   -6.085500   -0.469500
     29          6           0       21.790500   -4.382100    0.535700
     30          6           0       21.928600   -5.636300    0.001200
     31          8           0       23.517900   -7.187300   -0.986900
     32          1           0       14.708700   -5.739000   -2.307100
     33          1           0       14.753000  -10.110400   -1.036100
     34          1           0       17.063800   -6.404500   -1.340800
     35          1           0       21.470900   -7.484600   -1.951300
     36          1           0       19.865100   -5.845400    1.723200
     37          1           0       19.495700   -8.955700   -2.167200
     38          1           0       17.878600   -7.294100    1.518500
     39          1           0       19.594600  -10.218800    0.409000
     40          1           0       18.565900  -11.110900    1.644800
     41          1           0       17.850900  -13.301400    2.411000
     42          1           0       17.462700  -15.764100    2.561200
     43          1           0       19.134200  -16.415300   -1.386100
     44          1           0       18.085800  -17.282900    0.717200
     45          1           0       25.042000   -3.296700    0.302500
     46          1           0       25.221500   -5.463400   -0.630200
     47          1           0       22.777800   -2.508700    1.090400
     48          1           0       20.806400   -4.020600    0.876600
 ---------------------------------------------------------------------
                    Distance matrix (angstroms):
                    1          2          3          4          5
     1  S    0.000000
     2  C    1.667532   0.000000
     3  C    1.665838   2.440819   0.000000
     4  C    2.526801   1.373065   2.335985   0.000000
     5  C    2.536591   2.334408   1.390510   1.451933   0.000000
     6  N    3.911914   3.662708   2.505406   2.505747   1.407731
     7  C    7.265721   6.098494   6.415723   4.802517   5.027123
     8  C    6.826575   5.788651   5.898762   4.489394   4.559225
     9  C    6.662505   5.560439   5.807629   4.279282   4.454696
    10  C    5.693526   4.880454   4.629329   3.568266   3.348412
    11  C    5.495150   4.605594   4.513599   3.298552   3.205531
    12  C    4.899460   4.185925   3.746707   2.826665   2.414909
    13  C    4.639420   4.793350   3.006022   3.795361   2.461890
    14  C    6.163394   6.169789   4.544753   5.028267   3.851696
    15  O    4.401535   4.983922   2.753495   4.273685   2.824242
    16  C    7.641178   8.063436   5.992911   7.119309   5.770095
    17  N    6.948959   7.124217   5.312705   6.061952   4.822571
    18  C    8.283106   8.758078   6.701832   7.871601   6.556044
    19  N    7.182448   7.301668   5.646373   6.269557   5.145224
    20  N    7.956924   8.249403   6.444152   7.317708   6.139577
    21  C    8.103671   8.650196   6.468504   7.770239   6.378110
    22  C    9.092039   9.787329   7.503048   8.991213   7.568503
    23  C    9.275381   9.905460   7.730387   9.102479   7.744455
    24  C    9.625372  10.354132   8.067108   9.584235   8.169368
    25  C   11.221264   9.823272  10.583971   8.694597   9.196469
    26  N   10.906131   9.608204  10.136773   8.406901   8.754204
    27  C   10.385911   8.944278   9.848916   7.873320   8.477727
    28  C    9.645877   8.427471   8.801915   7.178713   7.426759
    29  C    9.016268   7.618696   8.437303   6.503806   7.065520
    30  C    8.580619   7.299619   7.827899   6.072518   6.437471
    31  O    9.688813   8.607572   8.721948   7.328419   7.394177
    32  H    2.437995   1.089169   3.507129   2.187796   3.380116
    33  H    2.430219   3.507602   1.092110   3.389586   2.215605
    34  H    3.586132   2.195025   3.368419   1.092129   2.243550
    35  H    7.580134   6.540089   6.693899   5.309423   5.408886
    36  H    7.308531   6.169220   6.545044   4.983247   5.245950
    37  H    5.671821   5.045877   4.584823   3.864578   3.494103
    38  H    5.298900   4.546093   4.365751   3.395468   3.236963
    39  H    6.528721   6.246745   5.012782   4.977113   4.048801
    40  H    6.633404   6.702079   5.021354   5.597151   4.416807
    41  H    7.892295   8.388639   6.276677   7.499881   6.143541
    42  H    9.635019  10.395310   8.085172   9.645881   8.220984
    43  H    9.912190  10.557839   8.428004   9.792303   8.472344
    44  H   10.506910  11.319680   8.989758  10.602052   9.176356
    45  H   12.291464  10.867811  11.681573   9.765223  10.295282
    46  H   11.666669  10.406070  10.851367   9.194792   9.482010
    47  H   10.860911   9.371143  10.436402   8.389201   9.093608
    48  H    8.443415   7.015966   7.978339   5.983426   6.648956
                    6          7          8          9         10
     6  N    0.000000
     7  C    4.251530   0.000000
     8  C    3.740060   1.401778   0.000000
     9  C    3.733458   1.404034   2.413840   0.000000
    10  C    2.469074   2.430189   1.391622   2.791232   0.000000
    11  C    2.462329   2.431494   2.793199   1.389696   2.428720
    12  C    1.430215   2.821526   2.428493   2.426846   1.409087
    13  C    1.394233   5.114792   4.546457   4.615205   3.278159
    14  C    2.526809   4.898486   4.365721   4.553324   3.357459
    15  O    2.309107   6.332274   5.746082   5.768572   4.431906
    16  C    4.692470   7.256965   6.552599   7.050990   5.552948
    17  N    3.613499   5.897749   5.142541   5.787572   4.156664
    18  C    5.567988   8.023846   7.129312   8.020430   6.148180
    19  N    4.048781   6.028917   5.014470   6.207706   4.066598
    20  N    5.152502   7.255943   6.205302   7.461438   5.278348
    21  C    5.371344   8.067065   7.540662   7.662152   6.552970
    22  C    6.649880   9.420345   8.842256   9.048573   7.843970
    23  C    6.836611   9.404646   8.521911   9.370775   7.539773
    24  C    7.279110  10.009444   9.269106   9.804108   8.267497
    25  C    8.509949   4.259136   5.127954   5.109229   6.487609
    26  N    7.948982   3.786778   4.375831   4.877088   5.756110
    27  C    7.911372   3.778916   4.880446   4.346250   6.139011
    28  C    6.576212   2.523778   2.996342   3.739729   4.363793
    29  C    6.503805   2.467599   3.679604   2.952162   4.842214
    30  C    5.708706   1.457952   2.495547   2.475790   3.771557
    31  O    6.434104   2.932554   2.863479   4.221052   4.111001
    32  H    4.647023   6.517177   6.298980   6.028408   5.563762
    33  H    2.890653   7.074975   6.498685   6.461270   5.159782
    34  H    2.815794   3.928141   3.755066   3.496113   3.117314
    35  H    4.625232   2.172181   1.103454   3.417181   2.158268
    36  H    4.612353   2.173997   3.415675   1.100968   3.892093
    37  H    2.714427   3.422747   2.157780   3.893713   1.102575
    38  H    2.700895   3.424208   3.894687   2.156944   3.432814
    39  H    2.642969   3.901183   3.389140   3.730570   2.601593
    40  H    3.169141   5.377575   5.100194   4.813718   4.221247
    41  H    5.144266   7.791423   7.441897   7.219754   6.491064
    42  H    7.354561  10.162348   9.684985   9.681384   8.696048
    43  H    7.615634  10.090729   9.115508  10.167031   8.160989
    44  H    8.335905  11.106682  10.361559  10.896441   9.359390
    45  H    9.614801   5.363606   6.199378   6.195507   7.569711
    46  H    8.624500   4.587250   4.988801   5.739110   6.349997
    47  H    8.627296   4.655116   5.821121   5.013014   7.016755
    48  H    6.237624   2.710604   3.992140   2.701882   4.934231
                   11         12         13         14         15
    11  C    0.000000
    12  C    1.410129   0.000000
    13  C    3.377276   2.451096   0.000000
    14  C    3.603686   2.858881   1.543959   0.000000
    15  O    4.464668   3.597728   1.243096   2.410110   0.000000
    16  C    6.140289   5.302356   3.380307   2.537343   3.331667
    17  N    4.940478   4.023647   2.492550   1.439632   2.924698
    18  C    7.171635   6.164097   4.357968   3.645421   4.249436
    19  N    5.481283   4.350897   3.206640   2.481046   3.654291
    20  N    6.721209   5.578515   4.195080   3.537080   4.353381
    21  C    6.697201   6.066902   3.995548   3.257633   3.717187
    22  C    8.081057   7.411356   5.258726   4.609792   4.804990
    23  C    8.496361   7.516305   5.568896   4.922745   5.257733
    24  C    8.870336   8.035733   5.918345   5.284116   5.464643
    25  C    6.471413   7.080350   9.322050   8.854196  10.554582
    26  N    6.147262   6.533741   8.651235   8.068923   9.892588
    27  C    5.719277   6.507278   8.825986   8.522985  10.027505
    28  C    4.906751   5.174262   7.259402   6.704492   8.499045
    29  C    4.310529   5.111035   7.448029   7.234420   8.636981
    30  C    3.757644   4.279017   6.549992   6.213850   7.775149
    31  O    5.155389   5.124686   6.954827   6.266774   8.174102
    32  H    5.252705   4.976746   5.840722   7.171814   6.071395
    33  H    5.114494   4.287114   2.861762   4.367405   2.172661
    34  H    2.797443   2.553081   4.206120   5.190456   4.925437
    35  H    3.896525   3.424631   5.343371   5.063192   6.511203
    36  H    2.151753   3.419440   5.445839   5.350727   6.544317
    37  H    3.434496   2.184987   3.308691   3.444221   4.319721
    38  H    1.101572   2.184142   3.485524   3.872338   4.381621
    39  H    3.039628   2.371785   2.227212   1.127924   3.339878
    40  H    3.872449   3.498871   2.154316   1.127828   2.742718
    41  H    6.237597   5.811122   3.825968   3.137886   3.595168
    42  H    8.695863   8.145589   5.969842   5.381318   5.437340
    43  H    9.330739   8.273356   6.416575   5.817317   6.109800
    44  H    9.955412   9.126162   6.970736   6.377335   6.439922
    45  H    7.565119   8.185044  10.415798   9.910979  11.650438
    46  H    6.957823   7.235300   9.246434   8.567858  10.483424
    47  H    6.356298   7.260631   9.592410   9.366031  10.764858
    48  H    3.955121   4.931909   7.266531   7.230745   8.395657
                   16         17         18         19         20
    16  C    0.000000
    17  N    1.415737   0.000000
    18  C    1.448712   2.252868   0.000000
    19  N    2.260989   1.372324   2.195480   0.000000
    20  N    2.302603   2.183158   1.431356   1.256143   0.000000
    21  C    1.396133   2.598374   2.478461   3.644544   3.634009
    22  C    2.374700   3.765611   2.775833   4.553046   4.174780
    23  C    2.468574   3.585010   1.395399   3.565692   2.596295
    24  C    2.770526   4.144452   2.380956   4.524676   3.780081
    25  C   10.980168   9.673359  11.628157   9.666256  10.775110
    26  N   10.041944   8.739514  10.581473   8.622185   9.675116
    27  C   10.816925   9.504742  11.586284   9.623742  10.801838
    28  C    8.716709   7.388032   9.270867   7.277656   8.365763
    29  C    9.601078   8.279767  10.412299   8.448500   9.659372
    30  C    8.483458   7.137433   9.204304   7.206554   8.393216
    31  O    8.037435   6.732132   8.443664   6.467495   7.470463
    32  H    9.125891   8.147205   9.803001   8.276755   9.237794
    33  H    5.394340   4.946333   6.074336   5.351068   5.996441
    34  H    7.469483   6.286601   8.234867   6.452699   7.583193
    35  H    7.006883   5.602547   7.393349   5.230269   6.323117
    36  H    7.826926   6.636008   8.881832   7.168084   8.413471
    37  H    5.263518   3.896634   5.624377   3.484159   4.600519
    38  H    6.334254   5.296034   7.495666   6.035460   7.231444
    39  H    3.374111   2.084970   4.312872   2.728284   3.923101
    40  H    2.669653   2.082809   4.024629   3.369799   4.259930
    41  H    2.181652   2.974247   3.483402   4.235070   4.482468
    42  H    3.377738   4.715495   3.876619   5.606678   5.274852
    43  H    3.472997   4.425127   2.174911   4.111560   2.944821
    44  H    3.870528   5.243289   3.383304   5.565536   4.722613
    45  H   11.987015  10.695697  12.608324  10.664773  11.744992
    46  H   10.375808   9.104876  10.813916   8.894312   9.869789
    47  H   11.715698  10.418313  12.541877  10.597709  11.794135
    48  H    9.695059   8.400460  10.598516   8.678547   9.920200
                   21         22         23         24         25
    21  C    0.000000
    22  C    1.390094   0.000000
    23  C    2.878537   2.443420   0.000000
    24  C    2.446853   1.405716   1.390044   0.000000
    25  C   11.772649  13.068522  12.955215  13.605328   0.000000
    26  N   10.914881  12.168132  11.889733  12.607770   1.370276
    27  C   11.533824  12.876612  12.938553  13.514224   1.373632
    28  C    9.617893  10.886207  10.602651  11.325543   2.432071
    29  C   10.312417  11.673584  11.777878  12.333660   2.412679
    30  C    9.290376  10.626758  10.571056  11.197536   2.801340
    31  O    9.031054  10.233601   9.744754  10.550013   3.529231
    32  H    9.727959  10.874280  10.963163  11.435763   9.932868
    33  H    5.762992   6.683773   6.980368   7.230344  11.309031
    34  H    8.181125   9.464567   9.533967  10.065843   7.658926
    35  H    8.103756   9.343126   8.764831   9.631976   4.949267
    36  H    8.305652   9.691152  10.201924  10.539846   4.916698
    37  H    6.408122   7.605793   6.995508   7.856559   7.248866
    38  H    6.679343   8.047625   8.750685   8.966656   7.223426
    39  H    4.191644   5.529039   5.650847   6.132357   7.759633
    40  H    2.889822   4.277604   5.135036   5.207028   9.198222
    41  H    1.097893   2.175426   3.976373   3.445810  11.493119
    42  H    2.151578   1.101330   3.425797   2.164304  13.784459
    43  H    3.977728   3.445555   1.099202   2.177948  13.545470
    44  H    3.427372   2.163569   2.154116   1.100566  14.666959
    45  H   12.775377  14.054082  13.918305  14.575857   1.105525
    46  H   11.288863  12.490159  12.083446  12.849459   2.060742
    47  H   12.373489  13.729896  13.894704  14.424467   2.151776
    48  H   10.323955  11.706455  11.963469  12.446844   3.398162
                   26         27         28         29         30
    26  N    0.000000
    27  C    2.393740   0.000000
    28  C    1.411361   2.833916   0.000000
    29  C    2.784512   1.423471   2.457779   0.000000
    30  C    2.454874   2.432805   1.472452   1.370321   0.000000
    31  O    2.265019   4.076106   1.246477   3.629238   2.430600
    32  H    9.829782   8.999474   8.743117   7.750779   7.580617
    33  H   10.787024  10.628025   9.418671   9.209255   8.519554
    34  H    7.428820   6.821554   6.254903   5.472938   5.104642
    35  H    4.012793   4.968432   2.704927   3.989088   2.727262
    36  H    4.944796   3.981461   4.039770   2.694173   2.695745
    37  H    6.400006   7.021293   5.021080   5.787019   4.651814
    38  H    7.023796   6.353101   5.853155   4.974797   4.631738
    39  H    6.947596   7.487878   5.586969   6.237395   5.158795
    40  H    8.494937   8.810335   7.187560   7.543533   6.631773
    41  H   10.737459  11.160001   9.461045   9.929306   9.010468
    42  H   12.937917  13.545151  11.676793  12.344328  11.360906
    43  H   12.422710  13.601780  11.157088  12.471854  11.221413
    44  H   13.655791  14.594240  12.387648  13.423427  12.285075
    45  H    2.107946   2.174288   3.403887   3.435801   3.906119
    46  H    0.997078   3.292036   2.074034   3.781573   3.357343
    47  H    3.387984   1.096652   3.930558   2.189082   3.418973
    48  H    3.886131   2.173634   3.470524   1.102428   2.153171
                   31         32         33         34         35
    31  O    0.000000
    32  H    9.024550   0.000000
    33  H    9.239611   4.552641   0.000000
    34  H    6.511024   2.631183   4.377937   0.000000
    35  H    2.282250   6.992929   7.270667   4.578412   0.000000
    36  H    4.742182   6.545464   7.206770   4.189030   4.332150
    37  H    4.549554   5.769064   5.010581   3.620179   2.472279
    38  H    6.171721   5.205941   4.922083   3.103367   4.998042
    39  H    5.150807   7.163646   5.053826   4.900575   4.070303
    40  H    6.844179   7.704078   4.767225   5.772375   5.875458
    41  H    9.002379   9.451126   5.626896   7.890675   8.122144
    42  H   11.082236  11.479873   7.228234  10.148243  10.245899
    43  H   10.224098  11.593820   7.685647  10.222755   9.248623
    44  H   11.590203  12.402130   8.101011  11.118428  10.704507
    45  H    4.372894  10.933981  12.412972   8.718402   5.947342
    46  H    2.449759  10.649268  11.460753   8.242493   4.460668
    47  H    5.172255   9.332107  11.256343   7.330606   5.976580
    48  H    4.566492   7.090190   8.797030   4.960534   4.520827
                   36         37         38         39         40
    36  H    0.000000
    37  H    4.994561   0.000000
    38  H    2.467147   4.354344   0.000000
    39  H    4.574595   2.870890   3.567845   0.000000
    40  H    5.423980   4.476691   3.880244   1.838822   0.000000
    41  H    7.753838   6.523066   6.073300   4.068282   2.428287
    42  H   10.239843   8.534938   8.544068   6.318806   4.869200
    43  H   11.041954   7.509090   9.654508   6.467686   6.135632
    44  H   11.618707   8.924676  10.023030   7.230005   6.259754
    45  H    5.942605   8.299707   8.292898   8.809142  10.237351
    46  H    5.863057   6.880648   7.866801   7.440146   9.020360
    47  H    4.474128   7.933974   6.861886   8.369152   9.594024
    48  H    2.220962   5.944566   4.438451   6.332834   7.475448
                   41         42         43         44         45
    41  H    0.000000
    42  H    2.497629   0.000000
    43  H    5.075549   4.335799   0.000000
    44  H    4.333183   2.468875   2.505143   0.000000
    45  H   12.500069  14.764267  14.486240  15.626083   0.000000
    46  H   11.180737  13.284895  12.552718  13.872068   2.365743
    47  H   11.937366  14.356851  14.587748  15.505842   2.523555
    48  H    9.860153  12.325908  12.710022  13.539412   4.335197
                   46         47         48
    46  H    0.000000
    47  H    4.202664   0.000000
    48  H    4.883157   2.493586   0.000000
 Stoichiometry    C23H17N5O2S
 Framework group  C1[X(C23H17N5O2S)]
 Deg. of freedom   138
 Full point group                 C1      NOp   1
 Largest Abelian subgroup         C1      NOp   1
 Largest concise Abelian subgroup C1      NOp   1
                         Standard orientation:                         
 ---------------------------------------------------------------------
 Center     Atomic      Atomic             Coordinates (Angstroms)
 Number     Number       Type             X           Y           Z
 ---------------------------------------------------------------------
      1         16           0       -1.384529    5.279013   -0.509067
      2          6           0        0.252725    4.971480   -0.583135
      3          6           0       -1.787310    3.702338   -0.152864
      4          6           0        0.540715    3.651400   -0.338679
      5          6           0       -0.664791    2.885038   -0.078773
      6          7           0       -0.635924    1.504705    0.196100
      7          6           0        3.211158   -0.305107    0.189480
      8          6           0        2.377062   -0.401908   -0.932970
      9          6           0        2.740702    0.378208    1.322203
     10          6           0        1.113186    0.180513   -0.936798
     11          6           0        1.481949    0.967032    1.331259
     12          6           0        0.649665    0.877987    0.196431
     13          6           0       -1.781628    0.765023    0.486129
     14          6           0       -1.634403   -0.748281    0.754542
     15          8           0       -2.904944    1.291171    0.567483
     16          6           0       -3.867476   -1.892814    0.378327
     17          7           0       -2.549443   -1.553516   -0.011513
     18          6           0       -4.465037   -2.402885   -0.838847
     19          7           0       -2.426427   -1.776331   -1.360028
     20          7           0       -3.464093   -2.282517   -1.854920
     21          6           0       -4.579880   -1.869417    1.578794
     22          6           0       -5.884011   -2.349571    1.546299
     23          6           0       -5.774403   -2.885260   -0.835156
     24          6           0       -6.468519   -2.846907    0.368570
     25          6           0        7.110481   -2.018426    0.197304
     26          7           0        6.108049   -2.645933   -0.494808
     27          6           0        6.887118   -0.846541    0.878230
     28          6           0        4.797034   -2.125710   -0.545273
     29          6           0        5.583615   -0.274672    0.867394
     30          6           0        4.552775   -0.875783    0.193737
     31          8           0        3.962466   -2.770311   -1.209870
     32          1           0        0.991087    5.741331   -0.803227
     33          1           0       -2.821932    3.385302   -0.005387
     34          1           0        1.539737    3.210150   -0.339300
     35          1           0        2.718595   -0.957694   -1.822951
     36          1           0        3.370058    0.447360    2.222903
     37          1           0        0.478483    0.088225   -1.833629
     38          1           0        1.144096    1.511261    2.227435
     39          1           0       -0.588518   -1.114747    0.544685
     40          1           0       -1.869649   -0.902998    1.846658
     41          1           0       -4.135940   -1.477083    2.503110
     42          1           0       -6.481413   -2.334930    2.471407
     43          1           0       -6.234642   -3.275409   -1.753963
     44          1           0       -7.506439   -3.211264    0.403387
     45          1           0        8.102074   -2.506695    0.174455
     46          1           0        6.292804   -3.492550   -0.988032
     47          1           0        7.699221   -0.351820    1.424477
     48          1           0        5.425182    0.671184    1.411089
 ---------------------------------------------------------------------
 Rotational constants (GHZ):      0.1647652      0.0771484      0.0565162
 Leave Link  202 at Fri Aug 26 19:42:28 2022, MaxMem=  209715200 cpu:       0.0
 (Enter /opt/gaussian/l301.exe)
 Standard basis: 6-31G (6D, 7F)
 Ernie: Thresh=  0.10000D-02 Tol=  0.10000D-05 Strict=F.
 There are   317 symmetry adapted basis functions of A   symmetry.
 Integral buffers will be    131072 words long.
 Raffenetti 1 integral format.
 Two-electron integral symmetry is turned on.
   317 basis functions,   774 primitive gaussians,   317 cartesian basis functions
   111 alpha electrons      111 beta electrons
       nuclear repulsion energy      2911.8508382598 Hartrees.



 Warning!  S  atom    1 may be hypervalent but has no d functions.



 IExCor=    0 DFT=F Ex=HF Corr=None ExCW=0 ScaHFX=  1.000000
 ScaDFX=  1.000000  1.000000  1.000000  1.000000 ScalE2=  1.000000  1.000000
 IRadAn=      0 IRanWt=     -1 IRanGd=            0 ICorTp=0
 NAtoms=   48 NActive=   48 NUniq=   48 SFac= 1.00D+00 NAtFMM=   60 NAOKFM=F Big=F
 Leave Link  301 at Fri Aug 26 19:42:28 2022, MaxMem=  209715200 cpu:       0.2
 (Enter /opt/gaussian/l302.exe)
 NPDir=0 NMtPBC=     1 NCelOv=     1 NCel=       1 NClECP=     1 NCelD=      1
         NCelK=      1 NCelE2=     1 NClLst=     1 CellRange=     0.0.
 One-electron integrals computed using PRISM.
 NBasis=   317 RedAO= T  NBF=   317
 NBsUse=   317 1.00D-06 NBFU=   317
 Leave Link  302 at Fri Aug 26 19:42:28 2022, MaxMem=  209715200 cpu:       1.8
 (Enter /opt/gaussian/l303.exe)
 DipDrv:  MaxL=1.
 Leave Link  303 at Fri Aug 26 19:42:29 2022, MaxMem=  209715200 cpu:       0.4
 (Enter /opt/gaussian/l401.exe)
 Harris functional with IExCor=  205 diagonalized for initial guess.
 ExpMin= 1.17D-01 ExpMax= 2.19D+04 ExpMxC= 3.30D+03 IAcc=1 IRadAn=         1 AccDes= 0.00D+00
 HarFok:  IExCor=  205 AccDes= 0.00D+00 IRadAn=         1 IDoV= 1
 ScaDFX=  1.000000  1.000000  1.000000  1.000000
 FoFCou: FMM=F IPFlag=           0 FMFlag=      100000 FMFlg1=           0
         NFxFlg=           0 DoJE=T BraDBF=F KetDBF=T FulRan=T
         Omega=  0.000000  0.000000  1.000000  0.000000  0.000000 ICntrl=     500 IOpCl=  0
         NMat0=    1 NMatS0=    1 NMatT0=    0 NMatD0=    1 NMtDS0=    0 NMtDT0=    0
         I1Cent=           4 NGrid=           0.
 Petite list used in FoFCou.
 Harris En= -1700.76554128310    
 Initial guess orbital symmetries:
       Occupied  (A) (A) (A) (A) (A) (A) (A) (A) (A) (A) (A) (A)
                 (A) (A) (A) (A) (A) (A) (A) (A) (A) (A) (A) (A)
                 (A) (A) (A) (A) (A) (A) (A) (A) (A) (A) (A) (A)
                 (A) (A) (A) (A) (A) (A) (A) (A) (A) (A) (A) (A)
                 (A) (A) (A) (A) (A) (A) (A) (A) (A) (A) (A) (A)
                 (A) (A) (A) (A) (A) (A) (A) (A) (A) (A) (A) (A)
                 (A) (A) (A) (A) (A) (A) (A) (A) (A) (A) (A) (A)
                 (A) (A) (A) (A) (A) (A) (A) (A) (A) (A) (A) (A)
                 (A) (A) (A) (A) (A) (A) (A) (A) (A) (A) (A) (A)
                 (A) (A) (A)
       Virtual   (A) (A) (A) (A) (A) (A) (A) (A) (A) (A) (A) (A)
                 (A) (A) (A) (A) (A) (A) (A) (A) (A) (A) (A) (A)
                 (A) (A) (A) (A) (A) (A) (A) (A) (A) (A) (A) (A)
                 (A) (A) (A) (A) (A) (A) (A) (A) (A) (A) (A) (A)
                 (A) (A) (A) (A) (A) (A) (A) (A) (A) (A) (A) (A)
                 (A) (A) (A) (A) (A) (A) (A) (A) (A) (A) (A) (A)
                 (A) (A) (A) (A) (A) (A) (A) (A) (A) (A) (A) (A)
                 (A) (A) (A) (A) (A) (A) (A) (A) (A) (A) (A) (A)
                 (A) (A) (A) (A) (A) (A) (A) (A) (A) (A) (A) (A)
                 (A) (A) (A) (A) (A) (A) (A) (A) (A) (A) (A) (A)
                 (A) (A) (A) (A) (A) (A) (A) (A) (A) (A) (A) (A)
                 (A) (A) (A) (A) (A) (A) (A) (A) (A) (A) (A) (A)
                 (A) (A) (A) (A) (A) (A) (A) (A) (A) (A) (A) (A)
                 (A) (A) (A) (A) (A) (A) (A) (A) (A) (A) (A) (A)
                 (A) (A) (A) (A) (A) (A) (A) (A) (A) (A) (A) (A)
                 (A) (A) (A) (A) (A) (A) (A) (A) (A) (A) (A) (A)
                 (A) (A) (A) (A) (A) (A) (A) (A) (A) (A) (A) (A)
                 (A) (A)
 The electronic state of the initial guess is 1-A.
 Leave Link  401 at Fri Aug 26 19:42:29 2022, MaxMem=  209715200 cpu:       4.2
 (Enter /opt/gaussian/l502.exe)
 Closed shell SCF:
 Requested convergence on RMS density matrix=1.00D-08 within 128 cycles.
 Requested convergence on MAX density matrix=1.00D-06.
 Requested convergence on             energy=1.00D-06.
 No special actions if energy rises.
 Using DIIS extrapolation, IDIIS=  1040.
 Integral symmetry usage will be decided dynamically.
 IEnd=      324592 IEndB=      324592 NGot=   209715200 MDV=   209508055
 LenX=   209508055 LenY=   209407125
 Fock matrices will be formed incrementally for  20 cycles.
 Integral accuracy reduced to 1.0D-05 until final iterations.

 Cycle   1  Pass 0  IDiag  1:
 FoFCou: FMM=F IPFlag=           0 FMFlag=      100000 FMFlg1=           0
         NFxFlg=           0 DoJE=F BraDBF=F KetDBF=F FulRan=T
         Omega=  0.000000  0.000000  1.000000  0.000000  0.000000 ICntrl=       0 IOpCl=  0
         NMat0=    1 NMatS0=    1 NMatT0=    0 NMatD0=    1 NMtDS0=    0 NMtDT0=    0
         I1Cent=           0 NGrid=           0.
 Symmetry not used in FoFCou.
 E= -1698.72409676461    
 DIIS: error= 4.17D-02 at cycle   1 NSaved=   1.
 NSaved= 1 IEnMin= 1 EnMin= -1698.72409676461     IErMin= 1 ErrMin= 4.17D-02
 ErrMax= 4.17D-02 EMaxC= 1.00D-01 BMatC= 1.12D+00 BMatP= 1.12D+00
 IDIUse=3 WtCom= 5.83D-01 WtEn= 4.17D-01
 Coeff-Com:  0.100D+01
 Coeff-En:   0.100D+01
 Coeff:      0.100D+01
 Gap=     0.413 Goal=   None    Shift=    0.000
 GapD=    0.413 DampG=2.000 DampE=0.500 DampFc=1.0000 IDamp=-1.
 RMSDP=6.30D-03 MaxDP=1.48D-01              OVMax= 1.63D-01

 Cycle   2  Pass 0  IDiag  1:
 RMSU=  4.44D-03    CP:  9.77D-01
 E= -1699.44491658940     Delta-E=       -0.720819824788 Rises=F Damp=F
 DIIS: error= 2.17D-02 at cycle   2 NSaved=   2.
 NSaved= 2 IEnMin= 2 EnMin= -1699.44491658940     IErMin= 2 ErrMin= 2.17D-02
 ErrMax= 2.17D-02 EMaxC= 1.00D-01 BMatC= 2.34D-01 BMatP= 1.12D+00
 IDIUse=3 WtCom= 7.83D-01 WtEn= 2.17D-01
 Coeff-Com:  0.269D+00 0.731D+00
 Coeff-En:   0.000D+00 0.100D+01
 Coeff:      0.211D+00 0.789D+00
 Gap=     0.375 Goal=   None    Shift=    0.000
 RMSDP=2.73D-03 MaxDP=8.52D-02 DE=-7.21D-01 OVMax= 1.01D-01

 Cycle   3  Pass 0  IDiag  1:
 RMSU=  1.63D-03    CP:  9.74D-01  7.69D-01
 E= -1699.63283506614     Delta-E=       -0.187918476735 Rises=F Damp=F
 DIIS: error= 1.09D-02 at cycle   3 NSaved=   3.
 NSaved= 3 IEnMin= 3 EnMin= -1699.63283506614     IErMin= 3 ErrMin= 1.09D-02
 ErrMax= 1.09D-02 EMaxC= 1.00D-01 BMatC= 3.45D-02 BMatP= 2.34D-01
 IDIUse=3 WtCom= 8.91D-01 WtEn= 1.09D-01
 Coeff-Com:  0.465D-02 0.264D+00 0.732D+00
 Coeff-En:   0.000D+00 0.000D+00 0.100D+01
 Coeff:      0.414D-02 0.235D+00 0.761D+00
 Gap=     0.356 Goal=   None    Shift=    0.000
 RMSDP=8.60D-04 MaxDP=3.18D-02 DE=-1.88D-01 OVMax= 3.91D-02

 Cycle   4  Pass 0  IDiag  1:
 RMSU=  3.86D-04    CP:  9.75D-01  8.62D-01  8.62D-01
 E= -1699.66370735807     Delta-E=       -0.030872291936 Rises=F Damp=F
 DIIS: error= 3.63D-03 at cycle   4 NSaved=   4.
 NSaved= 4 IEnMin= 4 EnMin= -1699.66370735807     IErMin= 4 ErrMin= 3.63D-03
 ErrMax= 3.63D-03 EMaxC= 1.00D-01 BMatC= 3.19D-03 BMatP= 3.45D-02
 IDIUse=3 WtCom= 9.64D-01 WtEn= 3.63D-02
 Coeff-Com: -0.146D-01 0.241D-01 0.275D+00 0.715D+00
 Coeff-En:   0.000D+00 0.000D+00 0.000D+00 0.100D+01
 Coeff:     -0.141D-01 0.232D-01 0.265D+00 0.726D+00
 Gap=     0.355 Goal=   None    Shift=    0.000
 RMSDP=2.86D-04 MaxDP=8.36D-03 DE=-3.09D-02 OVMax= 1.09D-02

 Cycle   5  Pass 0  IDiag  1:
 RMSU=  1.45D-04    CP:  9.74D-01  8.55D-01  9.27D-01  7.78D-01
 E= -1699.66702724321     Delta-E=       -0.003319885142 Rises=F Damp=F
 DIIS: error= 1.08D-03 at cycle   5 NSaved=   5.
 NSaved= 5 IEnMin= 5 EnMin= -1699.66702724321     IErMin= 5 ErrMin= 1.08D-03
 ErrMax= 1.08D-03 EMaxC= 1.00D-01 BMatC= 1.75D-04 BMatP= 3.19D-03
 IDIUse=3 WtCom= 9.89D-01 WtEn= 1.08D-02
 Coeff-Com: -0.185D-02-0.185D-01-0.194D-01 0.911D-01 0.949D+00
 Coeff-En:   0.000D+00 0.000D+00 0.000D+00 0.000D+00 0.100D+01
 Coeff:     -0.183D-02-0.183D-01-0.192D-01 0.901D-01 0.949D+00
 Gap=     0.356 Goal=   None    Shift=    0.000
 RMSDP=1.16D-04 MaxDP=4.78D-03 DE=-3.32D-03 OVMax= 6.42D-03

 Cycle   6  Pass 0  IDiag  1:
 RMSU=  5.65D-05    CP:  9.74D-01  8.54D-01  9.51D-01  8.72D-01  1.19D+00
 E= -1699.66753127532     Delta-E=       -0.000504032107 Rises=F Damp=F
 DIIS: error= 4.77D-04 at cycle   6 NSaved=   6.
 NSaved= 6 IEnMin= 6 EnMin= -1699.66753127532     IErMin= 6 ErrMin= 4.77D-04
 ErrMax= 4.77D-04 EMaxC= 1.00D-01 BMatC= 4.80D-05 BMatP= 1.75D-04
 IDIUse=3 WtCom= 9.95D-01 WtEn= 4.77D-03
 Coeff-Com:  0.313D-02-0.104D-01-0.668D-01-0.172D+00 0.170D+00 0.108D+01
 Coeff-En:   0.000D+00 0.000D+00 0.000D+00 0.000D+00 0.000D+00 0.100D+01
 Coeff:      0.312D-02-0.104D-01-0.665D-01-0.171D+00 0.169D+00 0.108D+01
 Gap=     0.356 Goal=   None    Shift=    0.000
 RMSDP=7.92D-05 MaxDP=3.03D-03 DE=-5.04D-04 OVMax= 4.97D-03

 Cycle   7  Pass 0  IDiag  1:
 RMSU=  2.35D-05    CP:  9.74D-01  8.52D-01  9.64D-01  9.00D-01  1.47D+00
                    CP:  1.27D+00
 E= -1699.66771112550     Delta-E=       -0.000179850183 Rises=F Damp=F
 DIIS: error= 2.09D-04 at cycle   7 NSaved=   7.
 NSaved= 7 IEnMin= 7 EnMin= -1699.66771112550     IErMin= 7 ErrMin= 2.09D-04
 ErrMax= 2.09D-04 EMaxC= 1.00D-01 BMatC= 7.38D-06 BMatP= 4.80D-05
 IDIUse=3 WtCom= 9.98D-01 WtEn= 2.09D-03
 Coeff-Com:  0.758D-03 0.521D-03-0.662D-02-0.469D-01-0.940D-01 0.197D+00
 Coeff-Com:  0.949D+00
 Coeff-En:   0.000D+00 0.000D+00 0.000D+00 0.000D+00 0.000D+00 0.000D+00
 Coeff-En:   0.100D+01
 Coeff:      0.756D-03 0.520D-03-0.661D-02-0.468D-01-0.938D-01 0.197D+00
 Coeff:      0.949D+00
 Gap=     0.357 Goal=   None    Shift=    0.000
 RMSDP=2.75D-05 MaxDP=1.01D-03 DE=-1.80D-04 OVMax= 1.61D-03

 Cycle   8  Pass 0  IDiag  1:
 RMSU=  8.96D-06    CP:  9.74D-01  8.51D-01  9.66D-01  9.08D-01  1.54D+00
                    CP:  1.47D+00  1.21D+00
 E= -1699.66773385383     Delta-E=       -0.000022728332 Rises=F Damp=F
 DIIS: error= 6.82D-05 at cycle   8 NSaved=   8.
 NSaved= 8 IEnMin= 8 EnMin= -1699.66773385383     IErMin= 8 ErrMin= 6.82D-05
 ErrMax= 6.82D-05 EMaxC= 1.00D-01 BMatC= 1.27D-06 BMatP= 7.38D-06
 IDIUse=1 WtCom= 1.00D+00 WtEn= 0.00D+00
 Coeff-Com: -0.593D-03 0.273D-02 0.162D-01 0.289D-01-0.560D-01-0.218D+00
 Coeff-Com:  0.129D+00 0.110D+01
 Coeff:     -0.593D-03 0.273D-02 0.162D-01 0.289D-01-0.560D-01-0.218D+00
 Coeff:      0.129D+00 0.110D+01
 Gap=     0.357 Goal=   None    Shift=    0.000
 RMSDP=1.36D-05 MaxDP=4.19D-04 DE=-2.27D-05 OVMax= 9.44D-04

 Cycle   9  Pass 0  IDiag  1:
 RMSU=  3.60D-06    CP:  9.74D-01  8.51D-01  9.67D-01  9.08D-01  1.57D+00
                    CP:  1.55D+00  1.46D+00  1.23D+00
 E= -1699.66773878691     Delta-E=       -0.000004933071 Rises=F Damp=F
 DIIS: error= 3.86D-05 at cycle   9 NSaved=   9.
 NSaved= 9 IEnMin= 9 EnMin= -1699.66773878691     IErMin= 9 ErrMin= 3.86D-05
 ErrMax= 3.86D-05 EMaxC= 1.00D-01 BMatC= 1.73D-07 BMatP= 1.27D-06
 IDIUse=1 WtCom= 1.00D+00 WtEn= 0.00D+00
 Coeff-Com: -0.162D-03 0.449D-03 0.367D-02 0.808D-02-0.406D-03-0.534D-01
 Coeff-Com: -0.737D-01 0.231D+00 0.884D+00
 Coeff:     -0.162D-03 0.449D-03 0.367D-02 0.808D-02-0.406D-03-0.534D-01
 Coeff:     -0.737D-01 0.231D+00 0.884D+00
 Gap=     0.357 Goal=   None    Shift=    0.000
 RMSDP=3.27D-06 MaxDP=9.92D-05 DE=-4.93D-06 OVMax= 2.44D-04

 Initial convergence to 1.0D-05 achieved.  Increase integral accuracy.
 Cycle  10  Pass 1  IDiag  1:
 E= -1699.66774523737     Delta-E=       -0.000006450467 Rises=F Damp=F
 DIIS: error= 8.95D-05 at cycle   1 NSaved=   1.
 NSaved= 1 IEnMin= 1 EnMin= -1699.66774523737     IErMin= 1 ErrMin= 8.95D-05
 ErrMax= 8.95D-05 EMaxC= 1.00D-01 BMatC= 1.28D-06 BMatP= 1.28D-06
 IDIUse=1 WtCom= 1.00D+00 WtEn= 0.00D+00
 Coeff-Com:  0.100D+01
 Coeff:      0.100D+01
 Gap=     0.357 Goal=   None    Shift=    0.000
 RMSDP=3.27D-06 MaxDP=9.92D-05 DE=-6.45D-06 OVMax= 1.55D-04

 Cycle  11  Pass 1  IDiag  1:
 RMSU=  3.76D-05    CP:  1.00D+00
 E= -1699.66774649474     Delta-E=       -0.000001257369 Rises=F Damp=F
 DIIS: error= 1.01D-05 at cycle   2 NSaved=   2.
 NSaved= 2 IEnMin= 2 EnMin= -1699.66774649474     IErMin= 2 ErrMin= 1.01D-05
 ErrMax= 1.01D-05 EMaxC= 1.00D-01 BMatC= 1.72D-08 BMatP= 1.28D-06
 IDIUse=1 WtCom= 1.00D+00 WtEn= 0.00D+00
 Coeff-Com: -0.377D-01 0.104D+01
 Coeff:     -0.377D-01 0.104D+01
 Gap=     0.357 Goal=   None    Shift=    0.000
 RMSDP=2.95D-06 MaxDP=4.79D-05 DE=-1.26D-06 OVMax= 8.94D-05

 Cycle  12  Pass 1  IDiag  1:
 RMSU=  7.96D-07    CP:  1.00D+00  1.05D+00
 E= -1699.66774654449     Delta-E=       -0.000000049751 Rises=F Damp=F
 DIIS: error= 6.79D-06 at cycle   3 NSaved=   3.
 NSaved= 3 IEnMin= 3 EnMin= -1699.66774654449     IErMin= 3 ErrMin= 6.79D-06
 ErrMax= 6.79D-06 EMaxC= 1.00D-01 BMatC= 7.17D-09 BMatP= 1.72D-08
 IDIUse=1 WtCom= 1.00D+00 WtEn= 0.00D+00
 Coeff-Com: -0.179D-01 0.276D+00 0.742D+00
 Coeff:     -0.179D-01 0.276D+00 0.742D+00
 Gap=     0.357 Goal=   None    Shift=    0.000
 RMSDP=4.32D-07 MaxDP=1.30D-05 DE=-4.98D-08 OVMax= 4.58D-05

 Cycle  13  Pass 1  IDiag  1:
 RMSU=  2.83D-07    CP:  1.00D+00  1.05D+00  1.12D+00
 E= -1699.66774656045     Delta-E=       -0.000000015952 Rises=F Damp=F
 DIIS: error= 4.64D-06 at cycle   4 NSaved=   4.
 NSaved= 4 IEnMin= 4 EnMin= -1699.66774656045     IErMin= 4 ErrMin= 4.64D-06
 ErrMax= 4.64D-06 EMaxC= 1.00D-01 BMatC= 2.55D-09 BMatP= 7.17D-09
 IDIUse=1 WtCom= 1.00D+00 WtEn= 0.00D+00
 Coeff-Com:  0.227D-01-0.592D+00-0.129D+00 0.170D+01
 Coeff:      0.227D-01-0.592D+00-0.129D+00 0.170D+01
 Gap=     0.357 Goal=   None    Shift=    0.000
 RMSDP=7.79D-07 MaxDP=1.92D-05 DE=-1.60D-08 OVMax= 7.97D-05

 Cycle  14  Pass 1  IDiag  1:
 RMSU=  2.58D-07    CP:  1.00D+00  1.05D+00  1.64D+00  1.89D+00
 E= -1699.66774657567     Delta-E=       -0.000000015225 Rises=F Damp=F
 DIIS: error= 1.14D-06 at cycle   5 NSaved=   5.
 NSaved= 5 IEnMin= 5 EnMin= -1699.66774657567     IErMin= 5 ErrMin= 1.14D-06
 ErrMax= 1.14D-06 EMaxC= 1.00D-01 BMatC= 2.47D-10 BMatP= 2.55D-09
 IDIUse=1 WtCom= 1.00D+00 WtEn= 0.00D+00
 Coeff-Com:  0.823D-02-0.192D+00-0.120D+00 0.457D+00 0.847D+00
 Coeff:      0.823D-02-0.192D+00-0.120D+00 0.457D+00 0.847D+00
 Gap=     0.357 Goal=   None    Shift=    0.000
 RMSDP=1.67D-07 MaxDP=3.91D-06 DE=-1.52D-08 OVMax= 1.74D-05

 Cycle  15  Pass 1  IDiag  1:
 RMSU=  5.82D-08    CP:  1.00D+00  1.05D+00  1.70D+00  2.14D+00  1.19D+00
 E= -1699.66774657654     Delta-E=       -0.000000000868 Rises=F Damp=F
 DIIS: error= 4.69D-07 at cycle   6 NSaved=   6.
 NSaved= 6 IEnMin= 6 EnMin= -1699.66774657654     IErMin= 6 ErrMin= 4.69D-07
 ErrMax= 4.69D-07 EMaxC= 1.00D-01 BMatC= 4.05D-11 BMatP= 2.47D-10
 IDIUse=1 WtCom= 1.00D+00 WtEn= 0.00D+00
 Coeff-Com: -0.233D-02 0.649D-01 0.287D-02-0.214D+00 0.171D+00 0.978D+00
 Coeff:     -0.233D-02 0.649D-01 0.287D-02-0.214D+00 0.171D+00 0.978D+00
 Gap=     0.357 Goal=   None    Shift=    0.000
 RMSDP=6.47D-08 MaxDP=1.57D-06 DE=-8.68D-10 OVMax= 6.49D-06

 Cycle  16  Pass 1  IDiag  1:
 RMSU=  2.51D-08    CP:  1.00D+00  1.05D+00  1.72D+00  2.20D+00  1.31D+00
                    CP:  1.06D+00
 E= -1699.66774657667     Delta-E=       -0.000000000132 Rises=F Damp=F
 DIIS: error= 1.88D-07 at cycle   7 NSaved=   7.
 NSaved= 7 IEnMin= 7 EnMin= -1699.66774657667     IErMin= 7 ErrMin= 1.88D-07
 ErrMax= 1.88D-07 EMaxC= 1.00D-01 BMatC= 6.46D-12 BMatP= 4.05D-11
 IDIUse=1 WtCom= 1.00D+00 WtEn= 0.00D+00
 Coeff-Com: -0.104D-02 0.237D-01 0.180D-01-0.601D-01-0.125D+00-0.221D-01
 Coeff-Com:  0.117D+01
 Coeff:     -0.104D-02 0.237D-01 0.180D-01-0.601D-01-0.125D+00-0.221D-01
 Coeff:      0.117D+01
 Gap=     0.357 Goal=   None    Shift=    0.000
 RMSDP=2.71D-08 MaxDP=8.36D-07 DE=-1.32D-10 OVMax= 2.97D-06

 Cycle  17  Pass 1  IDiag  1:
 RMSU=  1.05D-08    CP:  1.00D+00  1.05D+00  1.72D+00  2.22D+00  1.33D+00
                    CP:  1.23D+00  1.38D+00
 E= -1699.66774657663     Delta-E=        0.000000000040 Rises=F Damp=F
 DIIS: error= 1.18D-07 at cycle   8 NSaved=   8.
 NSaved= 8 IEnMin= 7 EnMin= -1699.66774657667     IErMin= 8 ErrMin= 1.18D-07
 ErrMax= 1.18D-07 EMaxC= 1.00D-01 BMatC= 1.44D-12 BMatP= 6.46D-12
 IDIUse=1 WtCom= 1.00D+00 WtEn= 0.00D+00
 Coeff-Com:  0.374D-03-0.117D-01 0.535D-02 0.438D-01-0.764D-01-0.265D+00
 Coeff-Com:  0.291D+00 0.101D+01
 Coeff:      0.374D-03-0.117D-01 0.535D-02 0.438D-01-0.764D-01-0.265D+00
 Coeff:      0.291D+00 0.101D+01
 Gap=     0.357 Goal=   None    Shift=    0.000
 RMSDP=1.30D-08 MaxDP=3.88D-07 DE= 4.00D-11 OVMax= 1.24D-06

 Cycle  18  Pass 1  IDiag  1:
 RMSU=  4.76D-09    CP:  1.00D+00  1.05D+00  1.72D+00  2.22D+00  1.32D+00
                    CP:  1.26D+00  1.65D+00  1.23D+00
 E= -1699.66774657664     Delta-E=       -0.000000000012 Rises=F Damp=F
 DIIS: error= 4.75D-08 at cycle   9 NSaved=   9.
 NSaved= 9 IEnMin= 7 EnMin= -1699.66774657667     IErMin= 9 ErrMin= 4.75D-08
 ErrMax= 4.75D-08 EMaxC= 1.00D-01 BMatC= 1.79D-13 BMatP= 1.44D-12
 IDIUse=1 WtCom= 1.00D+00 WtEn= 0.00D+00
 Coeff-Com:  0.177D-03-0.483D-02-0.248D-03 0.149D-01-0.960D-02-0.645D-01
 Coeff-Com: -0.216D-01 0.244D+00 0.841D+00
 Coeff:      0.177D-03-0.483D-02-0.248D-03 0.149D-01-0.960D-02-0.645D-01
 Coeff:     -0.216D-01 0.244D+00 0.841D+00
 Gap=     0.357 Goal=   None    Shift=    0.000
 RMSDP=3.74D-09 MaxDP=9.46D-08 DE=-1.18D-11 OVMax= 3.41D-07

 SCF Done:  E(RHF) =  -1699.66774658     A.U. after   18 cycles
             Convg  =    0.3742D-08             -V/T =  2.0001
 KE= 1.699567517582D+03 PE=-9.812355210239D+03 EE= 3.501269107820D+03
 Leave Link  502 at Fri Aug 26 19:43:44 2022, MaxMem=  209715200 cpu:     591.9
 (Enter /opt/gaussian/l601.exe)
 Copying SCF densities to generalized density rwf, IOpCl= 0 IROHF=0.

 **********************************************************************

            Population analysis using the SCF density.

 **********************************************************************

 Orbital symmetries:
       Occupied  (A) (A) (A) (A) (A) (A) (A) (A) (A) (A) (A) (A)
                 (A) (A) (A) (A) (A) (A) (A) (A) (A) (A) (A) (A)
                 (A) (A) (A) (A) (A) (A) (A) (A) (A) (A) (A) (A)
                 (A) (A) (A) (A) (A) (A) (A) (A) (A) (A) (A) (A)
                 (A) (A) (A) (A) (A) (A) (A) (A) (A) (A) (A) (A)
                 (A) (A) (A) (A) (A) (A) (A) (A) (A) (A) (A) (A)
                 (A) (A) (A) (A) (A) (A) (A) (A) (A) (A) (A) (A)
                 (A) (A) (A) (A) (A) (A) (A) (A) (A) (A) (A) (A)
                 (A) (A) (A) (A) (A) (A) (A) (A) (A) (A) (A) (A)
                 (A) (A) (A)
       Virtual   (A) (A) (A) (A) (A) (A) (A) (A) (A) (A) (A) (A)
                 (A) (A) (A) (A) (A) (A) (A) (A) (A) (A) (A) (A)
                 (A) (A) (A) (A) (A) (A) (A) (A) (A) (A) (A) (A)
                 (A) (A) (A) (A) (A) (A) (A) (A) (A) (A) (A) (A)
                 (A) (A) (A) (A) (A) (A) (A) (A) (A) (A) (A) (A)
                 (A) (A) (A) (A) (A) (A) (A) (A) (A) (A) (A) (A)
                 (A) (A) (A) (A) (A) (A) (A) (A) (A) (A) (A) (A)
                 (A) (A) (A) (A) (A) (A) (A) (A) (A) (A) (A) (A)
                 (A) (A) (A) (A) (A) (A) (A) (A) (A) (A) (A) (A)
                 (A) (A) (A) (A) (A) (A) (A) (A) (A) (A) (A) (A)
                 (A) (A) (A) (A) (A) (A) (A) (A) (A) (A) (A) (A)
                 (A) (A) (A) (A) (A) (A) (A) (A) (A) (A) (A) (A)
                 (A) (A) (A) (A) (A) (A) (A) (A) (A) (A) (A) (A)
                 (A) (A) (A) (A) (A) (A) (A) (A) (A) (A) (A) (A)
                 (A) (A) (A) (A) (A) (A) (A) (A) (A) (A) (A) (A)
                 (A) (A) (A) (A) (A) (A) (A) (A) (A) (A) (A) (A)
                 (A) (A) (A) (A) (A) (A) (A) (A) (A) (A) (A) (A)
                 (A) (A)
 The electronic state is 1-A.
 Alpha  occ. eigenvalues --  -91.96728 -20.55027 -20.53332 -15.66841 -15.65424
 Alpha  occ. eigenvalues --  -15.64809 -15.62955 -15.62075 -11.39180 -11.39065
 Alpha  occ. eigenvalues --  -11.33993 -11.31726 -11.30270 -11.30255 -11.29666
 Alpha  occ. eigenvalues --  -11.29437 -11.27777 -11.27770 -11.27207 -11.26791
 Alpha  occ. eigenvalues --  -11.26629 -11.26493 -11.26255 -11.26017 -11.25886
 Alpha  occ. eigenvalues --  -11.25828 -11.25740 -11.25191 -11.25188 -11.24706
 Alpha  occ. eigenvalues --  -11.24682  -8.99146  -6.67304  -6.67133  -6.66844
 Alpha  occ. eigenvalues --   -1.46173  -1.40696  -1.40073  -1.29255  -1.28974
 Alpha  occ. eigenvalues --   -1.24067  -1.19547  -1.17838  -1.16607  -1.13204
 Alpha  occ. eigenvalues --   -1.06705  -1.04702  -1.04282  -1.03636  -1.02017
 Alpha  occ. eigenvalues --   -1.01323  -0.99401  -0.97325  -0.91354  -0.89056
 Alpha  occ. eigenvalues --   -0.88150  -0.85611  -0.84526  -0.84253  -0.83082
 Alpha  occ. eigenvalues --   -0.78965  -0.76976  -0.76520  -0.74491  -0.72406
 Alpha  occ. eigenvalues --   -0.72108  -0.71491  -0.70797  -0.70168  -0.69448
 Alpha  occ. eigenvalues --   -0.68608  -0.66197  -0.65057  -0.64060  -0.62866
 Alpha  occ. eigenvalues --   -0.62571  -0.62074  -0.61798  -0.61538  -0.61150
 Alpha  occ. eigenvalues --   -0.59816  -0.59583  -0.58336  -0.57259  -0.56896
 Alpha  occ. eigenvalues --   -0.56293  -0.55209  -0.53998  -0.53514  -0.53006
 Alpha  occ. eigenvalues --   -0.52417  -0.52248  -0.52001  -0.50711  -0.50264
 Alpha  occ. eigenvalues --   -0.49301  -0.49033  -0.47239  -0.45167  -0.44884
 Alpha  occ. eigenvalues --   -0.43663  -0.42853  -0.42033  -0.41216  -0.36457
 Alpha  occ. eigenvalues --   -0.35524  -0.33482  -0.33387  -0.31940  -0.30397
 Alpha  occ. eigenvalues --   -0.29830
 Alpha virt. eigenvalues --    0.05839   0.09752   0.11201   0.12514   0.13914
 Alpha virt. eigenvalues --    0.14839   0.15399   0.16204   0.19540   0.19742
 Alpha virt. eigenvalues --    0.21798   0.22317   0.22895   0.24326   0.24529
[...]
    25  C    4.744440   0.150785   0.620568  -0.019112  -0.077166  -0.011249
    26  N    0.150785   7.908730  -0.049100   0.022005  -0.026661  -0.164707
    27  C    0.620568  -0.049100   5.052820  -0.013780   0.401985  -0.050348
    28  C   -0.019112   0.022005  -0.013780   4.441778  -0.035958   0.218460
    29  C   -0.077166  -0.026661   0.401985  -0.035958   5.030557   0.509496
    30  C   -0.011249  -0.164707  -0.050348   0.218460   0.509496   5.565859
    31  O    0.001879  -0.146799  -0.000228   0.631545   0.002960  -0.128148
    32  H    0.000000   0.000000   0.000000   0.000000   0.000000   0.000000
    33  H    0.000000   0.000000   0.000000   0.000000   0.000000   0.000000
    34  H    0.000000   0.000000   0.000000   0.000000   0.000000  -0.000006
    35  H   -0.000002  -0.000025   0.000016   0.000453  -0.000075  -0.002687
    36  H   -0.000005  -0.000001  -0.000035   0.000203   0.000763   0.001904
    37  H    0.000000   0.000000   0.000000  -0.000004   0.000001  -0.000111
    38  H    0.000000   0.000000   0.000000   0.000000   0.000005  -0.000156
    39  H    0.000000   0.000000   0.000000   0.000000   0.000000  -0.000001
    40  H    0.000000   0.000000   0.000000   0.000000   0.000000   0.000000
    41  H    0.000000   0.000000   0.000000   0.000000   0.000000   0.000000
    42  H    0.000000   0.000000   0.000000   0.000000   0.000000   0.000000
    43  H    0.000000   0.000000   0.000000   0.000000   0.000000   0.000000
    44  H    0.000000   0.000000   0.000000   0.000000   0.000000   0.000000
    45  H    0.383444  -0.042635  -0.013968   0.001199   0.003044  -0.000252
    46  H   -0.018769   0.319541   0.002569  -0.011622  -0.000995   0.006744
    47  H   -0.021039   0.003101   0.375741   0.000233  -0.017068   0.001530
    48  H    0.002750   0.000012  -0.020049   0.001312   0.374476  -0.026903
             31         32         33         34         35         36
     1  S    0.000000  -0.017247  -0.011036   0.002310   0.000000   0.000000
     2  C    0.000000   0.381840   0.000985  -0.023757   0.000000   0.000000
     3  C    0.000000   0.003372   0.373126   0.006878   0.000000   0.000000
     4  C    0.000000  -0.010483   0.001933   0.374195  -0.000004  -0.000004
     5  C    0.000000  -0.000684  -0.012548  -0.028161   0.000004   0.000004
     6  N    0.000000  -0.000087  -0.003259  -0.003633  -0.000109  -0.000131
     7  C    0.007493   0.000000   0.000000   0.000168  -0.020169  -0.030789
     8  C   -0.010810   0.000000   0.000000   0.000426   0.361128   0.002192
     9  C    0.000261   0.000000   0.000000   0.000294   0.002547   0.369067
    10  C   -0.000226  -0.000001  -0.000001  -0.000375  -0.014412   0.000425
    11  C   -0.000015  -0.000001   0.000000  -0.001110   0.000321  -0.014912
    12  C    0.000010   0.000002  -0.000035  -0.000069   0.001180   0.001204
    13  C    0.000000   0.000001  -0.000695   0.000037   0.000000   0.000000
    14  C    0.000000   0.000000   0.000156   0.000011  -0.000003  -0.000004
    15  O    0.000000   0.000000   0.012386   0.000002   0.000000   0.000000
    16  C    0.000000   0.000000   0.000001   0.000000   0.000000   0.000000
    17  N    0.000000   0.000000  -0.000010   0.000000   0.000000   0.000000
    18  C    0.000000   0.000000   0.000000   0.000000   0.000000   0.000000
    19  N    0.000000   0.000000   0.000000   0.000000   0.000000   0.000000
    20  N    0.000000   0.000000   0.000000   0.000000   0.000000   0.000000
    21  C    0.000000   0.000000   0.000001   0.000000   0.000000   0.000000
    22  C    0.000000   0.000000   0.000000   0.000000   0.000000   0.000000
    23  C    0.000000   0.000000   0.000000   0.000000   0.000000   0.000000
    24  C    0.000000   0.000000   0.000000   0.000000   0.000000   0.000000
    25  C    0.001879   0.000000   0.000000   0.000000  -0.000002  -0.000005
    26  N   -0.146799   0.000000   0.000000   0.000000  -0.000025  -0.000001
    27  C   -0.000228   0.000000   0.000000   0.000000   0.000016  -0.000035
    28  C    0.631545   0.000000   0.000000   0.000000   0.000453   0.000203
    29  C    0.002960   0.000000   0.000000   0.000000  -0.000075   0.000763
    30  C   -0.128148   0.000000   0.000000  -0.000006  -0.002687   0.001904
    31  O    8.249994   0.000000   0.000000   0.000000   0.008915  -0.000001
    32  H    0.000000   0.413784  -0.000007   0.001067   0.000000   0.000000
    33  H    0.000000  -0.000007   0.341957  -0.000044   0.000000   0.000000
    34  H    0.000000   0.001067  -0.000044   0.436929   0.000004   0.000002
    35  H    0.008915   0.000000   0.000000   0.000004   0.399632  -0.000106
    36  H   -0.000001   0.000000   0.000000   0.000002  -0.000106   0.451928
    37  H   -0.000006   0.000000   0.000001  -0.000002   0.000320   0.000009
    38  H    0.000000   0.000000   0.000001  -0.000007   0.000006   0.000187
    39  H    0.000000   0.000000  -0.000003   0.000000  -0.000002   0.000000
    40  H    0.000000   0.000000  -0.000004   0.000000   0.000000   0.000002
    41  H    0.000000   0.000000   0.000001   0.000000   0.000000   0.000000
    42  H    0.000000   0.000000   0.000000   0.000000   0.000000   0.000000
    43  H    0.000000   0.000000   0.000000   0.000000   0.000000   0.000000
    44  H    0.000000   0.000000   0.000000   0.000000   0.000000   0.000000
    45  H   -0.000044   0.000000   0.000000   0.000000   0.000000   0.000000
    46  H    0.004881   0.000000   0.000000   0.000000   0.000010   0.000000
    47  H    0.000000   0.000000   0.000000   0.000000   0.000000   0.000000
    48  H   -0.000032   0.000000   0.000000   0.000000   0.000000   0.000945
             37         38         39         40         41         42
     1  S    0.000000   0.000000   0.000000   0.000000   0.000000   0.000000
     2  C    0.000002   0.000002   0.000000   0.000000   0.000000   0.000000
     3  C   -0.000012  -0.000012  -0.000004  -0.000003   0.000000   0.000000
     4  C    0.000053   0.000048   0.000001   0.000002   0.000000   0.000000
     5  C    0.000555   0.000688  -0.000013  -0.000117   0.000000   0.000000
     6  N   -0.002117  -0.001949   0.002924   0.003946  -0.000013   0.000000
     7  C    0.001666   0.001695  -0.000001  -0.000024   0.000000   0.000000
     8  C   -0.014556   0.000088   0.000342  -0.000027   0.000000   0.000000
     9  C    0.000120  -0.016143  -0.000076   0.000205   0.000000   0.000000
    10  C    0.373348   0.002346   0.002243  -0.000445   0.000000   0.000000
    11  C    0.002440   0.372445  -0.000615   0.002084   0.000002   0.000000
    12  C   -0.028827  -0.027721   0.000437   0.000478  -0.000002   0.000000
    13  C    0.000430   0.000375  -0.035371  -0.054306   0.000184   0.000000
    14  C   -0.000082  -0.000065   0.389693   0.404747   0.000218   0.000001
    15  O   -0.000027  -0.000031   0.001464   0.001277   0.000735  -0.000001
    16  C    0.000000   0.000000   0.003483   0.000924  -0.030788   0.002768
    17  N   -0.000005   0.000000  -0.037087  -0.047343  -0.002918  -0.000101
    18  C    0.000000   0.000000  -0.000162   0.000118   0.000829   0.000474
    19  N    0.000002   0.000000   0.008358   0.001348   0.000001   0.000001
    20  N    0.000000   0.000000   0.000000  -0.000138  -0.000106  -0.000004
    21  C    0.000000   0.000000   0.000035  -0.000252   0.371920  -0.022884
    22  C    0.000000   0.000000   0.000001  -0.000021  -0.016112   0.373855
    23  C    0.000000   0.000000  -0.000003  -0.000006   0.000191   0.002344
    24  C    0.000000   0.000000   0.000000  -0.000001   0.001980  -0.024532
    25  C    0.000000   0.000000   0.000000   0.000000   0.000000   0.000000
    26  N    0.000000   0.000000   0.000000   0.000000   0.000000   0.000000
    27  C    0.000000   0.000000   0.000000   0.000000   0.000000   0.000000
    28  C   -0.000004   0.000000   0.000000   0.000000   0.000000   0.000000
    29  C    0.000001   0.000005   0.000000   0.000000   0.000000   0.000000
    30  C   -0.000111  -0.000156  -0.000001   0.000000   0.000000   0.000000
    31  O   -0.000006   0.000000   0.000000   0.000000   0.000000   0.000000
    32  H    0.000000   0.000000   0.000000   0.000000   0.000000   0.000000
    33  H    0.000001   0.000001  -0.000003  -0.000004   0.000001   0.000000
    34  H   -0.000002  -0.000007   0.000000   0.000000   0.000000   0.000000
    35  H    0.000320   0.000006  -0.000002   0.000000   0.000000   0.000000
    36  H    0.000009   0.000187   0.000000   0.000002   0.000000   0.000000
    37  H    0.425158  -0.000108   0.000054  -0.000009   0.000000   0.000000
    38  H   -0.000108   0.438362  -0.000010   0.000060   0.000005   0.000000
    39  H    0.000054  -0.000010   0.415104  -0.016376   0.000013   0.000000
    40  H   -0.000009   0.000060  -0.016376   0.475439   0.000244   0.000000
    41  H    0.000000   0.000005   0.000013   0.000244   0.451951  -0.000140
    42  H    0.000000   0.000000   0.000000   0.000000  -0.000140   0.465431
    43  H    0.000000   0.000000   0.000000   0.000000   0.000009  -0.000089
    44  H    0.000000   0.000000   0.000000   0.000000  -0.000100  -0.000270
    45  H    0.000000   0.000000   0.000000   0.000000   0.000000   0.000000
    46  H    0.000000   0.000000   0.000000   0.000000   0.000000   0.000000
    47  H    0.000000   0.000000   0.000000   0.000000   0.000000   0.000000
    48  H    0.000000   0.000001   0.000000   0.000000   0.000000   0.000000
             43         44         45         46         47         48
     1  S    0.000000   0.000000   0.000000   0.000000   0.000000   0.000000
     2  C    0.000000   0.000000   0.000000   0.000000   0.000000   0.000000
     3  C    0.000000   0.000000   0.000000   0.000000   0.000000   0.000000
     4  C    0.000000   0.000000   0.000000   0.000000   0.000000   0.000000
     5  C    0.000000   0.000000   0.000000   0.000000   0.000000   0.000000
     6  N    0.000000   0.000000   0.000000   0.000000   0.000000   0.000000
     7  C    0.000000   0.000000   0.000000  -0.000036  -0.000126   0.001006
     8  C    0.000000   0.000000   0.000000   0.000006   0.000001   0.000151
     9  C    0.000000   0.000000   0.000000   0.000001   0.000004   0.001994
    10  C    0.000000   0.000000   0.000000   0.000000   0.000000  -0.000014
    11  C    0.000000   0.000000   0.000000   0.000000   0.000000   0.000031
    12  C    0.000000   0.000000   0.000000   0.000000   0.000000  -0.000005
    13  C    0.000000   0.000000   0.000000   0.000000   0.000000   0.000000
    14  C    0.000001   0.000000   0.000000   0.000000   0.000000   0.000000
    15  O    0.000000   0.000000   0.000000   0.000000   0.000000   0.000000
    16  C    0.003159   0.000377   0.000000   0.000000   0.000000   0.000000
    17  N   -0.000109  -0.000006   0.000000   0.000000   0.000000   0.000000
    18  C   -0.020205   0.002803   0.000000   0.000000   0.000000   0.000000
    19  N   -0.000082   0.000002   0.000000   0.000000   0.000000   0.000000
    20  N    0.001135  -0.000066   0.000000   0.000000   0.000000   0.000000
    21  C    0.000027   0.002591   0.000000   0.000000   0.000000   0.000000
    22  C    0.002058  -0.026417   0.000000   0.000000   0.000000   0.000000
    23  C    0.361755  -0.020135   0.000000   0.000000   0.000000   0.000000
    24  C   -0.020824   0.374865   0.000000   0.000000   0.000000   0.000000
    25  C    0.000000   0.000000   0.383444  -0.018769  -0.021039   0.002750
    26  N    0.000000   0.000000  -0.042635   0.319541   0.003101   0.000012
    27  C    0.000000   0.000000  -0.013968   0.002569   0.375741  -0.020049
    28  C    0.000000   0.000000   0.001199  -0.011622   0.000233   0.001312
    29  C    0.000000   0.000000   0.003044  -0.000995  -0.017068   0.374476
    30  C    0.000000   0.000000  -0.000252   0.006744   0.001530  -0.026903
    31  O    0.000000   0.000000  -0.000044   0.004881   0.000000  -0.000032
    32  H    0.000000   0.000000   0.000000   0.000000   0.000000   0.000000
    33  H    0.000000   0.000000   0.000000   0.000000   0.000000   0.000000
    34  H    0.000000   0.000000   0.000000   0.000000   0.000000   0.000000
    35  H    0.000000   0.000000   0.000000   0.000010   0.000000   0.000000
    36  H    0.000000   0.000000   0.000000   0.000000   0.000000   0.000945
    37  H    0.000000   0.000000   0.000000   0.000000   0.000000   0.000000
    38  H    0.000000   0.000000   0.000000   0.000000   0.000000   0.000001
    39  H    0.000000   0.000000   0.000000   0.000000   0.000000   0.000000
    40  H    0.000000   0.000000   0.000000   0.000000   0.000000   0.000000
    41  H    0.000009  -0.000100   0.000000   0.000000   0.000000   0.000000
    42  H   -0.000089  -0.000270   0.000000   0.000000   0.000000   0.000000
    43  H    0.433717  -0.000107   0.000000   0.000000   0.000000   0.000000
    44  H   -0.000107   0.463918   0.000000   0.000000   0.000000   0.000000
    45  H    0.000000   0.000000   0.423322  -0.001896   0.000192  -0.000084
    46  H    0.000000   0.000000  -0.001896   0.289286  -0.000067   0.000005
    47  H    0.000000   0.000000   0.000192  -0.000067   0.431301  -0.000356
    48  H    0.000000   0.000000  -0.000084   0.000005  -0.000356   0.433846
 Mulliken atomic charges:
              1
     1  S    0.473703
     2  C   -0.564071
     3  C   -0.572768
     4  C   -0.098077
     5  C    0.443616
     6  N   -1.077827
     7  C    0.005974
     8  C   -0.162190
     9  C   -0.208038
    10  C   -0.178773
    11  C   -0.169136
    12  C    0.209018
    13  C    0.802554
    14  C   -0.122567
    15  O   -0.584791
    16  C    0.489140
    17  N   -0.883608
    18  C   -0.020387
    19  N    0.098133
    20  N   -0.336226
    21  C   -0.063289
    22  C   -0.206865
    23  C   -0.079411
    24  C   -0.233850
    25  C    0.243640
    26  N   -0.979390
    27  C   -0.311404
    28  C    0.795718
    29  C   -0.118406
    30  C   -0.157382
    31  O   -0.621629
    32  H    0.228444
    33  H    0.297094
    34  H    0.234841
    35  H    0.263059
    36  H    0.217153
    37  H    0.241709
    38  H    0.229887
    39  H    0.265571
    40  H    0.228200
    41  H    0.221897
    42  H    0.203148
    43  H    0.239555
    44  H    0.202546
    45  H    0.247679
    46  H    0.410341
    47  H    0.226554
    48  H    0.230912
 Sum of Mulliken atomic charges =   0.00000
 Mulliken charges with hydrogens summed into heavy atoms:
              1
     1  S    0.473703
     2  C   -0.335626
     3  C   -0.275674
     4  C    0.136765
     5  C    0.443616
     6  N   -1.077827
     7  C    0.005974
     8  C    0.100869
     9  C    0.009115
    10  C    0.062936
    11  C    0.060751
    12  C    0.209018
    13  C    0.802554
    14  C    0.371203
    15  O   -0.584791
    16  C    0.489140
    17  N   -0.883608
    18  C   -0.020387
    19  N    0.098133
    20  N   -0.336226
    21  C    0.158608
    22  C   -0.003717
    23  C    0.160143
    24  C   -0.031304
    25  C    0.491318
    26  N   -0.569048
    27  C   -0.084850
    28  C    0.795718
    29  C    0.112506
    30  C   -0.157382
    31  O   -0.621629
 Sum of Mulliken charges with hydrogens summed into heavy atoms =   0.00000
 Electronic spatial extent (au):  <R**2>=          18048.9444
 Charge=              0.0000 electrons
 Dipole moment (field-independent basis, Debye):
    X=             10.5953    Y=             -0.0428    Z=              7.2220  Tot=             12.8226
 Quadrupole moment (field-independent basis, Debye-Ang):
   XX=           -133.2283   YY=           -200.3075   ZZ=           -190.8908
   XY=             -2.6305   XZ=             -4.2432   YZ=            -12.4972
 Traceless Quadrupole moment (field-independent basis, Debye-Ang):
   XX=             41.5806   YY=            -25.4986   ZZ=            -16.0819
   XY=             -2.6305   XZ=             -4.2432   YZ=            -12.4972
 Octapole moment (field-independent basis, Debye-Ang**2):
  XXX=            446.4721  YYY=            -10.5102  ZZZ=             36.1257  XYY=             94.3212
  XXY=           -180.4097  XXZ=            131.2111  XZZ=             22.5480  YZZ=             20.6802
  YYZ=             25.6291  XYZ=             23.6684
 Hexadecapole moment (field-independent basis, Debye-Ang**3):
 XXXX=         -12224.8281 YYYY=          -7269.4687 ZZZZ=          -1276.9643 XXXY=           -940.4713
 XXXZ=            -14.4782 YYYX=             -6.6752 YYYZ=            -20.8530 ZZZX=           -101.4807
 ZZZY=            -56.6250 XXYY=          -3493.4871 XXZZ=          -2947.4935 YYZZ=          -1585.5097
 XXYZ=           -130.0298 YYXZ=            -70.3775 ZZXY=            -27.0441
 N-N= 2.913012018836D+03 E-N=-9.815427191652D+03  KE= 1.701028233712D+03
 No NMR shielding tensors so no spin-rotation constants.
 Leave Link  601 at Fri Aug 26 20:15:49 2022, MaxMem=  209715200 cpu:       1.3
 (Enter /opt/gaussian/l9999.exe)
 1\1\GINC-LQCAPF-6\FOpt\RHF\6-31G\C23H17N5O2S1\LQCAPF-6\26-Aug-2022\0\\
 #p opt hf/6-31G\\Mol17.out\\0,1\S,13.7342441743,-8.0551093925,-1.61185
 30081\C,14.8808103123,-6.6978288885,-1.4861617169\C,15.0694656151,-9.2
 000216297,-1.2849142681\C,16.1258628201,-7.1174250548,-1.2251604863\C,
 16.2444272792,-8.5613128105,-1.106143459\N,17.5084108778,-9.1632915744
 ,-0.8278310753\C,20.7974663611,-6.5715988982,-0.1660333866\C,20.521889
 7408,-7.062094048,-1.4445113459\C,19.973879434,-6.9706263182,0.8868452
 569\C,19.4455849597,-7.9065502193,-1.6600907104\C,18.8971341718,-7.816
 5852618,0.6723307265\C,18.6323906821,-8.2896112211,-0.6029400336\C,17.
 6662621956,-10.5255257948,-0.7650405874\C,19.0666026271,-11.0418627883
 ,-0.4539541255\O,16.7426080564,-11.3098449293,-0.9195245539\C,18.68352
 08972,-13.4547025727,0.2566054727\N,19.1476871289,-12.4671919801,-0.55
 99730193\C,19.054412174,-14.6302956036,-0.3838384996\N,19.7509061672,-
 13.02434925,-1.648769048\N,19.707487771,-14.2880458185,-1.5570884154\C
 ,17.9988957976,-13.469499029,1.4746915179\C,17.7205636576,-14.70507514
 5,2.0079224624\C,18.7650485172,-15.880343456,0.1619148787\C,18.0989791
 135,-15.9037438126,1.3624397055\C,24.0360999538,-3.8785302359,0.592933
 75\N,24.1764901952,-4.9237472721,-0.2735250018\C,22.8593358528,-3.6718
 24828,1.2084031537\C,23.1895661063,-5.829802125,-0.5992775108\C,21.787
 3878678,-4.5760380154,0.9310356501\C,21.9148766636,-5.6266728211,0.081
 4921732\O,23.435413852,-6.7220144492,-1.4173591299\H,14.5456090228,-5.
 6944709905,-1.6187905219\H,14.8773119969,-10.2423421944,-1.2609286032\
 H,16.9503241733,-6.4476229121,-1.1197073318\H,21.1583214199,-6.7990522
 911,-2.2615811797\H,20.184408614,-6.6379645283,1.8844264986\H,19.23323
 68155,-8.2677386526,-2.647707355\H,18.2650804742,-8.1086590831,1.48873
 56172\H,19.7878152652,-10.6340077279,-1.1432829937\H,19.3567216845,-10
 .7297667103,0.5410858571\H,17.6849221517,-12.5681860417,1.960842985\H,
 17.1921951215,-14.7661014723,2.9396538214\H,19.0565358762,-16.77666370
 59,-0.3473266911\H,17.8528765201,-16.840815318,1.8214769964\H,24.89754
 02188,-3.2604295822,0.7342550999\H,25.0450928383,-5.0779594977,-0.7342
 171468\H,22.7246397529,-2.8544361123,1.8840544429\H,20.8430570309,-4.4
 02417936,1.409385139\\Version=EM64L-G09RevC.01\State=1-A\HF=-1699.7171
 241\RMSD=9.635e-09\RMSF=8.141e-06\Dipole=1.51159,3.9136161,2.8015408\Q
 uadrupole=-7.8629394,16.4335077,-8.5705683,23.8532426,5.03603,-5.66693
 19\PG=C01 [X(C23H17N5O2S1)]\\@


 SATCHEL PAIGE'S GUIDE TO LONGEVITY

    1.  AVOID FRIED MEATS, WHICH ANGRY UP THE BLOOD.

    2.  IF YOUR STOMACH DISPUTES YOU, LIE DOWN AND PACIFY IT WITH COOL
        THOUGHTS.

    3.  KEEP THE JUICES FLOWING BY JANGLING AROUND GENTLY AS YOU MOVE.

    4.  GO VERY LIGHT ON THE VICES, SUCH AS CARRYING ON IN SOCIETY.
        THE SOCIAL RUMBLE AIN'T RESTFUL.

    5.  AVOID RUNNING AT ALL TIMES.

    6.  DON'T LOOK BACK.  SOMETHING MAY BE GAINING ON YOU.
 Job cpu time:  0 days  4 hours 24 minutes 49.3 seconds.
 File lengths (MBytes):  RWF=     69 Int=      0 D2E=      0 Chk=     10 Scr=      1
 Normal termination of Gaussian 09 at Fri Aug 26 20:15:49 2022.
