 Entering Gaussian System, Link 0=g09
 Input=Mol16.gjf
 Output=Mol16.log
 Initial command:
 /opt/gaussian/l1.exe /home/scr/lqcapf-6/Gau-245984.inp -scrdir=/home/scr/lqcapf-6/
 Entering Link 1 = /opt/gaussian/l1.exe PID=    245986.
  
 Copyright (c) 1988,1990,1992,1993,1995,1998,2003,2009,2011,
            Gaussian, Inc.  All Rights Reserved.
  
 This is part of the Gaussian(R) 09 program.  It is based on
 the Gaussian(R) 03 system (copyright 2003, Gaussian, Inc.),
 the Gaussian(R) 98 system (copyright 1998, Gaussian, Inc.),
 the Gaussian(R) 94 system (copyright 1995, Gaussian, Inc.),
 the Gaussian 92(TM) system (copyright 1992, Gaussian, Inc.),
 the Gaussian 90(TM) system (copyright 1990, Gaussian, Inc.),
 the Gaussian 88(TM) system (copyright 1988, Gaussian, Inc.),
 the Gaussian 86(TM) system (copyright 1986, Carnegie Mellon
 University), and the Gaussian 82(TM) system (copyright 1983,
 Carnegie Mellon University). Gaussian is a federally registered
 trademark of Gaussian, Inc.
  
 This software contains proprietary and confidential information,
 including trade secrets, belonging to Gaussian, Inc.
  
 This software is provided under written license and may be
 used, copied, transmitted, or stored only in accord with that
 written license.
  
 The following legend is applicable only to US Government
 contracts under FAR:
  
                    RESTRICTED RIGHTS LEGEND
  
 Use, reproduction and disclosure by the US Government is
 subject to restrictions as set forth in subparagraphs (a)
 and (c) of the Commercial Computer Software - Restricted
 Rights clause in FAR 52.227-19.
  
 Gaussian, Inc.
 340 Quinnipiac St., Bldg. 40, Wallingford CT 06492
  
  
 ---------------------------------------------------------------
 Warning -- This program may not be used in any manner that
 competes with the business of Gaussian, Inc. or will provide
 assistance to any competitor of Gaussian, Inc.  The licensee
 of this program is prohibited from giving any competitor of
 Gaussian, Inc. access to this program.  By using this program,
 the user acknowledges that Gaussian, Inc. is engaged in the
 business of creating and licensing software in the field of
 computational chemistry and represents and warrants to the
 licensee that it is not a competitor of Gaussian, Inc. and that
 it will not use this program in any manner prohibited above.
 ---------------------------------------------------------------
  

 Cite this work as:
 Gaussian 09, Revision C.01,
 M. J. Frisch, G. W. Trucks, H. B. Schlegel, G. E. Scuseria, 
 M. A. Robb, J. R. Cheeseman, G. Scalmani, V. Barone, B. Mennucci, 
 G. A. Petersson, H. Nakatsuji, M. Caricato, X. Li, H. P. Hratchian, 
 A. F. Izmaylov, J. Bloino, G. Zheng, J. L. Sonnenberg, M. Hada, 
 M. Ehara, K. Toyota, R. Fukuda, J. Hasegawa, M. Ishida, T. Nakajima, 
 Y. Honda, O. Kitao, H. Nakai, T. Vreven, J. A. Montgomery, Jr., 
 J. E. Peralta, F. Ogliaro, M. Bearpark, J. J. Heyd, E. Brothers, 
 K. N. Kudin, V. N. Staroverov, T. Keith, R. Kobayashi, J. Normand, 
 K. Raghavachari, A. Rendell, J. C. Burant, S. S. Iyengar, J. Tomasi, 
 M. Cossi, N. Rega, J. M. Millam, M. Klene, J. E. Knox, J. B. Cross, 
 V. Bakken, C. Adamo, J. Jaramillo, R. Gomperts, R. E. Stratmann, 
 O. Yazyev, A. J. Austin, R. Cammi, C. Pomelli, J. W. Ochterski, 
 R. L. Martin, K. Morokuma, V. G. Zakrzewski, G. A. Voth, 
 P. Salvador, J. J. Dannenberg, S. Dapprich, A. D. Daniels, 
 O. Farkas, J. B. Foresman, J. V. Ortiz, J. Cioslowski, 
 and D. J. Fox, Gaussian, Inc., Wallingford CT, 2010.
 
 ******************************************
 Gaussian 09:  EM64L-G09RevC.01 23-Sep-2011
                26-Aug-2022 
 ******************************************
 %nprocshared=8
 Will use up to    8 processors via shared memory.
 %mem=1600MB
 ---------------
 #p opt hf/6-31G
 ---------------
 1/18=20,19=15,38=1/1,3;
 2/9=110,12=2,17=6,18=5,40=1/2;
 3/5=1,6=6,11=9,16=1,25=1,30=1,71=1/1,2,3;
 4//1;
 5/5=2,38=5/2;
 6/7=2,8=2,9=2,10=2,28=1/1;
 7//1,2,3,16;
 1/18=20,19=15/3(2);
 2/9=110/2;
 99//99;
 2/9=110/2;
 3/5=1,6=6,11=9,16=1,25=1,30=1,71=1/1,2,3;
 4/5=5,16=3/1;
 5/5=2,38=5/2;
 7//1,2,3,16;
 1/18=20,19=15/3(-5);
 2/9=110/2;
 6/7=2,8=2,9=2,10=2,19=2,28=1/1;
 99/9=1/99;
 Leave Link    1 at Fri Aug 26 19:11:46 2022, MaxMem=  209715200 cpu:       0.1
 (Enter /opt/gaussian/l101.exe)
 ---------
 Mol16.out
 ---------
 Charge =  0 Multiplicity = 1
 Symbolic Z-Matrix:
 C                     15.6213  -11.3554   1.9065 
 O                     16.002   -10.823    0.637 
 C                     15.0089  -10.2837  -0.1558 
 N                     13.7042  -10.4027   0.2038 
 C                     12.788   -9.8699   -0.6233 
 C                     13.1085  -9.2101   -1.8199 
 C                     14.4531  -9.0897   -2.1718 
 C                     15.4494  -9.6222   -1.3435 
 C                     16.8564  -9.4774   -1.693 
 C                     17.3316  -8.2608   -2.2031 
 C                     18.6694  -8.0962   -2.5414 
 C                     19.5838  -9.1585   -2.3715 
 C                     19.1021  -10.3847  -1.863 
 C                     17.7602  -10.5354  -1.5345 
 N                     20.9519  -9.0061   -2.7236 
 C                     21.6422  -10.1536  -3.2692 
 C                     22.5193  -10.9206  -2.3396 
 C                     23.6748  -11.6256  -2.8196 
 C                     24.3006  -12.3163  -1.8067 
 S                     23.5182  -12.1091  -0.3457 
 C                     22.3414  -11.1163  -0.9845 
 C                     21.646   -7.8291   -2.4227 
 O                     21.081   -6.8522   -1.9056 
 C                     23.1389  -7.7917   -2.7988 
 N                     23.8452  -6.6103   -2.3773 
 N                     23.6842  -5.3804   -2.973 
 N                     24.1074  -4.4429   -2.2554 
 C                     24.555   -4.9697   -0.9992 
 C                     25.1081  -4.3873    0.1402 
 C                     25.4383  -5.231     1.1963 
 C                     25.2369  -6.619     1.1258 
 C                     24.6962  -7.2313   -0.0007 
 C                     24.3489  -6.4017   -1.067 
 H                     14.9439  -12.233    1.7784 
 H                     16.6015  -11.6686   2.3485 
 H                     15.1347  -10.5716   2.5342 
 H                     11.7385  -9.9841   -0.2958 
 H                     12.317   -8.7991   -2.4585 
 H                     14.7403  -8.5775   -3.1032 
 H                     16.6392  -7.4136   -2.328 
 H                     19.015   -7.1196   -2.9183 
 H                     19.7858  -11.2356  -1.7132 
 H                     17.4052  -11.4947  -1.125 
 H                     20.8681  -10.8684  -3.6829 
 H                     22.268   -9.8047   -4.1447 
 H                     23.996   -11.6041  -3.8631 
 H                     25.194   -12.9293  -1.9182 
 H                     21.539   -10.6859  -0.3834 
 H                     23.6585  -8.6781   -2.3311 
 H                     23.215   -7.8615   -3.9234 
 H                     25.2736  -3.302     0.1961 
 H                     25.8678  -4.8012    2.1141 
 H                     25.5135  -7.2417    1.9912 
 H                     24.5453  -8.3177   -0.0445 
 
 NAtoms=     54 NQM=        0 NQMF=       0 NMMI=     54 NMMIF=      0
                NMic=       0 NMicF=      0.
                    Isotopes and Nuclear Properties:
 (Nuclear quadrupole moments (NQMom) in fm**2, nuclear magnetic moments (NMagM)
  in nuclear magnetons)

  Atom         1           2           3           4           5           6           7           8           9          10
 IAtWgt=          12          16          12          14          12          12          12          12          12          12
 AtmWgt=  12.0000000  15.9949146  12.0000000  14.0030740  12.0000000  12.0000000  12.0000000  12.0000000  12.0000000  12.0000000
 NucSpn=           0           0           0           2           0           0           0           0           0           0
 AtZEff=   0.0000000   0.0000000   0.0000000   0.0000000   0.0000000   0.0000000   0.0000000   0.0000000   0.0000000   0.0000000
 NQMom=    0.0000000   0.0000000   0.0000000   2.0440000   0.0000000   0.0000000   0.0000000   0.0000000   0.0000000   0.0000000
 NMagM=    0.0000000   0.0000000   0.0000000   0.4037610   0.0000000   0.0000000   0.0000000   0.0000000   0.0000000   0.0000000

  Atom        11          12          13          14          15          16          17          18          19          20
 IAtWgt=          12          12          12          12          14          12          12          12          12          32
 AtmWgt=  12.0000000  12.0000000  12.0000000  12.0000000  14.0030740  12.0000000  12.0000000  12.0000000  12.0000000  31.9720718
 NucSpn=           0           0           0           0           2           0           0           0           0           0
 AtZEff=   0.0000000   0.0000000   0.0000000   0.0000000   0.0000000   0.0000000   0.0000000   0.0000000   0.0000000   0.0000000
 NQMom=    0.0000000   0.0000000   0.0000000   0.0000000   2.0440000   0.0000000   0.0000000   0.0000000   0.0000000   0.0000000
 NMagM=    0.0000000   0.0000000   0.0000000   0.0000000   0.4037610   0.0000000   0.0000000   0.0000000   0.0000000   0.0000000

  Atom        21          22          23          24          25          26          27          28          29          30
 IAtWgt=          12          12          16          12          14          14          14          12          12          12
 AtmWgt=  12.0000000  12.0000000  15.9949146  12.0000000  14.0030740  14.0030740  14.0030740  12.0000000  12.0000000  12.0000000
 NucSpn=           0           0           0           0           2           2           2           0           0           0
 AtZEff=   0.0000000   0.0000000   0.0000000   0.0000000   0.0000000   0.0000000   0.0000000   0.0000000   0.0000000   0.0000000
 NQMom=    0.0000000   0.0000000   0.0000000   0.0000000   2.0440000   2.0440000   2.0440000   0.0000000   0.0000000   0.0000000
 NMagM=    0.0000000   0.0000000   0.0000000   0.0000000   0.4037610   0.4037610   0.4037610   0.0000000   0.0000000   0.0000000

  Atom        31          32          33          34          35          36          37          38          39          40
 IAtWgt=          12          12          12           1           1           1           1           1           1           1
 AtmWgt=  12.0000000  12.0000000  12.0000000   1.0078250   1.0078250   1.0078250   1.0078250   1.0078250   1.0078250   1.0078250
 NucSpn=           0           0           0           1           1           1           1           1           1           1
 AtZEff=   0.0000000   0.0000000   0.0000000   0.0000000   0.0000000   0.0000000   0.0000000   0.0000000   0.0000000   0.0000000
 NQMom=    0.0000000   0.0000000   0.0000000   0.0000000   0.0000000   0.0000000   0.0000000   0.0000000   0.0000000   0.0000000
 NMagM=    0.0000000   0.0000000   0.0000000   2.7928460   2.7928460   2.7928460   2.7928460   2.7928460   2.7928460   2.7928460

  Atom        41          42          43          44          45          46          47          48          49          50
 IAtWgt=           1           1           1           1           1           1           1           1           1           1
 AtmWgt=   1.0078250   1.0078250   1.0078250   1.0078250   1.0078250   1.0078250   1.0078250   1.0078250   1.0078250   1.0078250
 NucSpn=           1           1           1           1           1           1           1           1           1           1
 AtZEff=   0.0000000   0.0000000   0.0000000   0.0000000   0.0000000   0.0000000   0.0000000   0.0000000   0.0000000   0.0000000
 NQMom=    0.0000000   0.0000000   0.0000000   0.0000000   0.0000000   0.0000000   0.0000000   0.0000000   0.0000000   0.0000000
 NMagM=    2.7928460   2.7928460   2.7928460   2.7928460   2.7928460   2.7928460   2.7928460   2.7928460   2.7928460   2.7928460

  Atom        51          52          53          54
 IAtWgt=           1           1           1           1
 AtmWgt=   1.0078250   1.0078250   1.0078250   1.0078250
 NucSpn=           1           1           1           1
 AtZEff=   0.0000000   0.0000000   0.0000000   0.0000000
 NQMom=    0.0000000   0.0000000   0.0000000   0.0000000
 NMagM=    2.7928460   2.7928460   2.7928460   2.7928460
 Leave Link  101 at Fri Aug 26 19:11:46 2022, MaxMem=  209715200 cpu:       0.8
 (Enter /opt/gaussian/l103.exe)

 GradGradGradGradGradGradGradGradGradGradGradGradGradGradGradGradGradGrad
 Berny optimization.
 Initialization pass.
                           ----------------------------
                           !    Initial Parameters    !
                           ! (Angstroms and Degrees)  !
 --------------------------                            --------------------------
 ! Name  Definition              Value          Derivative Info.                !
 --------------------------------------------------------------------------------
 ! R1    R(1,2)                  1.4283         estimate D2E/DX2                !
 ! R2    R(1,34)                 1.116          estimate D2E/DX2                !
 ! R3    R(1,35)                 1.1199         estimate D2E/DX2                !
 ! R4    R(1,36)                 1.1159         estimate D2E/DX2                !
 ! R5    R(2,3)                  1.3804         estimate D2E/DX2                !
 ! R6    R(3,4)                  1.3586         estimate D2E/DX2                !
 ! R7    R(3,8)                  1.4291         estimate D2E/DX2                !
 ! R8    R(4,5)                  1.3444         estimate D2E/DX2                !
 ! R9    R(5,6)                  1.4035         estimate D2E/DX2                !
 ! R10   R(5,37)                 1.1053         estimate D2E/DX2                !
 ! R11   R(6,7)                  1.3951         estimate D2E/DX2                !
 ! R12   R(6,38)                 1.0969         estimate D2E/DX2                !
 ! R13   R(7,8)                  1.4008         estimate D2E/DX2                !
 ! R14   R(7,39)                 1.1011         estimate D2E/DX2                !
 ! R15   R(8,9)                  1.457          estimate D2E/DX2                !
 ! R16   R(9,10)                 1.4022         estimate D2E/DX2                !
 ! R17   R(9,14)                 1.4005         estimate D2E/DX2                !
 ! R18   R(10,11)                1.3897         estimate D2E/DX2                !
 ! R19   R(10,40)                1.1013         estimate D2E/DX2                !
 ! R20   R(11,12)                1.4119         estimate D2E/DX2                !
 ! R21   R(11,41)                1.1024         estimate D2E/DX2                !
 ! R22   R(12,13)                1.4122         estimate D2E/DX2                !
 ! R23   R(12,15)                1.4209         estimate D2E/DX2                !
 ! R24   R(13,14)                1.3897         estimate D2E/DX2                !
 ! R25   R(13,42)                1.1018         estimate D2E/DX2                !
 ! R26   R(14,43)                1.1018         estimate D2E/DX2                !
 ! R27   R(15,16)                1.446          estimate D2E/DX2                !
 ! R28   R(15,22)                1.3992         estimate D2E/DX2                !
 ! R29   R(16,17)                1.4906         estimate D2E/DX2                !
 ! R30   R(16,44)                1.132          estimate D2E/DX2                !
 ! R31   R(16,45)                1.1313         estimate D2E/DX2                !
 ! R32   R(17,18)                1.4362         estimate D2E/DX2                !
 ! R33   R(17,21)                1.3807         estimate D2E/DX2                !
 ! R34   R(18,19)                1.3765         estimate D2E/DX2                !
 ! R35   R(18,46)                1.092          estimate D2E/DX2                !
 ! R36   R(19,20)                1.6702         estimate D2E/DX2                !
 ! R37   R(19,47)                1.0892         estimate D2E/DX2                !
 ! R38   R(20,21)                1.6669         estimate D2E/DX2                !
 ! R39   R(21,48)                1.0911         estimate D2E/DX2                !
 ! R40   R(22,23)                1.2414         estimate D2E/DX2                !
 ! R41   R(22,24)                1.54           estimate D2E/DX2                !
 ! R42   R(24,25)                1.4395         estimate D2E/DX2                !
 ! R43   R(24,49)                1.1289         estimate D2E/DX2                !
 ! R44   R(24,50)                1.1293         estimate D2E/DX2                !
 ! R45   R(25,26)                1.376          estimate D2E/DX2                !
 ! R46   R(25,33)                1.4192         estimate D2E/DX2                !
 ! R47   R(26,27)                1.2542         estimate D2E/DX2                !
 ! R48   R(27,28)                1.4338         estimate D2E/DX2                !
 ! R49   R(28,29)                1.394          estimate D2E/DX2                !
 ! R50   R(28,33)                1.4483         estimate D2E/DX2                !
 ! R51   R(29,30)                1.3915         estimate D2E/DX2                !
 ! R52   R(29,51)                1.0993         estimate D2E/DX2                !
 ! R53   R(30,31)                1.4043         estimate D2E/DX2                !
 ! R54   R(30,52)                1.1007         estimate D2E/DX2                !
 ! R55   R(31,32)                1.3915         estimate D2E/DX2                !
 ! R56   R(31,53)                1.1014         estimate D2E/DX2                !
 ! R57   R(32,33)                1.3949         estimate D2E/DX2                !
 ! R58   R(32,54)                1.0977         estimate D2E/DX2                !
 ! A1    A(2,1,34)             110.6642         estimate D2E/DX2                !
 ! A2    A(2,1,35)             102.8117         estimate D2E/DX2                !
 ! A3    A(2,1,36)             110.7563         estimate D2E/DX2                !
 ! A4    A(34,1,35)            110.8939         estimate D2E/DX2                !
 ! A5    A(34,1,36)            110.6247         estimate D2E/DX2                !
 ! A6    A(35,1,36)            110.8607         estimate D2E/DX2                !
 ! A7    A(1,2,3)              117.667          estimate D2E/DX2                !
 ! A8    A(2,3,4)              120.3079         estimate D2E/DX2                !
 ! A9    A(2,3,8)              115.8739         estimate D2E/DX2                !
 ! A10   A(4,3,8)              123.8173         estimate D2E/DX2                !
 ! A11   A(3,4,5)              117.1884         estimate D2E/DX2                !
 ! A12   A(4,5,6)              123.7245         estimate D2E/DX2                !
 ! A13   A(4,5,37)             115.0776         estimate D2E/DX2                !
 ! A14   A(6,5,37)             121.1979         estimate D2E/DX2                !
 ! A15   A(5,6,7)              118.4056         estimate D2E/DX2                !
 ! A16   A(5,6,38)             120.5118         estimate D2E/DX2                !
 ! A17   A(7,6,38)             121.0825         estimate D2E/DX2                !
 ! A18   A(6,7,8)              120.2342         estimate D2E/DX2                !
 ! A19   A(6,7,39)             120.326          estimate D2E/DX2                !
 ! A20   A(8,7,39)             119.4397         estimate D2E/DX2                !
 ! A21   A(3,8,7)              116.6257         estimate D2E/DX2                !
 ! A22   A(3,8,9)              122.8907         estimate D2E/DX2                !
 ! A23   A(7,8,9)              120.4787         estimate D2E/DX2                !
 ! A24   A(8,9,10)             120.051          estimate D2E/DX2                !
 ! A25   A(8,9,14)             121.3985         estimate D2E/DX2                !
 ! A26   A(10,9,14)            118.5503         estimate D2E/DX2                !
 ! A27   A(9,10,11)            121.1693         estimate D2E/DX2                !
 ! A28   A(9,10,40)            119.7134         estimate D2E/DX2                !
 ! A29   A(11,10,40)           119.1128         estimate D2E/DX2                !
 ! A30   A(10,11,12)           120.3342         estimate D2E/DX2                !
 ! A31   A(10,11,41)           119.3377         estimate D2E/DX2                !
 ! A32   A(12,11,41)           120.308          estimate D2E/DX2                !
 ! A33   A(11,12,13)           118.4068         estimate D2E/DX2                !
 ! A34   A(11,12,15)           120.8679         estimate D2E/DX2                !
 ! A35   A(13,12,15)           120.7175         estimate D2E/DX2                !
 ! A36   A(12,13,14)           120.574          estimate D2E/DX2                !
 ! A37   A(12,13,42)           120.5231         estimate D2E/DX2                !
 ! A38   A(14,13,42)           118.9014         estimate D2E/DX2                !
 ! A39   A(9,14,13)            120.9621         estimate D2E/DX2                !
 ! A40   A(9,14,43)            119.4642         estimate D2E/DX2                !
 ! A41   A(13,14,43)           119.563          estimate D2E/DX2                !
 ! A42   A(12,15,16)           117.9067         estimate D2E/DX2                !
 ! A43   A(12,15,22)           120.9702         estimate D2E/DX2                !
 ! A44   A(16,15,22)           120.7893         estimate D2E/DX2                !
 ! A45   A(15,16,17)           116.9968         estimate D2E/DX2                !
 ! A46   A(15,16,44)           108.2129         estimate D2E/DX2                !
 ! A47   A(15,16,45)           108.1394         estimate D2E/DX2                !
 ! A48   A(17,16,44)           107.7824         estimate D2E/DX2                !
 ! A49   A(17,16,45)           108.4111         estimate D2E/DX2                !
 ! A50   A(44,16,45)           106.8702         estimate D2E/DX2                !
 ! A51   A(16,17,18)           121.1711         estimate D2E/DX2                !
 ! A52   A(16,17,21)           127.5337         estimate D2E/DX2                !
 ! A53   A(18,17,21)           111.2305         estimate D2E/DX2                !
 ! A54   A(17,18,19)           111.4796         estimate D2E/DX2                !
 ! A55   A(17,18,46)           123.1171         estimate D2E/DX2                !
 ! A56   A(19,18,46)           125.403          estimate D2E/DX2                !
 ! A57   A(18,19,20)           111.6213         estimate D2E/DX2                !
 ! A58   A(18,19,47)           125.4498         estimate D2E/DX2                !
 ! A59   A(20,19,47)           122.9288         estimate D2E/DX2                !
 ! A60   A(19,20,21)            93.9782         estimate D2E/DX2                !
 ! A61   A(17,21,20)           111.69           estimate D2E/DX2                !
 ! A62   A(17,21,48)           125.4207         estimate D2E/DX2                !
 ! A63   A(20,21,48)           122.8893         estimate D2E/DX2                !
 ! A64   A(15,22,23)           121.7224         estimate D2E/DX2                !
 ! A65   A(15,22,24)           116.668          estimate D2E/DX2                !
 ! A66   A(23,22,24)           121.5909         estimate D2E/DX2                !
 ! A67   A(22,24,25)           115.0914         estimate D2E/DX2                !
 ! A68   A(22,24,49)           109.0227         estimate D2E/DX2                !
 ! A69   A(22,24,50)           107.8798         estimate D2E/DX2                !
 ! A70   A(25,24,49)           107.2927         estimate D2E/DX2                !
 ! A71   A(25,24,50)           108.0134         estimate D2E/DX2                !
 ! A72   A(49,24,50)           109.4518         estimate D2E/DX2                !
 ! A73   A(24,25,26)           123.3239         estimate D2E/DX2                !
 ! A74   A(24,25,33)           124.4098         estimate D2E/DX2                !
 ! A75   A(26,25,33)           108.0501         estimate D2E/DX2                !
 ! A76   A(25,26,27)           112.3922         estimate D2E/DX2                !
 ! A77   A(26,27,28)           109.3891         estimate D2E/DX2                !
 ! A78   A(27,28,29)           133.3488         estimate D2E/DX2                !
 ! A79   A(27,28,33)           106.1304         estimate D2E/DX2                !
 ! A80   A(29,28,33)           120.5164         estimate D2E/DX2                !
 ! A81   A(28,29,30)           117.4632         estimate D2E/DX2                !
 ! A82   A(28,29,51)           120.9151         estimate D2E/DX2                !
 ! A83   A(30,29,51)           121.6216         estimate D2E/DX2                !
 ! A84   A(29,30,31)           121.8136         estimate D2E/DX2                !
 ! A85   A(29,30,52)           119.2548         estimate D2E/DX2                !
 ! A86   A(31,30,52)           118.9315         estimate D2E/DX2                !
 ! A87   A(30,31,32)           122.0926         estimate D2E/DX2                !
 ! A88   A(30,31,53)           118.9028         estimate D2E/DX2                !
 ! A89   A(32,31,53)           119.0044         estimate D2E/DX2                !
 ! A90   A(31,32,33)           116.993          estimate D2E/DX2                !
 ! A91   A(31,32,54)           121.4139         estimate D2E/DX2                !
 ! A92   A(33,32,54)           121.5923         estimate D2E/DX2                !
 ! A93   A(25,33,28)           103.8306         estimate D2E/DX2                !
 ! A94   A(25,33,32)           134.9674         estimate D2E/DX2                !
 ! A95   A(28,33,32)           121.1178         estimate D2E/DX2                !
 ! D1    D(34,1,2,3)            64.31           estimate D2E/DX2                !
 ! D2    D(35,1,2,3)          -177.2225         estimate D2E/DX2                !
 ! D3    D(36,1,2,3)           -58.751          estimate D2E/DX2                !
 ! D4    D(1,2,3,4)             -7.4211         estimate D2E/DX2                !
 ! D5    D(1,2,3,8)            172.9014         estimate D2E/DX2                !
 ! D6    D(2,3,4,5)           -179.1248         estimate D2E/DX2                !
 ! D7    D(8,3,4,5)              0.5259         estimate D2E/DX2                !
 ! D8    D(2,3,8,7)            178.9039         estimate D2E/DX2                !
 ! D9    D(2,3,8,9)             -1.9019         estimate D2E/DX2                !
 ! D10   D(4,3,8,7)             -0.761          estimate D2E/DX2                !
 ! D11   D(4,3,8,9)            178.4333         estimate D2E/DX2                !
 ! D12   D(3,4,5,6)              0.0915         estimate D2E/DX2                !
 ! D13   D(3,4,5,37)          -179.8336         estimate D2E/DX2                !
 ! D14   D(4,5,6,7)             -0.4334         estimate D2E/DX2                !
 ! D15   D(4,5,6,38)           179.682          estimate D2E/DX2                !
 ! D16   D(37,5,6,7)           179.4872         estimate D2E/DX2                !
 ! D17   D(37,5,6,38)           -0.3973         estimate D2E/DX2                !
 ! D18   D(5,6,7,8)              0.1661         estimate D2E/DX2                !
 ! D19   D(5,6,7,39)          -179.9554         estimate D2E/DX2                !
 ! D20   D(38,6,7,8)          -179.95           estimate D2E/DX2                !
 ! D21   D(38,6,7,39)           -0.0715         estimate D2E/DX2                !
 ! D22   D(6,7,8,3)              0.3827         estimate D2E/DX2                !
 ! D23   D(6,7,8,9)           -178.8323         estimate D2E/DX2                !
 ! D24   D(39,7,8,3)          -179.4969         estimate D2E/DX2                !
 ! D25   D(39,7,8,9)             1.2881         estimate D2E/DX2                !
 ! D26   D(3,8,9,10)          -137.5713         estimate D2E/DX2                !
 ! D27   D(3,8,9,14)            42.5825         estimate D2E/DX2                !
 ! D28   D(7,8,9,10)            41.5928         estimate D2E/DX2                !
 ! D29   D(7,8,9,14)          -138.2533         estimate D2E/DX2                !
 ! D30   D(8,9,10,11)          179.8635         estimate D2E/DX2                !
 ! D31   D(8,9,10,40)            0.6392         estimate D2E/DX2                !
 ! D32   D(14,9,10,11)          -0.286          estimate D2E/DX2                !
 ! D33   D(14,9,10,40)        -179.5103         estimate D2E/DX2                !
 ! D34   D(8,9,14,13)         -179.5967         estimate D2E/DX2                !
 ! D35   D(8,9,14,43)           -0.7922         estimate D2E/DX2                !
 ! D36   D(10,9,14,13)           0.5549         estimate D2E/DX2                !
 ! D37   D(10,9,14,43)         179.3594         estimate D2E/DX2                !
 ! D38   D(9,10,11,12)          -0.244          estimate D2E/DX2                !
 ! D39   D(9,10,11,41)        -178.6153         estimate D2E/DX2                !
 ! D40   D(40,10,11,12)        178.9848         estimate D2E/DX2                !
 ! D41   D(40,10,11,41)          0.6135         estimate D2E/DX2                !
 ! D42   D(10,11,12,13)          0.5032         estimate D2E/DX2                !
 ! D43   D(10,11,12,15)        179.4953         estimate D2E/DX2                !
 ! D44   D(41,11,12,13)        178.8586         estimate D2E/DX2                !
 ! D45   D(41,11,12,15)         -2.1493         estimate D2E/DX2                !
 ! D46   D(11,12,13,14)         -0.2379         estimate D2E/DX2                !
 ! D47   D(11,12,13,42)       -179.786          estimate D2E/DX2                !
 ! D48   D(15,12,13,14)       -179.2315         estimate D2E/DX2                !
 ! D49   D(15,12,13,42)          1.2203         estimate D2E/DX2                !
 ! D50   D(11,12,15,16)       -144.9141         estimate D2E/DX2                !
 ! D51   D(11,12,15,22)         41.6687         estimate D2E/DX2                !
 ! D52   D(13,12,15,16)         34.0546         estimate D2E/DX2                !
 ! D53   D(13,12,15,22)       -139.3626         estimate D2E/DX2                !
 ! D54   D(12,13,14,9)          -0.2943         estimate D2E/DX2                !
 ! D55   D(12,13,14,43)       -179.0976         estimate D2E/DX2                !
 ! D56   D(42,13,14,9)         179.2611         estimate D2E/DX2                !
 ! D57   D(42,13,14,43)          0.4577         estimate D2E/DX2                !
 ! D58   D(12,15,16,17)       -100.5658         estimate D2E/DX2                !
 ! D59   D(12,15,16,44)         21.3355         estimate D2E/DX2                !
 ! D60   D(12,15,16,45)        136.7575         estimate D2E/DX2                !
 ! D61   D(22,15,16,17)         72.8639         estimate D2E/DX2                !
 ! D62   D(22,15,16,44)       -165.2349         estimate D2E/DX2                !
 ! D63   D(22,15,16,45)        -49.8129         estimate D2E/DX2                !
 ! D64   D(12,15,22,23)         -3.9183         estimate D2E/DX2                !
 ! D65   D(12,15,22,24)        177.6355         estimate D2E/DX2                !
 ! D66   D(16,15,22,23)       -177.1457         estimate D2E/DX2                !
 ! D67   D(16,15,22,24)          4.4081         estimate D2E/DX2                !
 ! D68   D(15,16,17,18)       -150.6887         estimate D2E/DX2                !
 ! D69   D(15,16,17,21)         32.5026         estimate D2E/DX2                !
 ! D70   D(44,16,17,18)         87.1863         estimate D2E/DX2                !
 ! D71   D(44,16,17,21)        -89.6224         estimate D2E/DX2                !
 ! D72   D(45,16,17,18)        -28.1522         estimate D2E/DX2                !
 ! D73   D(45,16,17,21)        155.0391         estimate D2E/DX2                !
 ! D74   D(16,17,18,19)       -177.0482         estimate D2E/DX2                !
 ! D75   D(16,17,18,46)          2.7828         estimate D2E/DX2                !
 ! D76   D(21,17,18,19)          0.2373         estimate D2E/DX2                !
 ! D77   D(21,17,18,46)       -179.9317         estimate D2E/DX2                !
 ! D78   D(16,17,21,20)        176.8627         estimate D2E/DX2                !
 ! D79   D(16,17,21,48)         -3.1575         estimate D2E/DX2                !
 ! D80   D(18,17,21,20)         -0.2082         estimate D2E/DX2                !
 ! D81   D(18,17,21,48)        179.7717         estimate D2E/DX2                !
 ! D82   D(17,18,19,20)         -0.1625         estimate D2E/DX2                !
 ! D83   D(17,18,19,47)        179.7464         estimate D2E/DX2                !
 ! D84   D(46,18,19,20)       -179.9888         estimate D2E/DX2                !
 ! D85   D(46,18,19,47)         -0.0799         estimate D2E/DX2                !
 ! D86   D(18,19,20,21)          0.0384         estimate D2E/DX2                !
 ! D87   D(47,19,20,21)       -179.8731         estimate D2E/DX2                !
 ! D88   D(19,20,21,17)          0.1015         estimate D2E/DX2                !
 ! D89   D(19,20,21,48)       -179.8789         estimate D2E/DX2                !
 ! D90   D(15,22,24,25)       -175.1738         estimate D2E/DX2                !
 ! D91   D(15,22,24,49)        -54.6013         estimate D2E/DX2                !
 ! D92   D(15,22,24,50)         64.1723         estimate D2E/DX2                !
 ! D93   D(23,22,24,25)          6.3778         estimate D2E/DX2                !
 ! D94   D(23,22,24,49)        126.9503         estimate D2E/DX2                !
 ! D95   D(23,22,24,50)       -114.2761         estimate D2E/DX2                !
 ! D96   D(22,24,25,26)        -73.1808         estimate D2E/DX2                !
 ! D97   D(22,24,25,33)         80.9528         estimate D2E/DX2                !
 ! D98   D(49,24,25,26)        165.304          estimate D2E/DX2                !
 ! D99   D(49,24,25,33)        -40.5623         estimate D2E/DX2                !
 ! D100  D(50,24,25,26)         47.3999         estimate D2E/DX2                !
 ! D101  D(50,24,25,33)       -158.4664         estimate D2E/DX2                !
 ! D102  D(24,25,26,27)        162.6152         estimate D2E/DX2                !
 ! D103  D(33,25,26,27)          4.8599         estimate D2E/DX2                !
 ! D104  D(24,25,33,28)       -161.5371         estimate D2E/DX2                !
 ! D105  D(24,25,33,32)         21.9313         estimate D2E/DX2                !
 ! D106  D(26,25,33,28)         -4.0822         estimate D2E/DX2                !
 ! D107  D(26,25,33,32)        179.3863         estimate D2E/DX2                !
 ! D108  D(25,26,27,28)         -3.3602         estimate D2E/DX2                !
 ! D109  D(26,27,28,29)        179.8076         estimate D2E/DX2                !
 ! D110  D(26,27,28,33)          0.589          estimate D2E/DX2                !
 ! D111  D(27,28,29,30)       -179.5954         estimate D2E/DX2                !
 ! D112  D(27,28,29,51)          0.4603         estimate D2E/DX2                !
 ! D113  D(33,28,29,30)         -0.4668         estimate D2E/DX2                !
 ! D114  D(33,28,29,51)        179.5889         estimate D2E/DX2                !
 ! D115  D(27,28,33,25)          2.2037         estimate D2E/DX2                !
 ! D116  D(27,28,33,32)        179.3378         estimate D2E/DX2                !
 ! D117  D(29,28,33,25)       -177.1367         estimate D2E/DX2                !
 ! D118  D(29,28,33,32)         -0.0026         estimate D2E/DX2                !
 ! D119  D(28,29,30,31)          0.4892         estimate D2E/DX2                !
 ! D120  D(28,29,30,52)       -179.4076         estimate D2E/DX2                !
 ! D121  D(51,29,30,31)       -179.5669         estimate D2E/DX2                !
 ! D122  D(51,29,30,52)          0.5364         estimate D2E/DX2                !
 ! D123  D(29,30,31,32)         -0.0311         estimate D2E/DX2                !
 ! D124  D(29,30,31,53)       -179.8635         estimate D2E/DX2                !
 ! D125  D(52,30,31,32)        179.866          estimate D2E/DX2                !
 ! D126  D(52,30,31,53)          0.0336         estimate D2E/DX2                !
 ! D127  D(30,31,32,33)         -0.4421         estimate D2E/DX2                !
 ! D128  D(30,31,32,54)        179.8852         estimate D2E/DX2                !
 ! D129  D(53,31,32,33)        179.3901         estimate D2E/DX2                !
 ! D130  D(53,31,32,54)         -0.2826         estimate D2E/DX2                !
 ! D131  D(31,32,33,25)        176.5187         estimate D2E/DX2                !
 ! D132  D(31,32,33,28)          0.4534         estimate D2E/DX2                !
 ! D133  D(54,32,33,25)         -3.8092         estimate D2E/DX2                !
 ! D134  D(54,32,33,28)       -179.8746         estimate D2E/DX2                !
 --------------------------------------------------------------------------------
 Trust Radius=3.00D-01 FncErr=1.00D-07 GrdErr=1.00D-07
 Number of steps in this run=    297 maximum allowed number of steps=    324.
 GradGradGradGradGradGradGradGradGradGradGradGradGradGradGradGradGradGrad

 Leave Link  103 at Fri Aug 26 19:11:47 2022, MaxMem=  209715200 cpu:       0.1
 (Enter /opt/gaussian/l202.exe)
 Stoichiometry    C25H21N5O2S
 Framework group  C1[X(C25H21N5O2S)]
 Deg. of freedom   156
 Full point group                 C1      NOp   1
 Largest Abelian subgroup         C1      NOp   1
 Largest concise Abelian subgroup C1      NOp   1
                         Standard orientation:                         
 ---------------------------------------------------------------------
 Center     Atomic      Atomic             Coordinates (Angstroms)
 Number     Number       Type             X           Y           Z
 ---------------------------------------------------------------------
      1          6           0        5.445284    0.985765    2.973453
      2          8           0        4.877610    0.567569    1.731330
      3          6           0        5.635513   -0.258764    0.926109
      4          7           0        6.928476   -0.528342    1.244372
      5          6           0        7.613726   -1.326140    0.406910
      6          6           0        7.068134   -1.882502   -0.760437
      7          6           0        5.736973   -1.602191   -1.069816
      8          6           0        4.975273   -0.780718   -0.228837
      9          6           0        3.577405   -0.504992   -0.533315
     10          6           0        2.743084   -1.533393   -0.994222
     11          6           0        1.405727   -1.297028   -1.288934
     12          6           0        0.856281   -0.006990   -1.123441
     13          6           0        1.699605    1.028596   -0.664597
     14          6           0        3.036376    0.777559   -0.379395
     15          7           0       -0.506841    0.249809   -1.431420
     16          6           0       -0.842973    1.540636   -1.989748
     17          6           0       -1.417419    2.552140   -1.057749
     18          6           0       -2.326811    3.561040   -1.524367
     19          6           0       -2.681285    4.426217   -0.514181
     20         16           0       -1.943973    4.022323    0.929025
     21          6           0       -1.140454    2.711312    0.285455
     22          6           0       -1.508868   -0.660056   -1.076833
     23          8           0       -1.242434   -1.751204   -0.548287
     24          6           0       -2.957621   -0.256691   -1.408510
     25          7           0       -3.968241   -1.164828   -0.932944
     26          7           0       -4.202769   -2.397668   -1.497335
     27          7           0       -4.859959   -3.152105   -0.741107
     28          6           0       -5.084519   -2.491962    0.511765
     29          6           0       -5.744539   -2.860799    1.682949
     30          6           0       -5.769887   -1.937167    2.723368
     31          6           0       -5.166616   -0.674382    2.607108
     32          6           0       -4.509046   -0.273068    1.448308
     33          6           0       -4.463553   -1.188550    0.396799
     34          1           0        6.348383    1.618228    2.800634
     35          1           0        4.619624    1.585887    3.434311
     36          1           0        5.698485    0.104378    3.609200
     37          1           0        8.660672   -1.524636    0.700594
     38          1           0        7.677549   -2.523259   -1.409473
     39          1           0        5.276717   -2.022664   -1.977397
     40          1           0        3.146511   -2.551004   -1.114554
     41          1           0        0.771373   -2.132654   -1.627406
     42          1           0        1.306479    2.047609   -0.519744
     43          1           0        3.675718    1.594486   -0.008122
     44          1           0        0.093525    1.983470   -2.446024
     45          1           0       -1.575515    1.378218   -2.836424
     46          1           0       -2.677289    3.616790   -2.557121
     47          1           0       -3.354782    5.275976   -0.617508
     48          1           0       -0.481649    2.072226    0.875333
     49          1           0       -3.172155    0.753161   -0.951774
     50          1           0       -3.050023   -0.188613   -2.531993
     51          1           0       -6.223870   -3.845779    1.774860
     52          1           0       -6.274530   -2.201534    3.665175
     53          1           0       -5.213596    0.018767    3.461811
     54          1           0       -4.042876    0.717553    1.368877
 ---------------------------------------------------------------------
 Rotational constants (GHZ):      0.1814061      0.0582102      0.0517163
 Leave Link  202 at Fri Aug 26 19:11:47 2022, MaxMem=  209715200 cpu:       0.0
 (Enter /opt/gaussian/l301.exe)
 Standard basis: 6-31G (6D, 7F)
 Ernie: Thresh=  0.10000D-02 Tol=  0.10000D-05 Strict=F.
 There are   343 symmetry adapted basis functions of A   symmetry.
 Integral buffers will be    131072 words long.
 Raffenetti 1 integral format.
 Two-electron integral symmetry is turned on.
   343 basis functions,   834 primitive gaussians,   343 cartesian basis functions
   119 alpha electrons      119 beta electrons
       nuclear repulsion energy      3250.7911898179 Hartrees.



 Warning!  S  atom   20 may be hypervalent but has no d functions.



 IExCor=    0 DFT=F Ex=HF Corr=None ExCW=0 ScaHFX=  1.000000
 ScaDFX=  1.000000  1.000000  1.000000  1.000000 ScalE2=  1.000000  1.000000
 IRadAn=      0 IRanWt=     -1 IRanGd=            0 ICorTp=0
 NAtoms=   54 NActive=   54 NUniq=   54 SFac= 1.00D+00 NAtFMM=   60 NAOKFM=F Big=F
 Leave Link  301 at Fri Aug 26 19:11:47 2022, MaxMem=  209715200 cpu:       0.2
 (Enter /opt/gaussian/l302.exe)
 NPDir=0 NMtPBC=     1 NCelOv=     1 NCel=       1 NClECP=     1 NCelD=      1
         NCelK=      1 NCelE2=     1 NClLst=     1 CellRange=     0.0.
 One-electron integrals computed using PRISM.
 NBasis=   343 RedAO= T  NBF=   343
 NBsUse=   343 1.00D-06 NBFU=   343
 Leave Link  302 at Fri Aug 26 19:11:47 2022, MaxMem=  209715200 cpu:       2.1
 (Enter /opt/gaussian/l303.exe)
 DipDrv:  MaxL=1.
 Leave Link  303 at Fri Aug 26 19:11:47 2022, MaxMem=  209715200 cpu:       0.4
 (Enter /opt/gaussian/l401.exe)
 Harris functional with IExCor=  205 diagonalized for initial guess.
 ExpMin= 1.17D-01 ExpMax= 2.19D+04 ExpMxC= 3.30D+03 IAcc=1 IRadAn=         1 AccDes= 0.00D+00
 HarFok:  IExCor=  205 AccDes= 0.00D+00 IRadAn=         1 IDoV= 1
 ScaDFX=  1.000000  1.000000  1.000000  1.000000
 FoFCou: FMM=F IPFlag=           0 FMFlag=      100000 FMFlg1=           0
         NFxFlg=           0 DoJE=T BraDBF=F KetDBF=T FulRan=T
         Omega=  0.000000  0.000000  1.000000  0.000000  0.000000 ICntrl=     500 IOpCl=  0
         NMat0=    1 NMatS0=    1 NMatT0=    0 NMatD0=    1 NMtDS0=    0 NMtDT0=    0
         I1Cent=           4 NGrid=           0.
 Petite list used in FoFCou.
 Harris En= -1778.94432943968    
 Initial guess orbital symmetries:
       Occupied  (A) (A) (A) (A) (A) (A) (A) (A) (A) (A) (A) (A)
                 (A) (A) (A) (A) (A) (A) (A) (A) (A) (A) (A) (A)
                 (A) (A) (A) (A) (A) (A) (A) (A) (A) (A) (A) (A)
                 (A) (A) (A) (A) (A) (A) (A) (A) (A) (A) (A) (A)
                 (A) (A) (A) (A) (A) (A) (A) (A) (A) (A) (A) (A)
                 (A) (A) (A) (A) (A) (A) (A) (A) (A) (A) (A) (A)
                 (A) (A) (A) (A) (A) (A) (A) (A) (A) (A) (A) (A)
                 (A) (A) (A) (A) (A) (A) (A) (A) (A) (A) (A) (A)
                 (A) (A) (A) (A) (A) (A) (A) (A) (A) (A) (A) (A)
                 (A) (A) (A) (A) (A) (A) (A) (A) (A) (A) (A)
       Virtual   (A) (A) (A) (A) (A) (A) (A) (A) (A) (A) (A) (A)
                 (A) (A) (A) (A) (A) (A) (A) (A) (A) (A) (A) (A)
                 (A) (A) (A) (A) (A) (A) (A) (A) (A) (A) (A) (A)
                 (A) (A) (A) (A) (A) (A) (A) (A) (A) (A) (A) (A)
                 (A) (A) (A) (A) (A) (A) (A) (A) (A) (A) (A) (A)
                 (A) (A) (A) (A) (A) (A) (A) (A) (A) (A) (A) (A)
                 (A) (A) (A) (A) (A) (A) (A) (A) (A) (A) (A) (A)
                 (A) (A) (A) (A) (A) (A) (A) (A) (A) (A) (A) (A)
                 (A) (A) (A) (A) (A) (A) (A) (A) (A) (A) (A) (A)
                 (A) (A) (A) (A) (A) (A) (A) (A) (A) (A) (A) (A)
                 (A) (A) (A) (A) (A) (A) (A) (A) (A) (A) (A) (A)
                 (A) (A) (A) (A) (A) (A) (A) (A) (A) (A) (A) (A)
                 (A) (A) (A) (A) (A) (A) (A) (A) (A) (A) (A) (A)
                 (A) (A) (A) (A) (A) (A) (A) (A) (A) (A) (A) (A)
                 (A) (A) (A) (A) (A) (A) (A) (A) (A) (A) (A) (A)
                 (A) (A) (A) (A) (A) (A) (A) (A) (A) (A) (A) (A)
                 (A) (A) (A) (A) (A) (A) (A) (A) (A) (A) (A) (A)
                 (A) (A) (A) (A) (A) (A) (A) (A) (A) (A) (A) (A)
                 (A) (A) (A) (A) (A) (A) (A) (A)
 The electronic state of the initial guess is 1-A.
 Leave Link  401 at Fri Aug 26 19:11:47 2022, MaxMem=  209715200 cpu:       5.0
 (Enter /opt/gaussian/l502.exe)
 Closed shell SCF:
 Requested convergence on RMS density matrix=1.00D-08 within 128 cycles.
 Requested convergence on MAX density matrix=1.00D-06.
 Requested convergence on             energy=1.00D-06.
 No special actions if energy rises.
 Using DIIS extrapolation, IDIIS=  1040.
 Integral symmetry usage will be decided dynamically.
 IEnd=      376488 IEndB=      376488 NGot=   209715200 MDV=   209473345
 LenX=   209473345 LenY=   209355255
 Fock matrices will be formed incrementally for  20 cycles.
 Integral accuracy reduced to 1.0D-05 until final iterations.

 Cycle   1  Pass 0  IDiag  1:
 FoFCou: FMM=F IPFlag=           0 FMFlag=      100000 FMFlg1=           0
         NFxFlg=           0 DoJE=F BraDBF=F KetDBF=F FulRan=T
         Omega=  0.000000  0.000000  1.000000  0.000000  0.000000 ICntrl=       0 IOpCl=  0
         NMat0=    1 NMatS0=    1 NMatT0=    0 NMatD0=    1 NMtDS0=    0 NMtDT0=    0
         I1Cent=           0 NGrid=           0.
 Symmetry not used in FoFCou.
 E= -1776.67710995672    
 DIIS: error= 4.55D-02 at cycle   1 NSaved=   1.
 NSaved= 1 IEnMin= 1 EnMin= -1776.67710995672     IErMin= 1 ErrMin= 4.55D-02
 ErrMax= 4.55D-02 EMaxC= 1.00D-01 BMatC= 1.16D+00 BMatP= 1.16D+00
 IDIUse=3 WtCom= 5.45D-01 WtEn= 4.55D-01
 Coeff-Com:  0.100D+01
 Coeff-En:   0.100D+01
 Coeff:      0.100D+01
 Gap=     0.464 Goal=   None    Shift=    0.000
 GapD=    0.464 DampG=2.000 DampE=0.500 DampFc=1.0000 IDamp=-1.
 RMSDP=5.66D-03 MaxDP=1.63D-01              OVMax= 1.73D-01

 Cycle   2  Pass 0  IDiag  1:
 RMSU=  3.97D-03    CP:  9.71D-01
 E= -1777.45883335732     Delta-E=       -0.781723400597 Rises=F Damp=F
 DIIS: error= 1.73D-02 at cycle   2 NSaved=   2.
 NSaved= 2 IEnMin= 2 EnMin= -1777.45883335732     IErMin= 2 ErrMin= 1.73D-02
 ErrMax= 1.73D-02 EMaxC= 1.00D-01 BMatC= 2.14D-01 BMatP= 1.16D+00
 IDIUse=3 WtCom= 8.27D-01 WtEn= 1.73D-01
 Coeff-Com:  0.253D+00 0.747D+00
 Coeff-En:   0.000D+00 0.100D+01
 Coeff:      0.209D+00 0.791D+00
 Gap=     0.423 Goal=   None    Shift=    0.000
 RMSDP=2.53D-03 MaxDP=8.58D-02 DE=-7.82D-01 OVMax= 7.52D-02

 Cycle   3  Pass 0  IDiag  1:
 RMSU=  1.56D-03    CP:  9.72D-01  7.80D-01
 E= -1777.64436249639     Delta-E=       -0.185529139073 Rises=F Damp=F
 DIIS: error= 8.65D-03 at cycle   3 NSaved=   3.
 NSaved= 3 IEnMin= 3 EnMin= -1777.64436249639     IErMin= 3 ErrMin= 8.65D-03
 ErrMax= 8.65D-03 EMaxC= 1.00D-01 BMatC= 2.72D-02 BMatP= 2.14D-01
 IDIUse=3 WtCom= 9.13D-01 WtEn= 8.65D-02
 Coeff-Com:  0.267D-02 0.244D+00 0.753D+00
 Coeff-En:   0.000D+00 0.000D+00 0.100D+01
 Coeff:      0.244D-02 0.223D+00 0.774D+00
 Gap=     0.383 Goal=   None    Shift=    0.000
 RMSDP=7.29D-04 MaxDP=3.01D-02 DE=-1.86D-01 OVMax= 3.40D-02

 Cycle   4  Pass 0  IDiag  1:
 RMSU=  3.24D-04    CP:  9.72D-01  8.69D-01  8.77D-01
 E= -1777.66999958134     Delta-E=       -0.025637084952 Rises=F Damp=F
 DIIS: error= 2.55D-03 at cycle   4 NSaved=   4.
 NSaved= 4 IEnMin= 4 EnMin= -1777.66999958134     IErMin= 4 ErrMin= 2.55D-03
 ErrMax= 2.55D-03 EMaxC= 1.00D-01 BMatC= 2.70D-03 BMatP= 2.72D-02
 IDIUse=3 WtCom= 9.75D-01 WtEn= 2.55D-02
 Coeff-Com: -0.139D-01 0.227D-01 0.279D+00 0.712D+00
 Coeff-En:   0.000D+00 0.000D+00 0.000D+00 0.100D+01
 Coeff:     -0.136D-01 0.222D-01 0.272D+00 0.720D+00
 Gap=     0.382 Goal=   None    Shift=    0.000
 RMSDP=2.44D-04 MaxDP=9.21D-03 DE=-2.56D-02 OVMax= 1.11D-02

 Cycle   5  Pass 0  IDiag  1:
 RMSU=  1.26D-04    CP:  9.71D-01  8.65D-01  9.37D-01  7.93D-01
 E= -1777.67273184580     Delta-E=       -0.002732264460 Rises=F Damp=F
 DIIS: error= 9.95D-04 at cycle   5 NSaved=   5.
 NSaved= 5 IEnMin= 5 EnMin= -1777.67273184580     IErMin= 5 ErrMin= 9.95D-04
 ErrMax= 9.95D-04 EMaxC= 1.00D-01 BMatC= 1.47D-04 BMatP= 2.70D-03
 IDIUse=3 WtCom= 9.90D-01 WtEn= 9.95D-03
 Coeff-Com: -0.185D-02-0.166D-01-0.119D-01 0.100D+00 0.930D+00
 Coeff-En:   0.000D+00 0.000D+00 0.000D+00 0.000D+00 0.100D+01
 Coeff:     -0.183D-02-0.165D-01-0.117D-01 0.993D-01 0.931D+00
 Gap=     0.382 Goal=   None    Shift=    0.000
 RMSDP=9.41D-05 MaxDP=4.93D-03 DE=-2.73D-03 OVMax= 5.27D-03

 Cycle   6  Pass 0  IDiag  1:
 RMSU=  4.85D-05    CP:  9.71D-01  8.65D-01  9.59D-01  8.68D-01  1.12D+00
 E= -1777.67311318984     Delta-E=       -0.000381344038 Rises=F Damp=F
 DIIS: error= 4.59D-04 at cycle   6 NSaved=   6.
 NSaved= 6 IEnMin= 6 EnMin= -1777.67311318984     IErMin= 6 ErrMin= 4.59D-04
 ErrMax= 4.59D-04 EMaxC= 1.00D-01 BMatC= 3.51D-05 BMatP= 1.47D-04
 IDIUse=3 WtCom= 9.95D-01 WtEn= 4.59D-03
 Coeff-Com:  0.267D-02-0.874D-02-0.581D-01-0.155D+00 0.125D+00 0.109D+01
 Coeff-En:   0.000D+00 0.000D+00 0.000D+00 0.000D+00 0.000D+00 0.100D+01
 Coeff:      0.266D-02-0.870D-02-0.579D-01-0.154D+00 0.125D+00 0.109D+01
 Gap=     0.383 Goal=   None    Shift=    0.000
 RMSDP=6.27D-05 MaxDP=2.58D-03 DE=-3.81D-04 OVMax= 6.28D-03

 Cycle   7  Pass 0  IDiag  1:
 RMSU=  1.86D-05    CP:  9.71D-01  8.64D-01  9.71D-01  8.90D-01  1.37D+00
                    CP:  1.28D+00
 E= -1777.67323855524     Delta-E=       -0.000125365401 Rises=F Damp=F
 DIIS: error= 2.42D-04 at cycle   7 NSaved=   7.
 NSaved= 7 IEnMin= 7 EnMin= -1777.67323855524     IErMin= 7 ErrMin= 2.42D-04
 ErrMax= 2.42D-04 EMaxC= 1.00D-01 BMatC= 4.01D-06 BMatP= 3.51D-05
 IDIUse=3 WtCom= 9.98D-01 WtEn= 2.42D-03
 Coeff-Com:  0.238D-03 0.150D-02 0.261D-02-0.185D-01-0.101D+00 0.201D-01
 Coeff-Com:  0.109D+01
 Coeff-En:   0.000D+00 0.000D+00 0.000D+00 0.000D+00 0.000D+00 0.000D+00
 Coeff-En:   0.100D+01
 Coeff:      0.237D-03 0.150D-02 0.260D-02-0.185D-01-0.101D+00 0.200D-01
 Coeff:      0.109D+01
 Gap=     0.383 Goal=   None    Shift=    0.000
 RMSDP=2.05D-05 MaxDP=9.11D-04 DE=-1.25D-04 OVMax= 1.74D-03

 Cycle   8  Pass 0  IDiag  1:
 RMSU=  6.11D-06    CP:  9.71D-01  8.64D-01  9.73D-01  8.94D-01  1.43D+00
                    CP:  1.45D+00  1.33D+00
 E= -1777.67325335150     Delta-E=       -0.000014796266 Rises=F Damp=F
 DIIS: error= 5.71D-05 at cycle   8 NSaved=   8.
 NSaved= 8 IEnMin= 8 EnMin= -1777.67325335150     IErMin= 8 ErrMin= 5.71D-05
 ErrMax= 5.71D-05 EMaxC= 1.00D-01 BMatC= 7.52D-07 BMatP= 4.01D-06
 IDIUse=1 WtCom= 1.00D+00 WtEn= 0.00D+00
 Coeff-Com: -0.519D-03 0.211D-02 0.138D-01 0.281D-01-0.383D-01-0.234D+00
 Coeff-Com:  0.180D+00 0.105D+01
 Coeff:     -0.519D-03 0.211D-02 0.138D-01 0.281D-01-0.383D-01-0.234D+00
 Coeff:      0.180D+00 0.105D+01
 Gap=     0.383 Goal=   None    Shift=    0.000
 RMSDP=9.27D-06 MaxDP=4.24D-04 DE=-1.48D-05 OVMax= 8.12D-04

 Initial convergence to 1.0D-05 achieved.  Increase integral accuracy.
 Cycle   9  Pass 1  IDiag  1:
 E= -1777.67325684404     Delta-E=       -0.000003492532 Rises=F Damp=F
 DIIS: error= 1.23D-04 at cycle   1 NSaved=   1.
 NSaved= 1 IEnMin= 1 EnMin= -1777.67325684404     IErMin= 1 ErrMin= 1.23D-04
 ErrMax= 1.23D-04 EMaxC= 1.00D-01 BMatC= 1.73D-06 BMatP= 1.73D-06
 IDIUse=3 WtCom= 9.99D-01 WtEn= 1.23D-03
 Coeff-Com:  0.100D+01
 Coeff-En:   0.100D+01
 Coeff:      0.100D+01
 Gap=     0.383 Goal=   None    Shift=    0.000
 RMSDP=9.27D-06 MaxDP=4.24D-04 DE=-3.49D-06 OVMax= 2.00D-04

 Cycle  10  Pass 1  IDiag  1:
 RMSU=  3.74D-05    CP:  1.00D+00
 E= -1777.67325868967     Delta-E=       -0.000001845639 Rises=F Damp=F
 DIIS: error= 1.72D-05 at cycle   2 NSaved=   2.
 NSaved= 2 IEnMin= 2 EnMin= -1777.67325868967     IErMin= 2 ErrMin= 1.72D-05
 ErrMax= 1.72D-05 EMaxC= 1.00D-01 BMatC= 3.07D-08 BMatP= 1.73D-06
 IDIUse=1 WtCom= 1.00D+00 WtEn= 0.00D+00
 Coeff-Com: -0.362D-01 0.104D+01
 Coeff:     -0.362D-01 0.104D+01
 Gap=     0.383 Goal=   None    Shift=    0.000
 RMSDP=3.06D-06 MaxDP=5.94D-05 DE=-1.85D-06 OVMax= 1.38D-04

 Cycle  11  Pass 1  IDiag  1:
 RMSU=  9.26D-07    CP:  1.00D+00  1.05D+00
 E= -1777.67325878024     Delta-E=       -0.000000090561 Rises=F Damp=F
 DIIS: error= 8.98D-06 at cycle   3 NSaved=   3.
 NSaved= 3 IEnMin= 3 EnMin= -1777.67325878024     IErMin= 3 ErrMin= 8.98D-06
 ErrMax= 8.98D-06 EMaxC= 1.00D-01 BMatC= 1.53D-08 BMatP= 3.07D-08
 IDIUse=1 WtCom= 1.00D+00 WtEn= 0.00D+00
 Coeff-Com: -0.237D-01 0.340D+00 0.683D+00
 Coeff:     -0.237D-01 0.340D+00 0.683D+00
 Gap=     0.383 Goal=   None    Shift=    0.000
 RMSDP=5.75D-07 MaxDP=1.46D-05 DE=-9.06D-08 OVMax= 6.06D-05

 Cycle  12  Pass 1  IDiag  1:
 RMSU=  3.99D-07    CP:  1.00D+00  1.05D+00  1.04D+00
 E= -1777.67325881067     Delta-E=       -0.000000030431 Rises=F Damp=F
 DIIS: error= 7.99D-06 at cycle   4 NSaved=   4.
 NSaved= 4 IEnMin= 4 EnMin= -1777.67325881067     IErMin= 4 ErrMin= 7.99D-06
 ErrMax= 7.99D-06 EMaxC= 1.00D-01 BMatC= 4.32D-09 BMatP= 1.53D-08
 IDIUse=1 WtCom= 1.00D+00 WtEn= 0.00D+00
 Coeff-Com:  0.252D-01-0.610D+00-0.324D+00 0.191D+01
 Coeff:      0.252D-01-0.610D+00-0.324D+00 0.191D+01
 Gap=     0.383 Goal=   None    Shift=    0.000
 RMSDP=9.54D-07 MaxDP=2.73D-05 DE=-3.04D-08 OVMax= 1.34D-04

 Cycle  13  Pass 1  IDiag  1:
 RMSU=  2.79D-07    CP:  1.00D+00  1.06D+00  1.54D+00  2.01D+00
 E= -1777.67325884110     Delta-E=       -0.000000030434 Rises=F Damp=F
 DIIS: error= 1.60D-06 at cycle   5 NSaved=   5.
 NSaved= 5 IEnMin= 5 EnMin= -1777.67325884110     IErMin= 5 ErrMin= 1.60D-06
 ErrMax= 1.60D-06 EMaxC= 1.00D-01 BMatC= 3.75D-10 BMatP= 4.32D-09
 IDIUse=1 WtCom= 1.00D+00 WtEn= 0.00D+00
 Coeff-Com:  0.785D-02-0.166D+00-0.144D+00 0.402D+00 0.901D+00
 Coeff:      0.785D-02-0.166D+00-0.144D+00 0.402D+00 0.901D+00
 Gap=     0.383 Goal=   None    Shift=    0.000
 RMSDP=2.01D-07 MaxDP=5.84D-06 DE=-3.04D-08 OVMax= 2.67D-05

 Cycle  14  Pass 1  IDiag  1:
 RMSU=  6.56D-08    CP:  1.00D+00  1.05D+00  1.60D+00  2.24D+00  1.22D+00
 E= -1777.67325884252     Delta-E=       -0.000000001415 Rises=F Damp=F
 DIIS: error= 6.29D-07 at cycle   6 NSaved=   6.
 NSaved= 6 IEnMin= 6 EnMin= -1777.67325884252     IErMin= 6 ErrMin= 6.29D-07
 ErrMax= 6.29D-07 EMaxC= 1.00D-01 BMatC= 5.99D-11 BMatP= 3.75D-10
 IDIUse=1 WtCom= 1.00D+00 WtEn= 0.00D+00
 Coeff-Com: -0.371D-02 0.924D-01 0.491D-01-0.305D+00 0.114D+00 0.105D+01
 Coeff:     -0.371D-02 0.924D-01 0.491D-01-0.305D+00 0.114D+00 0.105D+01
 Gap=     0.383 Goal=   None    Shift=    0.000
 RMSDP=7.01D-08 MaxDP=1.65D-06 DE=-1.42D-09 OVMax= 9.48D-06

 Cycle  15  Pass 1  IDiag  1:
 RMSU=  2.86D-08    CP:  1.00D+00  1.05D+00  1.61D+00  2.29D+00  1.33D+00
                    CP:  1.17D+00
 E= -1777.67325884276     Delta-E=       -0.000000000240 Rises=F Damp=F
 DIIS: error= 2.16D-07 at cycle   7 NSaved=   7.
 NSaved= 7 IEnMin= 7 EnMin= -1777.67325884276     IErMin= 7 ErrMin= 2.16D-07
 ErrMax= 2.16D-07 EMaxC= 1.00D-01 BMatC= 8.70D-12 BMatP= 5.99D-11
 IDIUse=1 WtCom= 1.00D+00 WtEn= 0.00D+00
 Coeff-Com: -0.838D-03 0.170D-01 0.198D-01-0.477D-01-0.120D+00-0.572D-01
 Coeff-Com:  0.119D+01
 Coeff:     -0.838D-03 0.170D-01 0.198D-01-0.477D-01-0.120D+00-0.572D-01
 Coeff:      0.119D+01
 Gap=     0.383 Goal=   None    Shift=    0.000
 RMSDP=3.11D-08 MaxDP=8.42D-07 DE=-2.40D-10 OVMax= 3.64D-06

 Cycle  16  Pass 1  IDiag  1:
 RMSU=  1.03D-08    CP:  1.00D+00  1.05D+00  1.61D+00  2.31D+00  1.36D+00
                    CP:  1.34D+00  1.40D+00
 E= -1777.67325884281     Delta-E=       -0.000000000055 Rises=F Damp=F
 DIIS: error= 1.25D-07 at cycle   8 NSaved=   8.
 NSaved= 8 IEnMin= 8 EnMin= -1777.67325884281     IErMin= 8 ErrMin= 1.25D-07
 ErrMax= 1.25D-07 EMaxC= 1.00D-01 BMatC= 2.43D-12 BMatP= 8.70D-12
 IDIUse=1 WtCom= 1.00D+00 WtEn= 0.00D+00
 Coeff-Com:  0.470D-03-0.131D-01-0.108D-02 0.463D-01-0.644D-01-0.240D+00
 Coeff-Com:  0.428D+00 0.844D+00
 Coeff:      0.470D-03-0.131D-01-0.108D-02 0.463D-01-0.644D-01-0.240D+00
 Coeff:      0.428D+00 0.844D+00
 Gap=     0.383 Goal=   None    Shift=    0.000
 RMSDP=1.15D-08 MaxDP=3.20D-07 DE=-5.46D-11 OVMax= 1.10D-06

 Cycle  17  Pass 1  IDiag  1:
 RMSU=  5.23D-09    CP:  1.00D+00  1.05D+00  1.61D+00  2.31D+00  1.36D+00
                    CP:  1.37D+00  1.59D+00  1.02D+00
 E= -1777.67325884280     Delta-E=        0.000000000010 Rises=F Damp=F
 DIIS: error= 4.92D-08 at cycle   9 NSaved=   9.
 NSaved= 9 IEnMin= 8 EnMin= -1777.67325884281     IErMin= 9 ErrMin= 4.92D-08
 ErrMax= 4.92D-08 EMaxC= 1.00D-01 BMatC= 2.20D-13 BMatP= 2.43D-12
 IDIUse=1 WtCom= 1.00D+00 WtEn= 0.00D+00
 Coeff-Com:  0.104D-03-0.224D-02-0.152D-02 0.511D-02 0.108D-01-0.303D-02
 Coeff-Com: -0.105D+00 0.501D-02 0.109D+01
 Coeff:      0.104D-03-0.224D-02-0.152D-02 0.511D-02 0.108D-01-0.303D-02
 Coeff:     -0.105D+00 0.501D-02 0.109D+01
 Gap=     0.383 Goal=   None    Shift=    0.000
 RMSDP=4.69D-09 MaxDP=1.50D-07 DE= 1.00D-11 OVMax= 5.17D-07

 SCF Done:  E(RHF) =  -1777.67325884     A.U. after   17 cycles
             Convg  =    0.4691D-08             -V/T =  2.0001
 KE= 1.777466597625D+03 PE=-1.067101889869D+04 EE= 3.865087852408D+03
 Leave Link  502 at Fri Aug 26 19:13:17 2022, MaxMem=  209715200 cpu:     711.1
 (Enter /opt/gaussian/l601.exe)
 Copying SCF densities to generalized density rwf, IOpCl= 0 IROHF=0.

 **********************************************************************

            Population analysis using the SCF density.

 **********************************************************************

 Orbital symmetries:
       Occupied  (A) (A) (A) (A) (A) (A) (A) (A) (A) (A) (A) (A)
                 (A) (A) (A) (A) (A) (A) (A) (A) (A) (A) (A) (A)
                 (A) (A) (A) (A) (A) (A) (A) (A) (A) (A) (A) (A)
                 (A) (A) (A) (A) (A) (A) (A) (A) (A) (A) (A) (A)
                 (A) (A) (A) (A) (A) (A) (A) (A) (A) (A) (A) (A)
                 (A) (A) (A) (A) (A) (A) (A) (A) (A) (A) (A) (A)
                 (A) (A) (A) (A) (A) (A) (A) (A) (A) (A) (A) (A)
                 (A) (A) (A) (A) (A) (A) (A) (A) (A) (A) (A) (A)
                 (A) (A) (A) (A) (A) (A) (A) (A) (A) (A) (A) (A)
                 (A) (A) (A) (A) (A) (A) (A) (A) (A) (A) (A)
       Virtual   (A) (A) (A) (A) (A) (A) (A) (A) (A) (A) (A) (A)
                 (A) (A) (A) (A) (A) (A) (A) (A) (A) (A) (A) (A)
                 (A) (A) (A) (A) (A) (A) (A) (A) (A) (A) (A) (A)
                 (A) (A) (A) (A) (A) (A) (A) (A) (A) (A) (A) (A)
                 (A) (A) (A) (A) (A) (A) (A) (A) (A) (A) (A) (A)
                 (A) (A) (A) (A) (A) (A) (A) (A) (A) (A) (A) (A)
                 (A) (A) (A) (A) (A) (A) (A) (A) (A) (A) (A) (A)
                 (A) (A) (A) (A) (A) (A) (A) (A) (A) (A) (A) (A)
                 (A) (A) (A) (A) (A) (A) (A) (A) (A) (A) (A) (A)
                 (A) (A) (A) (A) (A) (A) (A) (A) (A) (A) (A) (A)
                 (A) (A) (A) (A) (A) (A) (A) (A) (A) (A) (A) (A)
                 (A) (A) (A) (A) (A) (A) (A) (A) (A) (A) (A) (A)
                 (A) (A) (A) (A) (A) (A) (A) (A) (A) (A) (A) (A)
                 (A) (A) (A) (A) (A) (A) (A) (A) (A) (A) (A) (A)
                 (A) (A) (A) (A) (A) (A) (A) (A) (A) (A) (A) (A)
                 (A) (A) (A) (A) (A) (A) (A) (A) (A) (A) (A) (A)
                 (A) (A) (A) (A) (A) (A) (A) (A) (A) (A) (A) (A)
                 (A) (A) (A) (A) (A) (A) (A) (A) (A) (A) (A) (A)
                 (A) (A) (A) (A) (A) (A) (A) (A)
 The electronic state is 1-A.
 Alpha  occ. eigenvalues --  -91.99574 -20.59375 -20.55104 -15.66939 -15.65446
 Alpha  occ. eigenvalues --  -15.62287 -15.62117 -15.58676 -11.39315 -11.35788
 Alpha  occ. eigenvalues --  -11.32469 -11.31278 -11.30494 -11.29753 -11.29448
 Alpha  occ. eigenvalues --  -11.29111 -11.29010 -11.28618 -11.28045 -11.27531
 Alpha  occ. eigenvalues --  -11.27128 -11.26817 -11.26355 -11.26294 -11.26246
 Alpha  occ. eigenvalues --  -11.26076 -11.25184 -11.25117 -11.25003 -11.24764
 Alpha  occ. eigenvalues --  -11.24494 -11.24338 -11.24059  -9.01960  -6.70113
 Alpha  occ. eigenvalues --   -6.69941  -6.69661  -1.46153  -1.41990  -1.40730
 Alpha  occ. eigenvalues --   -1.28536  -1.26495  -1.24239  -1.22669  -1.16893
 Alpha  occ. eigenvalues --   -1.16464  -1.10791  -1.06711  -1.05433  -1.04790
 Alpha  occ. eigenvalues --   -1.04262  -1.02339  -1.02012  -1.01546  -0.99266
 Alpha  occ. eigenvalues --   -0.94611  -0.94400  -0.89104  -0.88178  -0.85134
 Alpha  occ. eigenvalues --   -0.84460  -0.83813  -0.82479  -0.80219  -0.79066
 Alpha  occ. eigenvalues --   -0.77325  -0.75707  -0.73181  -0.72408  -0.71738
 Alpha  occ. eigenvalues --   -0.71326  -0.70560  -0.69734  -0.68269  -0.67731
 Alpha  occ. eigenvalues --   -0.65454  -0.65335  -0.64618  -0.64135  -0.63640
 Alpha  occ. eigenvalues --   -0.62724  -0.62095  -0.61555  -0.60963  -0.60107
 Alpha  occ. eigenvalues --   -0.59583  -0.59236  -0.58576  -0.58168  -0.56775
 Alpha  occ. eigenvalues --   -0.56401  -0.55956  -0.55226  -0.54835  -0.54373
 Alpha  occ. eigenvalues --   -0.53504  -0.53473  -0.52843  -0.52193  -0.50784
 Alpha  occ. eigenvalues --   -0.50575  -0.49547  -0.49375  -0.49108  -0.48823
 Alpha  occ. eigenvalues --   -0.47466  -0.45208  -0.42565  -0.42219  -0.41901
 Alpha  occ. eigenvalues --   -0.41200  -0.38879  -0.36635  -0.35132  -0.34182
 Alpha  occ. eigenvalues --   -0.33735  -0.33594  -0.32464  -0.28980
 Alpha virt. eigenvalues --    0.09290   0.09639   0.10601   0.12581   0.13868
 Alpha virt. eigenvalues --    0.14482   0.15141   0.17759   0.18105   0.19320
 Alpha virt. eigenvalues --    0.20125   0.20673   0.22512   0.23827   0.23890
 Alpha virt. eigenvalues --    0.24191   0.24905   0.25821   0.25995   0.26909
 Alpha virt. eigenvalues --    0.28143   0.28731   0.29133   0.30015   0.30212
 Alpha virt. eigenvalues --    0.30534   0.30744   0.31337   0.31722   0.32289
 Alpha virt. eigenvalues --    0.32353   0.32834   0.33661   0.34440   0.35307
 Alpha virt. eigenvalues --    0.35700   0.36608   0.36778   0.37908   0.39296
 Alpha virt. eigenvalues --    0.39871   0.40968   0.41137   0.41860   0.43164
 Alpha virt. eigenvalues --    0.43887   0.44229   0.44671   0.46093   0.46676
 Alpha virt. eigenvalues --    0.47652   0.47859   0.48945   0.49957   0.51037
 Alpha virt. eigenvalues --    0.51376   0.51696   0.52071   0.53861   0.54788
 Alpha virt. eigenvalues --    0.55789   0.56600   0.57038   0.58045   0.59452
 Alpha virt. eigenvalues --    0.60954   0.63272   0.63654   0.65278   0.65691
 Alpha virt. eigenvalues --    0.68647   0.70517   0.71309   0.71714   0.73742
 Alpha virt. eigenvalues --    0.74027   0.74300   0.75078   0.76128   0.76802
 Alpha virt. eigenvalues --    0.76896   0.76989   0.78179   0.78564   0.79122
 Alpha virt. eigenvalues --    0.79309   0.79650   0.80095   0.80344   0.81574
 Alpha virt. eigenvalues --    0.81893   0.82594   0.83268   0.83366   0.83582
 Alpha virt. eigenvalues --    0.83947   0.84654   0.85051   0.85236   0.85354
 Alpha virt. eigenvalues --    0.85641   0.85940   0.86136   0.86277   0.87037
 Alpha virt. eigenvalues --    0.87375   0.88338   0.88814   0.89169   0.89586
 Alpha virt. eigenvalues --    0.90407   0.90536   0.91178   0.91715   0.92505
 Alpha virt. eigenvalues --    0.92556   0.93219   0.93897   0.94842   0.95407
 Alpha virt. eigenvalues --    0.95641   0.95687   0.97360   0.97691   0.98980
 Alpha virt. eigenvalues --    0.99628   1.00483   1.01933   1.02551   1.03374
 Alpha virt. eigenvalues --    1.04866   1.06994   1.07335   1.07959   1.08774
 Alpha virt. eigenvalues --    1.09047   1.10057   1.10693   1.10945   1.11024
 Alpha virt. eigenvalues --    1.11353   1.12049   1.12394   1.12841   1.13097
 Alpha virt. eigenvalues --    1.13642   1.14045   1.14529   1.15086   1.15948
 Alpha virt. eigenvalues --    1.16503   1.16640   1.17515   1.17761   1.18375
 Alpha virt. eigenvalues --    1.18707   1.19881   1.20314   1.20669   1.21080
 Alpha virt. eigenvalues --    1.21807   1.22701   1.23665   1.24265   1.25281
 Alpha virt. eigenvalues --    1.25328   1.26057   1.26135   1.28481   1.28767
 Alpha virt. eigenvalues --    1.29815   1.30482   1.31829   1.32564   1.33739
 Alpha virt. eigenvalues --    1.33971   1.34880   1.36731   1.37057   1.37293
 Alpha virt. eigenvalues --    1.38594   1.38943   1.39321   1.40908   1.41842
 Alpha virt. eigenvalues --    1.42620   1.44600   1.45319   1.45640   1.47269
 Alpha virt. eigenvalues --    1.48034   1.49626   1.51628   1.52848   1.54760
 Alpha virt. eigenvalues --    1.56804   1.58508   1.58991   1.61636   1.62154
 Alpha virt. eigenvalues --    1.64082   1.66044   1.66735   1.68815   1.69282
 Alpha virt. eigenvalues --    1.70383   1.70922   1.73528   1.74831   1.77798
 Alpha virt. eigenvalues --    1.78033   1.80124   1.84615   1.89310   1.94261
 Alpha virt. eigenvalues --    1.99272   2.01054   2.04419   2.14251   2.15811
 Alpha virt. eigenvalues --    2.22467   2.24951   2.32954   2.37196
          Condensed to atoms (all electrons):
 Mulliken atomic charges:
              1
     1  C   -0.114466
     2  O   -0.752022
     3  C    0.647776
     4  N   -0.598498
     5  C    0.071812
     6  C   -0.262672
     7  C   -0.138186
     8  C   -0.112656
     9  C   -0.014747
    10  C   -0.203840
    11  C   -0.161671
    12  C    0.344084
    13  C   -0.247528
    14  C   -0.148539
    15  N   -0.980993
    16  C   -0.130302
    17  C    0.022778
    18  C   -0.118550
    19  C   -0.594519
    20  S    0.578265
    21  C   -0.613981
    22  C    0.801065
    23  O   -0.581627
    24  C   -0.150300
    25  N   -0.786306
    26  N    0.116503
    27  N   -0.314354
    28  C    0.033347
    29  C   -0.105423
    30  C   -0.233585
    31  C   -0.201978
    32  C   -0.122122
    33  C    0.383685
    34  H    0.176550
    35  H    0.174851
    36  H    0.175665
    37  H    0.214296
    38  H    0.216239
    39  H    0.233221
    40  H    0.219042
    41  H    0.259988
    42  H    0.223351
    43  H    0.244301
    44  H    0.230473
    45  H    0.188587
    46  H    0.223910
    47  H    0.251546
    48  H    0.273755
    49  H    0.242587
    50  H    0.242213
    51  H    0.245446
    52  H    0.208455
    53  H    0.211590
    54  H    0.233485
 Sum of Mulliken atomic charges =   0.00000
 Mulliken charges with hydrogens summed into heavy atoms:
              1
     1  C    0.412600
     2  O   -0.752022
     3  C    0.647776
     4  N   -0.598498
     5  C    0.286108
     6  C   -0.046433
     7  C    0.095035
     8  C   -0.112656
     9  C   -0.014747
    10  C    0.015202
    11  C    0.098318
    12  C    0.344084
    13  C   -0.024177
    14  C    0.095762
    15  N   -0.980993
    16  C    0.288759
    17  C    0.022778
    18  C    0.105360
    19  C   -0.342974
    20  S    0.578265
    21  C   -0.340226
    22  C    0.801065
    23  O   -0.581627
    24  C    0.334500
    25  N   -0.786306
    26  N    0.116503
    27  N   -0.314354
    28  C    0.033347
    29  C    0.140023
    30  C   -0.025130
    31  C    0.009612
    32  C    0.111362
    33  C    0.383685
 Sum of Mulliken charges with hydrogens summed into heavy atoms =   0.00000
 Electronic spatial extent (au):  <R**2>=          20556.4720
 Charge=              0.0000 electrons
 Dipole moment (field-independent basis, Debye):
    X=              1.3092    Y=              6.1583    Z=             -0.3594  Tot=              6.3062
 Quadrupole moment (field-independent basis, Debye-Ang):
   XX=           -192.6194   YY=           -204.1036   ZZ=           -187.4102
   XY=            -28.0491   XZ=            -15.4511   YZ=             -8.0164
 Traceless Quadrupole moment (field-independent basis, Debye-Ang):
   XX=              2.0917   YY=             -9.3926   ZZ=              7.3009
   XY=            -28.0491   XZ=            -15.4511   YZ=             -8.0164
 Octapole moment (field-independent basis, Debye-Ang**2):
  XXX=            126.9381  YYY=             70.0998  ZZZ=             34.3156  XYY=             42.9381
  XXY=              0.1389  XXZ=             52.4533  XZZ=            -12.5118  YZZ=             17.4663
  YYZ=             11.7019  XYZ=            100.5473
 Hexadecapole moment (field-independent basis, Debye-Ang**3):
 XXXX=         -20459.7237 YYYY=          -5270.8396 ZZZZ=          -2335.4039 XXXY=           -668.7039
 XXXZ=           -717.9506 YYYX=           -359.6288 YYYZ=           -131.7146 ZZZX=             63.6409
 ZZZY=             -9.0634 XXYY=          -4158.6856 XXZZ=          -3661.0874 YYZZ=          -1280.3281
 XXYZ=           -136.4861 YYXZ=           -149.9314 ZZXY=              3.7765
 N-N= 3.250791189818D+03 E-N=-1.067101889768D+04  KE= 1.777466597625D+03
 No NMR shielding tensors so no spin-rotation constants.
 Leave Link  601 at Fri Aug 26 19:13:17 2022, MaxMem=  209715200 cpu:       1.5
 (Enter /opt/gaussian/l701.exe)
 Compute integral first derivatives.
 ... and contract with generalized density number  0.
 Leave Link  701 at Fri Aug 26 19:13:17 2022, MaxMem=  209715200 cpu:       1.3
 (Enter /opt/gaussian/l702.exe)
 L702 exits ... SP integral derivatives will be done elsewhere.
 Leave Link  702 at Fri Aug 26 19:13:17 2022, MaxMem=  209715200 cpu:       0.2
 (Enter /opt/gaussian/l703.exe)
 Compute integral first derivatives, UseDBF=F ICtDFT=           0.
 Integral derivatives from FoFDir, PRISM(SPDF).
 Calling FoFJK, ICntrl=      2127 FMM=F ISym2X=0 I1Cent= 0 IOpClX= 0 NMat=1 NMatS=1 NMatT=0.
 FoFCou: FMM=F IPFlag=           0 FMFlag=      100000 FMFlg1=         800
         NFxFlg=           0 DoJE=F BraDBF=F KetDBF=F FulRan=T
         Omega=  0.000000  0.000000  1.000000  0.000000  0.000000 ICntrl=    2127 IOpCl=  0
         NMat0=    1 NMatS0=    1 NMatT0=    0 NMatD0=    1 NMtDS0=    0 NMtDT0=    0
         I1Cent=           0 NGrid=           0.
 Symmetry not used in FoFCou.
 Leave Link  703 at Fri Aug 26 19:13:51 2022, MaxMem=  209715200 cpu:     264.8
 (Enter /opt/gaussian/l716.exe)
 Dipole        = 5.15081874D-01 2.42287378D+00-1.41382210D-01
 ***** Axes restored to original set *****
 -------------------------------------------------------------------
 Center     Atomic                   Forces (Hartrees/Bohr)
 Number     Number              X              Y              Z
 -------------------------------------------------------------------
      1        6           0.008520116   -0.013764497    0.025340967
      2        8          -0.032566058    0.010463408   -0.010351746
      3        6          -0.008190148    0.004184735   -0.010344901
      4        7           0.040159254    0.010250097   -0.022406494
      5        6          -0.016706126    0.003065877   -0.002772015
      6        6          -0.010946176   -0.003117346    0.007737015
      7        6           0.001930373    0.001586964   -0.001539640
      8        6          -0.031494691   -0.006595893    0.012182381
      9        6           0.020861681    0.000628972   -0.001436115
     10        6          -0.003642481    0.003881050   -0.000959937
     11        6           0.009862089    0.007196817   -0.006642160
     12        6          -0.026963961    0.004299675    0.005528697
     13        6           0.011846384    0.000048231   -0.003249512
     14        6          -0.002866737   -0.010087919    0.002839238
     15        7           0.012333432    0.017995950    0.012864278
     16        6          -0.002015494   -0.011734783   -0.043482519
     17        6           0.005285195   -0.009642778    0.022444893
     18        6           0.008879586   -0.009029573    0.006679526
     19        6           0.032164176   -0.004682900   -0.078845836
     20       16           0.019607134   -0.033870686    0.086277342
     21        6          -0.053994218    0.051353539   -0.043451942
     22        6          -0.021830845    0.015028580    0.008556692
     23        8           0.024377756   -0.025558744   -0.012428188
     24        6           0.010293408   -0.018989279   -0.021429630
     25        7          -0.002243584    0.009875554    0.053049314
     26        7          -0.002355657   -0.010691185   -0.013768364
     27        7           0.008982263   -0.008409865    0.028905138
     28        6          -0.010448791   -0.044463316   -0.017923962
     29        6          -0.000610873    0.011391880   -0.004049509
     30        6           0.005379749    0.009557973    0.010552412
     31        6           0.001434871   -0.009656285    0.008138522
     32        6          -0.004017137   -0.010646382   -0.004539068
     33        6           0.004999390    0.042185157   -0.019095803
     34        1           0.014123048    0.020592530    0.005041633
     35        1          -0.027304034    0.006011394   -0.006036468
     36        1           0.009579451   -0.019133079   -0.013223039
     37        1           0.022665343    0.002874822   -0.008289126
     38        1           0.012885480   -0.007525064    0.011651894
     39        1          -0.005627689   -0.010629295    0.017102793
     40        1           0.013773269   -0.014947702    0.003169070
     41        1          -0.007090848   -0.023112662    0.008683814
     42        1          -0.014380451    0.016796108   -0.003631726
     43        1           0.008594817    0.020728155   -0.009155255
     44        1           0.020788117    0.024153202    0.007257812
     45        1          -0.018204792   -0.013641721    0.020184746
     46        1          -0.002189932   -0.002248588    0.015989079
     47        1          -0.014175107    0.009159395    0.005436883
     48        1           0.015880380   -0.008548001   -0.007074541
     49        1          -0.012975846    0.025260017   -0.017766008
     50        1           0.000533120    0.000330741    0.030241658
     51        1          -0.003213183   -0.019597549   -0.001183067
     52        1          -0.007649639   -0.007852111   -0.016892732
     53        1          -0.005012582    0.011351398   -0.016065272
     54        1           0.002977198    0.017924982    0.002178778
 -------------------------------------------------------------------
 Cartesian Forces:  Max     0.086277342 RMS     0.019236041
 Leave Link  716 at Fri Aug 26 19:13:51 2022, MaxMem=  209715200 cpu:       0.2
 (Enter /opt/gaussian/l103.exe)

 GradGradGradGradGradGradGradGradGradGradGradGradGradGradGradGradGradGrad
 Berny optimization.
 Internal  Forces:  Max     0.061920120 RMS     0.011336397
 Search for a local minimum.
 Step number   1 out of a maximum of  297
 All quantities printed in internal units (Hartrees-Bohrs-Radians)
 RMS Force = .11336D-01 SwitMx=.10000D-02 MixMth= 1
 Mixed Optimization -- RFO/linear search
 Second derivative matrix not updated -- first step.
 ITU=  0
     Eigenvalues ---    0.00237   0.00826   0.00891   0.01083   0.01169
     Eigenvalues ---    0.01318   0.01335   0.01384   0.01416   0.01514
     Eigenvalues ---    0.01581   0.01671   0.01703   0.01716   0.01741
     Eigenvalues ---    0.01766   0.01772   0.01847   0.01859   0.01901
     Eigenvalues ---    0.01932   0.01950   0.01971   0.02048   0.02053
     Eigenvalues ---    0.02058   0.02075   0.02087   0.02091   0.02106
     Eigenvalues ---    0.02111   0.02119   0.02125   0.02126   0.02129
     Eigenvalues ---    0.02158   0.02163   0.02164   0.02179   0.02183
     Eigenvalues ---    0.02185   0.02245   0.02275   0.02280   0.02307
     Eigenvalues ---    0.04696   0.04792   0.06482   0.06573   0.10149
     Eigenvalues ---    0.10306   0.10758   0.10950   0.13466   0.13723
     Eigenvalues ---    0.15994   0.15997   0.15999   0.16000   0.16000
     Eigenvalues ---    0.16000   0.16000   0.16000   0.16000   0.16000
     Eigenvalues ---    0.16000   0.16000   0.16000   0.16000   0.16000
     Eigenvalues ---    0.16000   0.16000   0.22000   0.22000   0.22080
     Eigenvalues ---    0.22082   0.22146   0.22508   0.22579   0.22879
     Eigenvalues ---    0.22957   0.23298   0.23488   0.23999   0.24425
     Eigenvalues ---    0.24580   0.24858   0.24900   0.24912   0.24957
     Eigenvalues ---    0.24965   0.24992   0.24996   0.24997   0.25000
     Eigenvalues ---    0.25000   0.25000   0.25000   0.28519   0.30382
     Eigenvalues ---    0.30444   0.30636   0.30677   0.31571   0.31973
     Eigenvalues ---    0.31988   0.33100   0.33389   0.33420   0.33483
     Eigenvalues ---    0.33486   0.33523   0.33544   0.33565   0.33604
     Eigenvalues ---    0.33763   0.33937   0.34027   0.34579   0.34690
     Eigenvalues ---    0.34905   0.35016   0.37346   0.37675   0.37952
     Eigenvalues ---    0.38175   0.38772   0.39334   0.39651   0.40050
     Eigenvalues ---    0.40844   0.41236   0.41498   0.41666   0.42328
     Eigenvalues ---    0.42767   0.43154   0.43531   0.43888   0.44465
     Eigenvalues ---    0.44729   0.45760   0.45803   0.46040   0.46090
     Eigenvalues ---    0.46172   0.46811   0.46875   0.47370   0.47936
     Eigenvalues ---    0.49021   0.49040   0.51934   0.54896   0.77330
     Eigenvalues ---    0.86516
 RFO step:  Lambda=-8.37907424D-02 EMin= 2.36822489D-03
 Linear search not attempted -- first point.
 Maximum step size (   0.300) exceeded in Quadratic search.
    -- Step size scaled by   0.685
 Iteration  1 RMS(Cart)=  0.07031823 RMS(Int)=  0.00077474
 Iteration  2 RMS(Cart)=  0.00198768 RMS(Int)=  0.00006677
 Iteration  3 RMS(Cart)=  0.00000145 RMS(Int)=  0.00006677
 Iteration  4 RMS(Cart)=  0.00000000 RMS(Int)=  0.00006677
 Variable       Old X    -DE/DX   Delta X   Delta X   Delta X     New X
                                 (Linear)    (Quad)   (Total)
    R1        2.69908   0.01092   0.00000   0.01508   0.01508   2.71416
    R2        2.10894  -0.02534   0.00000  -0.04304  -0.04304   2.06590
    R3        2.11637  -0.02796   0.00000  -0.04796  -0.04796   2.06841
    R4        2.10866  -0.02506   0.00000  -0.04253  -0.04253   2.06613
    R5        2.60866  -0.02108   0.00000  -0.02516  -0.02516   2.58350
    R6        2.56733  -0.04239   0.00000  -0.04810  -0.04807   2.51925
    R7        2.70056  -0.02154   0.00000  -0.03034  -0.03035   2.67021
    R8        2.54053  -0.01288   0.00000  -0.01420  -0.01416   2.52638
    R9        2.65229  -0.02905   0.00000  -0.03686  -0.03685   2.61545
   R10        2.08877  -0.02427   0.00000  -0.04010  -0.04010   2.04867
   R11        2.63634  -0.00792   0.00000  -0.00881  -0.00884   2.62750
   R12        2.07285  -0.01890   0.00000  -0.03054  -0.03054   2.04231
   R13        2.64714  -0.00988   0.00000  -0.01189  -0.01192   2.63521
   R14        2.08071  -0.02088   0.00000  -0.03411  -0.03411   2.04660
   R15        2.75328   0.02334   0.00000   0.03497   0.03497   2.78825
   R16        2.64975  -0.00841   0.00000  -0.01037  -0.01036   2.63939
   R17        2.64652  -0.00915   0.00000  -0.01122  -0.01121   2.63531
   R18        2.62614  -0.00704   0.00000  -0.00868  -0.00868   2.61746
[...]
 ! D131  D(31,32,33,25)        178.8749         -DE/DX =    0.0                 !
 ! D132  D(31,32,33,28)         -0.2592         -DE/DX =    0.0                 !
 ! D133  D(54,32,33,25)         -2.069          -DE/DX =    0.0                 !
 ! D134  D(54,32,33,28)        178.7969         -DE/DX =    0.0                 !
 --------------------------------------------------------------------------------
 GradGradGradGradGradGradGradGradGradGradGradGradGradGradGradGradGradGrad

 Largest change from initial coordinates is atom   53       0.962 Angstoms.
 Leave Link  103 at Fri Aug 26 19:42:28 2022, MaxMem=  209715200 cpu:       0.8
 (Enter /opt/gaussian/l202.exe)
 Stoichiometry    C25H21N5O2S
 Framework group  C1[X(C25H21N5O2S)]
 Deg. of freedom   156
 Full point group                 C1      NOp   1
 RotChk:  IX=0 Diff= 1.82D-15
 Largest Abelian subgroup         C1      NOp   1
 Largest concise Abelian subgroup C1      NOp   1
                         Standard orientation:                         
 ---------------------------------------------------------------------
 Center     Atomic      Atomic             Coordinates (Angstroms)
 Number     Number       Type             X           Y           Z
 ---------------------------------------------------------------------
      1          6           0        5.810981    0.354944    3.055603
      2          8           0        5.110235    0.112245    1.821829
      3          6           0        5.719573   -0.545530    0.808343
      4          7           0        6.985583   -0.871184    0.949619
      5          6           0        7.624578   -1.517909   -0.031522
      6          6           0        6.992834   -1.858229   -1.204234
      7          6           0        5.649452   -1.513339   -1.347954
      8          6           0        4.966909   -0.849682   -0.341279
      9          6           0        3.528466   -0.509113   -0.488253
     10          6           0        2.641320   -1.444382   -1.020003
     11          6           0        1.305527   -1.143066   -1.220286
     12          6           0        0.816648    0.109422   -0.874060
     13          6           0        1.686544    1.046322   -0.330614
     14          6           0        3.024910    0.742034   -0.144020
     15          7           0       -0.556618    0.457374   -1.119236
     16          6           0       -0.827152    1.740652   -1.771983
     17          6           0       -1.312582    2.838621   -0.853819
     18          6           0       -1.795385    4.100048   -1.381252
     19          6           0       -2.178905    4.973339   -0.438408
     20         16           0       -1.976233    4.303697    1.205923
     21          6           0       -1.346223    2.789778    0.489461
     22          6           0       -1.563139   -0.401333   -0.754700
     23          8           0       -1.363641   -1.422400   -0.115278
     24          6           0       -2.978095   -0.031176   -1.185796
     25          7           0       -3.926747   -1.049198   -0.854077
     26          7           0       -4.355961   -1.907050   -1.822980
     27          7           0       -5.159283   -2.748190   -1.318375
     28          6           0       -5.292160   -2.484866    0.035550
     29          6           0       -6.057103   -3.120089    1.013250
     30          6           0       -5.985979   -2.620547    2.290224
     31          6           0       -5.165340   -1.510723    2.593281
     32          6           0       -4.406331   -0.881100    1.636327
     33          6           0       -4.488633   -1.392991    0.338730
     34          1           0        6.673562    0.979087    2.884421
     35          1           0        5.095071    0.853320    3.685688
     36          1           0        6.127721   -0.576161    3.498375
     37          1           0        8.653203   -1.752181    0.148539
     38          1           0        7.517997   -2.369343   -1.984912
     39          1           0        5.133715   -1.754042   -2.256830
     40          1           0        2.991084   -2.427570   -1.268450
     41          1           0        0.646006   -1.887062   -1.613736
     42          1           0        1.326680    2.014771   -0.046208
     43          1           0        3.673834    1.475202    0.286517
     44          1           0        0.091496    2.052156   -2.248727
     45          1           0       -1.544460    1.605935   -2.572644
     46          1           0       -1.841727    4.315215   -2.430295
     47          1           0       -2.567904    5.957807   -0.568311
     48          1           0       -1.038834    1.991073    1.126567
     49          1           0       -3.273541    0.906009   -0.734649
     50          1           0       -3.019648    0.084494   -2.258373
     51          1           0       -6.669434   -3.962661    0.762727
     52          1           0       -6.554575   -3.075768    3.076839
     53          1           0       -5.131902   -1.155513    3.604982
     54          1           0       -3.774481   -0.051445    1.881119
 ---------------------------------------------------------------------
 Rotational constants (GHZ):      0.1701575      0.0572869      0.0496111
 Leave Link  202 at Fri Aug 26 19:42:28 2022, MaxMem=  209715200 cpu:       0.0
 (Enter /opt/gaussian/l601.exe)
 Copying SCF densities to generalized density rwf, IOpCl= 0 IROHF=0.

 **********************************************************************

            Population analysis using the SCF density.

 **********************************************************************

 Orbital symmetries:
       Occupied  (A) (A) (A) (A) (A) (A) (A) (A) (A) (A) (A) (A)
                 (A) (A) (A) (A) (A) (A) (A) (A) (A) (A) (A) (A)
                 (A) (A) (A) (A) (A) (A) (A) (A) (A) (A) (A) (A)
                 (A) (A) (A) (A) (A) (A) (A) (A) (A) (A) (A) (A)
                 (A) (A) (A) (A) (A) (A) (A) (A) (A) (A) (A) (A)
                 (A) (A) (A) (A) (A) (A) (A) (A) (A) (A) (A) (A)
                 (A) (A) (A) (A) (A) (A) (A) (A) (A) (A) (A) (A)
                 (A) (A) (A) (A) (A) (A) (A) (A) (A) (A) (A) (A)
                 (A) (A) (A) (A) (A) (A) (A) (A) (A) (A) (A) (A)
                 (A) (A) (A) (A) (A) (A) (A) (A) (A) (A) (A)
       Virtual   (A) (A) (A) (A) (A) (A) (A) (A) (A) (A) (A) (A)
                 (A) (A) (A) (A) (A) (A) (A) (A) (A) (A) (A) (A)
                 (A) (A) (A) (A) (A) (A) (A) (A) (A) (A) (A) (A)
                 (A) (A) (A) (A) (A) (A) (A) (A) (A) (A) (A) (A)
                 (A) (A) (A) (A) (A) (A) (A) (A) (A) (A) (A) (A)
                 (A) (A) (A) (A) (A) (A) (A) (A) (A) (A) (A) (A)
                 (A) (A) (A) (A) (A) (A) (A) (A) (A) (A) (A) (A)
                 (A) (A) (A) (A) (A) (A) (A) (A) (A) (A) (A) (A)
                 (A) (A) (A) (A) (A) (A) (A) (A) (A) (A) (A) (A)
                 (A) (A) (A) (A) (A) (A) (A) (A) (A) (A) (A) (A)
                 (A) (A) (A) (A) (A) (A) (A) (A) (A) (A) (A) (A)
                 (A) (A) (A) (A) (A) (A) (A) (A) (A) (A) (A) (A)
                 (A) (A) (A) (A) (A) (A) (A) (A) (A) (A) (A) (A)
                 (A) (A) (A) (A) (A) (A) (A) (A) (A) (A) (A) (A)
                 (A) (A) (A) (A) (A) (A) (A) (A) (A) (A) (A) (A)
                 (A) (A) (A) (A) (A) (A) (A) (A) (A) (A) (A) (A)
                 (A) (A) (A) (A) (A) (A) (A) (A) (A) (A) (A) (A)
                 (A) (A) (A) (A) (A) (A) (A) (A) (A) (A) (A) (A)
                 (A) (A) (A) (A) (A) (A) (A) (A)
 The electronic state is 1-A.
 Alpha  occ. eigenvalues --  -91.98658 -20.58621 -20.54803 -15.66209 -15.65305
 Alpha  occ. eigenvalues --  -15.62078 -15.61033 -15.57349 -11.38708 -11.35137
 Alpha  occ. eigenvalues --  -11.30996 -11.30953 -11.29575 -11.29285 -11.29253
 Alpha  occ. eigenvalues --  -11.29057 -11.28588 -11.27885 -11.27834 -11.26670
 Alpha  occ. eigenvalues --  -11.26575 -11.26352 -11.26129 -11.25475 -11.25207
 Alpha  occ. eigenvalues --  -11.25080 -11.25066 -11.24373 -11.24244 -11.24202
 Alpha  occ. eigenvalues --  -11.23979 -11.23924 -11.23921  -9.00438  -6.68568
 Alpha  occ. eigenvalues --   -6.68435  -6.68172  -1.47324  -1.42401  -1.42084
 Alpha  occ. eigenvalues --   -1.28535  -1.27543  -1.24751  -1.19879  -1.17593
 Alpha  occ. eigenvalues --   -1.17089  -1.11208  -1.06821  -1.06219  -1.05376
 Alpha  occ. eigenvalues --   -1.04865  -1.02919  -1.02359  -1.01353  -1.00025
 Alpha  occ. eigenvalues --   -0.95869  -0.95011  -0.89427  -0.88645  -0.86020
 Alpha  occ. eigenvalues --   -0.85051  -0.84375  -0.83333  -0.81195  -0.80246
 Alpha  occ. eigenvalues --   -0.77498  -0.75791  -0.73711  -0.73335  -0.72390
 Alpha  occ. eigenvalues --   -0.72123  -0.71307  -0.70435  -0.68958  -0.68020
 Alpha  occ. eigenvalues --   -0.66300  -0.65662  -0.65340  -0.65124  -0.63956
 Alpha  occ. eigenvalues --   -0.63430  -0.63049  -0.62125  -0.61669  -0.60757
 Alpha  occ. eigenvalues --   -0.60380  -0.60256  -0.59487  -0.59298  -0.57711
 Alpha  occ. eigenvalues --   -0.56585  -0.56117  -0.55683  -0.54474  -0.53481
 Alpha  occ. eigenvalues --   -0.53174  -0.52860  -0.52674  -0.52321  -0.51371
 Alpha  occ. eigenvalues --   -0.50410  -0.49819  -0.49443  -0.49252  -0.48106
 Alpha  occ. eigenvalues --   -0.47886  -0.44512  -0.42867  -0.42302  -0.42138
 Alpha  occ. eigenvalues --   -0.41595  -0.39048  -0.36521  -0.35574  -0.34666
 Alpha  occ. eigenvalues --   -0.34115  -0.33520  -0.31899  -0.30073
 Alpha virt. eigenvalues --    0.09759   0.10034   0.10683   0.13495   0.13941
 Alpha virt. eigenvalues --    0.15529   0.16104   0.16580   0.18479   0.18889
 Alpha virt. eigenvalues --    0.20743   0.21743   0.23582   0.23874   0.24632
 Alpha virt. eigenvalues --    0.24709   0.25301   0.25831   0.26675   0.27351
 Alpha virt. eigenvalues --    0.28635   0.28933   0.29617   0.29924   0.30575
 Alpha virt. eigenvalues --    0.30803   0.31747   0.32053   0.32362   0.32615
 Alpha virt. eigenvalues --    0.33072   0.33295   0.33867   0.34356   0.35712
 Alpha virt. eigenvalues --    0.36181   0.37154   0.37839   0.38285   0.40482
 Alpha virt. eigenvalues --    0.41017   0.41532   0.42013   0.43116   0.43245
 Alpha virt. eigenvalues --    0.44656   0.44876   0.45444   0.46790   0.47200
 Alpha virt. eigenvalues --    0.48340   0.48925   0.49683   0.50693   0.51582
 Alpha virt. eigenvalues --    0.52355   0.52921   0.53335   0.53899   0.54330
 Alpha virt. eigenvalues --    0.55045   0.57609   0.57753   0.59037   0.59493
 Alpha virt. eigenvalues --    0.60408   0.61680   0.62499   0.64631   0.65288
 Alpha virt. eigenvalues --    0.68231   0.71164   0.71469   0.72857   0.73448
 Alpha virt. eigenvalues --    0.74358   0.74470   0.74979   0.75710   0.76434
 Alpha virt. eigenvalues --    0.76877   0.77613   0.77856   0.78039   0.78440
 Alpha virt. eigenvalues --    0.79443   0.79678   0.80353   0.80490   0.82293
 Alpha virt. eigenvalues --    0.82464   0.83083   0.83293   0.83483   0.83782
 Alpha virt. eigenvalues --    0.84051   0.84473   0.85272   0.85600   0.85915
 Alpha virt. eigenvalues --    0.85965   0.86255   0.86368   0.86893   0.86916
 Alpha virt. eigenvalues --    0.87675   0.88282   0.88676   0.89485   0.89540
 Alpha virt. eigenvalues --    0.90790   0.91092   0.92113   0.92220   0.92842
 Alpha virt. eigenvalues --    0.93531   0.94510   0.94953   0.95219   0.95818
 Alpha virt. eigenvalues --    0.96155   0.96642   0.97118   0.98164   0.99302
 Alpha virt. eigenvalues --    1.00471   1.00678   1.02002   1.02810   1.03423
 Alpha virt. eigenvalues --    1.05317   1.05811   1.08159   1.08321   1.09020
 Alpha virt. eigenvalues --    1.11006   1.11325   1.11666   1.12389   1.12597
 Alpha virt. eigenvalues --    1.12935   1.13122   1.13786   1.13984   1.14623
 Alpha virt. eigenvalues --    1.15399   1.15794   1.16231   1.16670   1.17293
 Alpha virt. eigenvalues --    1.17701   1.18690   1.18745   1.19313   1.19950
 Alpha virt. eigenvalues --    1.20538   1.20673   1.21454   1.21618   1.22099
 Alpha virt. eigenvalues --    1.22708   1.23519   1.24749   1.25421   1.25612
 Alpha virt. eigenvalues --    1.26439   1.27312   1.27908   1.29020   1.29722
 Alpha virt. eigenvalues --    1.30315   1.30550   1.32013   1.32786   1.33313
 Alpha virt. eigenvalues --    1.34511   1.34782   1.36357   1.37879   1.38394
 Alpha virt. eigenvalues --    1.38835   1.39917   1.40541   1.41984   1.42654
 Alpha virt. eigenvalues --    1.44270   1.44744   1.45023   1.46536   1.47154
 Alpha virt. eigenvalues --    1.47667   1.48643   1.49916   1.52828   1.53816
 Alpha virt. eigenvalues --    1.55834   1.57756   1.60226   1.60481   1.61685
 Alpha virt. eigenvalues --    1.63320   1.64437   1.66049   1.67937   1.69424
 Alpha virt. eigenvalues --    1.71062   1.72021   1.74572   1.76246   1.77821
 Alpha virt. eigenvalues --    1.80649   1.82250   1.88180   1.90232   1.95454
 Alpha virt. eigenvalues --    1.99699   2.04910   2.07727   2.15180   2.17266
 Alpha virt. eigenvalues --    2.25121   2.25571   2.34638   2.40062
          Condensed to atoms (all electrons):
 Mulliken atomic charges:
              1
     1  C   -0.099409
     2  O   -0.765701
     3  C    0.655793
     4  N   -0.612702
     5  C    0.084330
     6  C   -0.260486
     7  C   -0.144998
     8  C   -0.101210
     9  C    0.012978
    10  C   -0.210131
    11  C   -0.150464
    12  C    0.329309
    13  C   -0.227097
    14  C   -0.158688
    15  N   -0.986216
    16  C   -0.085230
    17  C    0.065826
    18  C   -0.103626
    19  C   -0.552253
    20  S    0.478578
    21  C   -0.600823
    22  C    0.787562
    23  O   -0.570256
    24  C   -0.130594
    25  N   -0.883652
    26  N    0.093605
    27  N   -0.335965
    28  C   -0.020324
    29  C   -0.079038
    30  C   -0.233396
    31  C   -0.205833
    32  C   -0.063535
    33  C    0.488218
    34  H    0.174477
    35  H    0.177186
    36  H    0.175365
    37  H    0.212683
    38  H    0.213743
    39  H    0.224402
    40  H    0.215499
    41  H    0.240987
    42  H    0.224489
    43  H    0.234974
    44  H    0.226286
    45  H    0.192106
    46  H    0.221839
    47  H    0.238101
    48  H    0.252672
    49  H    0.239983
    50  H    0.247961
    51  H    0.239704
    52  H    0.203491
    53  H    0.205123
    54  H    0.224359
 Sum of Mulliken atomic charges =   0.00000
 Mulliken charges with hydrogens summed into heavy atoms:
              1
     1  C    0.427618
     2  O   -0.765701
     3  C    0.655793
     4  N   -0.612702
     5  C    0.297013
     6  C   -0.046743
     7  C    0.079404
     8  C   -0.101210
     9  C    0.012978
    10  C    0.005368
    11  C    0.090523
    12  C    0.329309
    13  C   -0.002608
    14  C    0.076287
    15  N   -0.986216
    16  C    0.333161
    17  C    0.065826
    18  C    0.118213
    19  C   -0.314152
    20  S    0.478578
    21  C   -0.348151
    22  C    0.787562
    23  O   -0.570256
    24  C    0.357351
    25  N   -0.883652
    26  N    0.093605
    27  N   -0.335965
    28  C   -0.020324
    29  C    0.160666
    30  C   -0.029905
    31  C   -0.000710
    32  C    0.160823
    33  C    0.488218
 Sum of Mulliken charges with hydrogens summed into heavy atoms =   0.00000
 Electronic spatial extent (au):  <R**2>=          21247.2307
 Charge=              0.0000 electrons
 Dipole moment (field-independent basis, Debye):
    X=              2.5294    Y=              5.4393    Z=             -0.6700  Tot=              6.0360
 Quadrupole moment (field-independent basis, Debye-Ang):
   XX=           -196.9055   YY=           -197.2631   ZZ=           -188.0326
   XY=            -21.1304   XZ=            -18.2162   YZ=            -11.4347
 Traceless Quadrupole moment (field-independent basis, Debye-Ang):
   XX=             -2.8384   YY=             -3.1960   ZZ=              6.0345
   XY=            -21.1304   XZ=            -18.2162   YZ=            -11.4347
 Octapole moment (field-independent basis, Debye-Ang**2):
  XXX=            169.8708  YYY=             72.3803  ZZZ=             50.1814  XYY=             15.3819
  XXY=            -20.8222  XXZ=             72.3146  XZZ=             38.4178  YZZ=             19.0557
  YYZ=            -15.3877  XYZ=            109.5506
 Hexadecapole moment (field-independent basis, Debye-Ang**3):
 XXXX=         -20806.6138 YYYY=          -5545.1753 ZZZZ=          -2181.8955 XXXY=           -361.8765
 XXXZ=           -763.4968 YYYX=           -265.6787 YYYZ=           -206.0314 ZZZX=             55.8609
 ZZZY=            -68.0580 XXYY=          -4337.2547 XXZZ=          -3726.9615 YYZZ=          -1383.9890
 XXYZ=           -159.3760 YYXZ=           -118.0996 ZZXY=            -62.8652
 N-N= 3.233053547412D+03 E-N=-1.063722537319D+04  KE= 1.779179511431D+03
 No NMR shielding tensors so no spin-rotation constants.
 Leave Link  601 at Fri Aug 26 19:42:28 2022, MaxMem=  209715200 cpu:       1.5
 (Enter /opt/gaussian/l9999.exe)
 1\1\GINC-LQCAPF-6\FOpt\RHF\6-31G\C25H21N5O2S1\LQCAPF-6\26-Aug-2022\0\\
 #p opt hf/6-31G\\Mol16.out\\0,1\C,15.3130695275,-11.432206176,1.929782
 1134\O,15.8056928364,-10.8452459928,0.7111983508\C,14.9452724371,-10.3
 092592861,-0.1851885197\N,13.6557321877,-10.4217213458,0.0455308428\C,
 12.7731695294,-9.9091333811,-0.8190751696\C,13.174738015,-9.2589470523
 ,-1.9619535522\C,14.5433578949,-9.1396621441,-2.2005539854\C,15.474413
 3733,-9.6571033329,-1.3145007732\C,16.9314610994,-9.5030895634,-1.5594
 450118\C,17.4390117956,-8.2815217374,-2.0006697234\C,18.7824907933,-8.
 1174388878,-2.2894375468\C,19.6626190408,-9.1786878139,-2.1259505719\C
 ,19.172818553,-10.3975717419,-1.674011601\C,17.8249175013,-10.55817751
 89,-1.3983278691\N,21.0526532235,-9.0416505405,-2.4666393005\C,21.6583
 826647,-10.0921269105,-3.2886262245\C,22.5312913176,-11.0716125994,-2.
 538398676\C,23.340922353,-12.0475666869,-3.2416014103\C,24.0491975079,
 -12.8507125961,-2.4341473474\S,23.7756403891,-12.4648867387,-0.7108867
 755\C,22.6517549981,-11.1619646162,-1.2022688777\C,21.7663963496,-7.95
 22334725,-2.0341015855\O,21.308637891,-7.1245200561,-1.2617119704\C,23
 .1884622352,-7.8024582658,-2.563493815\N,23.795209647,-6.5779040442,-2
 .1407969098\N,23.8594210382,-5.5273487624,-3.0074677387\N,24.397030159
 8,-4.5345827496,-2.4305245846\C,24.7095941206,-4.8883639453,-1.1277392
 929\C,25.3116056896,-4.1534942732,-0.1069098917\C,25.4986505627,-4.786
 2797473,1.09719193\C,25.0908143783,-6.1259483918,1.2868171162\C,24.494
 282037,-6.8559251262,0.2870364113\C,24.3123791981,-6.2056928558,-0.936
 3495131\H,14.6774778384,-12.2760672802,1.7133903833\H,16.1951009195,-1
 1.7421736438,2.4625612605\H,14.7571189441,-10.705036958,2.500281415\H,
 11.7399238336,-10.0362006201,-0.5708211096\H,12.4577412871,-8.85969178
 ,-2.6497061035\H,14.8865056589,-8.6491286179,-3.0902763877\H,16.782124
 1635,-7.4401711454,-2.1071937645\H,19.1447781281,-7.1636568513,-2.6093
 570047\H,19.8374560292,-11.225763018,-1.530351783\H,17.4721574657,-11.
 5024474287,-1.0406757649\H,20.8486294623,-10.6260648605,-3.7655378218\
 H,22.233823022,-9.648966665,-4.0925004794\H,23.3707879809,-12.12052040
 26,-4.3105832422\H,24.7143963033,-13.6393389564,-2.7042417414\H,22.160
 9476689,-10.5777414522,-0.4565386375\H,23.7952374131,-8.640005508,-2.2
 480962885\H,23.1809627231,-7.7806882788,-3.6428443924\H,25.6095247147,
 -3.1375963275,-0.2707185638\H,25.9560479715,-4.262552342,1.9131507559\
 H,25.2480602198,-6.5817914173,2.2451032466\H,24.1734079068,-7.86525809
 36,0.4475774969\\Version=EM64L-G09RevC.01\State=1-A\HF=-1777.7318746\R
 MSD=3.696e-09\RMSF=5.509e-06\Dipole=-0.2958032,-2.303136,-0.4973853\Qu
 adrupole=8.7508067,-14.3949885,5.6441818,-12.5857762,8.5458484,11.3293
 102\PG=C01 [X(C25H21N5O2S1)]\\@


 Money is a good servant but a bad master.
                        -- French Proverb
 Job cpu time:  0 days  3 hours 56 minutes 19.8 seconds.
 File lengths (MBytes):  RWF=     80 Int=      0 D2E=      0 Chk=     11 Scr=      1
 Normal termination of Gaussian 09 at Fri Aug 26 19:42:28 2022.
