 Entering Gaussian System, Link 0=g09
 Input=Mol11.gjf
 Output=Mol11.log
 Initial command:
 /opt/gaussian/l1.exe /home/scr/lqcapf-6/Gau-227304.inp -scrdir=/home/scr/lqcapf-6/
 Entering Link 1 = /opt/gaussian/l1.exe PID=    227306.
  
 Copyright (c) 1988,1990,1992,1993,1995,1998,2003,2009,2011,
            Gaussian, Inc.  All Rights Reserved.
  
 This is part of the Gaussian(R) 09 program.  It is based on
 the Gaussian(R) 03 system (copyright 2003, Gaussian, Inc.),
 the Gaussian(R) 98 system (copyright 1998, Gaussian, Inc.),
 the Gaussian(R) 94 system (copyright 1995, Gaussian, Inc.),
 the Gaussian 92(TM) system (copyright 1992, Gaussian, Inc.),
 the Gaussian 90(TM) system (copyright 1990, Gaussian, Inc.),
 the Gaussian 88(TM) system (copyright 1988, Gaussian, Inc.),
 the Gaussian 86(TM) system (copyright 1986, Carnegie Mellon
 University), and the Gaussian 82(TM) system (copyright 1983,
 Carnegie Mellon University). Gaussian is a federally registered
 trademark of Gaussian, Inc.
  
 This software contains proprietary and confidential information,
 including trade secrets, belonging to Gaussian, Inc.
  
 This software is provided under written license and may be
 used, copied, transmitted, or stored only in accord with that
 written license.
  
 The following legend is applicable only to US Government
 contracts under FAR:
  
                    RESTRICTED RIGHTS LEGEND
  
 Use, reproduction and disclosure by the US Government is
 subject to restrictions as set forth in subparagraphs (a)
 and (c) of the Commercial Computer Software - Restricted
 Rights clause in FAR 52.227-19.
  
 Gaussian, Inc.
 340 Quinnipiac St., Bldg. 40, Wallingford CT 06492
  
  
 ---------------------------------------------------------------
 Warning -- This program may not be used in any manner that
 competes with the business of Gaussian, Inc. or will provide
 assistance to any competitor of Gaussian, Inc.  The licensee
 of this program is prohibited from giving any competitor of
 Gaussian, Inc. access to this program.  By using this program,
 the user acknowledges that Gaussian, Inc. is engaged in the
 business of creating and licensing software in the field of
 computational chemistry and represents and warrants to the
 licensee that it is not a competitor of Gaussian, Inc. and that
 it will not use this program in any manner prohibited above.
 ---------------------------------------------------------------
  

 Cite this work as:
 Gaussian 09, Revision C.01,
 M. J. Frisch, G. W. Trucks, H. B. Schlegel, G. E. Scuseria, 
 M. A. Robb, J. R. Cheeseman, G. Scalmani, V. Barone, B. Mennucci, 
 G. A. Petersson, H. Nakatsuji, M. Caricato, X. Li, H. P. Hratchian, 
 A. F. Izmaylov, J. Bloino, G. Zheng, J. L. Sonnenberg, M. Hada, 
 M. Ehara, K. Toyota, R. Fukuda, J. Hasegawa, M. Ishida, T. Nakajima, 
 Y. Honda, O. Kitao, H. Nakai, T. Vreven, J. A. Montgomery, Jr., 
 J. E. Peralta, F. Ogliaro, M. Bearpark, J. J. Heyd, E. Brothers, 
 K. N. Kudin, V. N. Staroverov, T. Keith, R. Kobayashi, J. Normand, 
 K. Raghavachari, A. Rendell, J. C. Burant, S. S. Iyengar, J. Tomasi, 
 M. Cossi, N. Rega, J. M. Millam, M. Klene, J. E. Knox, J. B. Cross, 
 V. Bakken, C. Adamo, J. Jaramillo, R. Gomperts, R. E. Stratmann, 
 O. Yazyev, A. J. Austin, R. Cammi, C. Pomelli, J. W. Ochterski, 
 R. L. Martin, K. Morokuma, V. G. Zakrzewski, G. A. Voth, 
 P. Salvador, J. J. Dannenberg, S. Dapprich, A. D. Daniels, 
 O. Farkas, J. B. Foresman, J. V. Ortiz, J. Cioslowski, 
 and D. J. Fox, Gaussian, Inc., Wallingford CT, 2010.
 
 ******************************************
 Gaussian 09:  EM64L-G09RevC.01 23-Sep-2011
                26-Aug-2022 
 ******************************************
 %nprocshared=8
 Will use up to    8 processors via shared memory.
 %mem=1600MB
 ---------------
 #p opt hf/6-31G
 ---------------
 1/18=20,19=15,38=1/1,3;
 2/9=110,12=2,17=6,18=5,40=1/2;
 3/5=1,6=6,11=9,16=1,25=1,30=1,71=1/1,2,3;
 4//1;
 5/5=2,38=5/2;
 6/7=2,8=2,9=2,10=2,28=1/1;
 7//1,2,3,16;
 1/18=20,19=15/3(2);
 2/9=110/2;
 99//99;
 2/9=110/2;
 3/5=1,6=6,11=9,16=1,25=1,30=1,71=1/1,2,3;
 4/5=5,16=3/1;
 5/5=2,38=5/2;
 7//1,2,3,16;
 1/18=20,19=15/3(-5);
 2/9=110/2;
 6/7=2,8=2,9=2,10=2,19=2,28=1/1;
 99/9=1/99;
 Leave Link    1 at Fri Aug 26 15:21:26 2022, MaxMem=  209715200 cpu:       0.1
 (Enter /opt/gaussian/l101.exe)
 ---------
 Mol11.out
 ---------
 Charge =  0 Multiplicity = 1
 Symbolic Z-Matrix:
 O                     20.8936  -6.6639   -0.2497 
 C                     21.4919  -7.6694    0.1621 
 C                     23.0023  -7.6488    0.4623 
 N                     23.6677  -6.4083    0.164 
 N                     23.4403  -5.2417    0.8588 
 N                     23.8355  -4.2294    0.2338 
 C                     24.3338  -4.6266   -1.0511 
 C                     24.8893  -3.9262   -2.1204 
 C                     25.2937  -4.6632   -3.2294 
 C                     25.1618  -6.0601   -3.278 
 C                     24.6144  -6.7885   -2.226 
 C                     24.1926  -6.067    -1.1096 
 N                     20.8201  -8.8752    0.4078 
 C                     21.5636  -10.0736   0.733 
 C                     22.311   -10.7161  -0.3845 
 C                     23.5019  -11.4817  -0.1468 
 C                     23.9944  -12.0204  -1.3141 
 S                     23.0508  -11.6095  -2.6289 
 C                     21.9721  -10.7202  -1.7234 
 C                     19.425   -8.9965    0.1809 
 C                     18.8819  -10.1883  -0.3512 
 C                     17.5094  -10.3225  -0.5312 
 C                     16.6453  -9.2764   -0.2011 
 C                     17.1725  -8.0924    0.3273 
 C                     18.5416  -7.9461    0.5171 
 C                     15.1666  -9.3752   -0.3586 
 O                     14.388   -8.8158    0.4399 
 N                     14.6906  -10.0987  -1.4378 
 C                     13.3052  -10.2674  -1.6867 
 C                     12.7425  -11.587   -2.181 
 C                     12.7605  -10.397   -3.0959 
 H                     23.1429  -7.8588    1.5633 
 H                     23.5046  -8.4573   -0.1447 
 H                     25.0022  -2.8334   -2.0836 
 H                     25.7302  -4.1396   -4.0936 
 H                     25.5025  -6.5956   -4.1779 
 H                     24.52    -7.8809   -2.2758 
 H                     22.2962  -9.8232    1.5576 
 H                     20.8435  -10.8355   1.1592 
 H                     23.9407  -11.613    0.8446 
 H                     24.8846  -12.6427  -1.3958 
 H                     21.1108  -10.2105  -2.1573 
 H                     19.5392  -11.0269  -0.632 
 H                     17.1194  -11.2738  -0.925 
 H                     16.4868  -7.2743    0.6061 
 H                     18.931   -6.9954    0.9181 
 H                     15.3311  -10.5146  -2.0694 
 H                     12.6963  -9.692    -0.9486 
 H                     13.4209  -12.4306  -2.3967 
 H                     11.7835  -11.931   -1.7557 
 H                     11.8123  -9.8838   -3.3334 
 H                     13.4519  -10.3977  -3.9566 
 
 NAtoms=     52 NQM=        0 NQMF=       0 NMMI=     52 NMMIF=      0
                NMic=       0 NMicF=      0.
                    Isotopes and Nuclear Properties:
 (Nuclear quadrupole moments (NQMom) in fm**2, nuclear magnetic moments (NMagM)
  in nuclear magnetons)

  Atom         1           2           3           4           5           6           7           8           9          10
 IAtWgt=          16          12          12          14          14          14          12          12          12          12
 AtmWgt=  15.9949146  12.0000000  12.0000000  14.0030740  14.0030740  14.0030740  12.0000000  12.0000000  12.0000000  12.0000000
 NucSpn=           0           0           0           2           2           2           0           0           0           0
 AtZEff=   0.0000000   0.0000000   0.0000000   0.0000000   0.0000000   0.0000000   0.0000000   0.0000000   0.0000000   0.0000000
 NQMom=    0.0000000   0.0000000   0.0000000   2.0440000   2.0440000   2.0440000   0.0000000   0.0000000   0.0000000   0.0000000
 NMagM=    0.0000000   0.0000000   0.0000000   0.4037610   0.4037610   0.4037610   0.0000000   0.0000000   0.0000000   0.0000000

  Atom        11          12          13          14          15          16          17          18          19          20
 IAtWgt=          12          12          14          12          12          12          12          32          12          12
 AtmWgt=  12.0000000  12.0000000  14.0030740  12.0000000  12.0000000  12.0000000  12.0000000  31.9720718  12.0000000  12.0000000
 NucSpn=           0           0           2           0           0           0           0           0           0           0
 AtZEff=   0.0000000   0.0000000   0.0000000   0.0000000   0.0000000   0.0000000   0.0000000   0.0000000   0.0000000   0.0000000
 NQMom=    0.0000000   0.0000000   2.0440000   0.0000000   0.0000000   0.0000000   0.0000000   0.0000000   0.0000000   0.0000000
 NMagM=    0.0000000   0.0000000   0.4037610   0.0000000   0.0000000   0.0000000   0.0000000   0.0000000   0.0000000   0.0000000

  Atom        21          22          23          24          25          26          27          28          29          30
 IAtWgt=          12          12          12          12          12          12          16          14          12          12
 AtmWgt=  12.0000000  12.0000000  12.0000000  12.0000000  12.0000000  12.0000000  15.9949146  14.0030740  12.0000000  12.0000000
 NucSpn=           0           0           0           0           0           0           0           2           0           0
 AtZEff=   0.0000000   0.0000000   0.0000000   0.0000000   0.0000000   0.0000000   0.0000000   0.0000000   0.0000000   0.0000000
 NQMom=    0.0000000   0.0000000   0.0000000   0.0000000   0.0000000   0.0000000   0.0000000   2.0440000   0.0000000   0.0000000
 NMagM=    0.0000000   0.0000000   0.0000000   0.0000000   0.0000000   0.0000000   0.0000000   0.4037610   0.0000000   0.0000000

  Atom        31          32          33          34          35          36          37          38          39          40
 IAtWgt=          12           1           1           1           1           1           1           1           1           1
 AtmWgt=  12.0000000   1.0078250   1.0078250   1.0078250   1.0078250   1.0078250   1.0078250   1.0078250   1.0078250   1.0078250
 NucSpn=           0           1           1           1           1           1           1           1           1           1
 AtZEff=   0.0000000   0.0000000   0.0000000   0.0000000   0.0000000   0.0000000   0.0000000   0.0000000   0.0000000   0.0000000
 NQMom=    0.0000000   0.0000000   0.0000000   0.0000000   0.0000000   0.0000000   0.0000000   0.0000000   0.0000000   0.0000000
 NMagM=    0.0000000   2.7928460   2.7928460   2.7928460   2.7928460   2.7928460   2.7928460   2.7928460   2.7928460   2.7928460

  Atom        41          42          43          44          45          46          47          48          49          50
 IAtWgt=           1           1           1           1           1           1           1           1           1           1
 AtmWgt=   1.0078250   1.0078250   1.0078250   1.0078250   1.0078250   1.0078250   1.0078250   1.0078250   1.0078250   1.0078250
 NucSpn=           1           1           1           1           1           1           1           1           1           1
 AtZEff=   0.0000000   0.0000000   0.0000000   0.0000000   0.0000000   0.0000000   0.0000000   0.0000000   0.0000000   0.0000000
 NQMom=    0.0000000   0.0000000   0.0000000   0.0000000   0.0000000   0.0000000   0.0000000   0.0000000   0.0000000   0.0000000
 NMagM=    2.7928460   2.7928460   2.7928460   2.7928460   2.7928460   2.7928460   2.7928460   2.7928460   2.7928460   2.7928460

  Atom        51          52
 IAtWgt=           1           1
 AtmWgt=   1.0078250   1.0078250
 NucSpn=           1           1
 AtZEff=   0.0000000   0.0000000
 NQMom=    0.0000000   0.0000000
 NMagM=    2.7928460   2.7928460
 Leave Link  101 at Fri Aug 26 15:21:26 2022, MaxMem=  209715200 cpu:       0.7
 (Enter /opt/gaussian/l103.exe)

 GradGradGradGradGradGradGradGradGradGradGradGradGradGradGradGradGradGrad
 Berny optimization.
 Initialization pass.
                           ----------------------------
                           !    Initial Parameters    !
                           ! (Angstroms and Degrees)  !
 --------------------------                            --------------------------
 ! Name  Definition              Value          Derivative Info.                !
 --------------------------------------------------------------------------------
 ! R1    R(1,2)                  1.2404         estimate D2E/DX2                !
 ! R2    R(2,3)                  1.5401         estimate D2E/DX2                !
 ! R3    R(2,13)                 1.402          estimate D2E/DX2                !
 ! R4    R(3,4)                  1.439          estimate D2E/DX2                !
 ! R5    R(3,32)                 1.1296         estimate D2E/DX2                !
 ! R6    R(3,33)                 1.1289         estimate D2E/DX2                !
 ! R7    R(4,5)                  1.3767         estimate D2E/DX2                !
 ! R8    R(4,12)                 1.4192         estimate D2E/DX2                !
 ! R9    R(5,6)                  1.2536         estimate D2E/DX2                !
 ! R10   R(6,7)                  1.4342         estimate D2E/DX2                !
 ! R11   R(7,8)                  1.3938         estimate D2E/DX2                !
 ! R12   R(7,12)                 1.4485         estimate D2E/DX2                !
 ! R13   R(8,9)                  1.3916         estimate D2E/DX2                !
 ! R14   R(8,34)                 1.0992         estimate D2E/DX2                !
 ! R15   R(9,10)                 1.404          estimate D2E/DX2                !
 ! R16   R(9,35)                 1.1007         estimate D2E/DX2                !
 ! R17   R(10,11)                1.3917         estimate D2E/DX2                !
 ! R18   R(10,36)                1.1012         estimate D2E/DX2                !
 ! R19   R(11,12)                1.3946         estimate D2E/DX2                !
 ! R20   R(11,37)                1.0976         estimate D2E/DX2                !
 ! R21   R(13,14)                1.4473         estimate D2E/DX2                !
 ! R22   R(13,20)                1.4186         estimate D2E/DX2                !
 ! R23   R(14,15)                1.49           estimate D2E/DX2                !
 ! R24   R(14,38)                1.1311         estimate D2E/DX2                !
 ! R25   R(14,39)                1.1317         estimate D2E/DX2                !
 ! R26   R(15,16)                1.4356         estimate D2E/DX2                !
 ! R27   R(15,19)                1.3811         estimate D2E/DX2                !
 ! R28   R(16,17)                1.3767         estimate D2E/DX2                !
 ! R29   R(16,40)                1.0921         estimate D2E/DX2                !
 ! R30   R(17,18)                1.6697         estimate D2E/DX2                !
 ! R31   R(17,41)                1.0892         estimate D2E/DX2                !
 ! R32   R(18,19)                1.6656         estimate D2E/DX2                !
 ! R33   R(19,42)                1.0908         estimate D2E/DX2                !
 ! R34   R(20,21)                1.4137         estimate D2E/DX2                !
 ! R35   R(20,25)                1.4131         estimate D2E/DX2                !
 ! R36   R(21,22)                1.3907         estimate D2E/DX2                !
 ! R37   R(21,43)                1.1019         estimate D2E/DX2                !
 ! R38   R(22,23)                1.3964         estimate D2E/DX2                !
 ! R39   R(22,44)                1.101          estimate D2E/DX2                !
 ! R40   R(23,24)                1.3996         estimate D2E/DX2                !
 ! R41   R(23,26)                1.4903         estimate D2E/DX2                !
 ! R42   R(24,25)                1.3899         estimate D2E/DX2                !
 ! R43   R(24,45)                1.1033         estimate D2E/DX2                !
 ! R44   R(25,46)                1.1028         estimate D2E/DX2                !
 ! R45   R(26,27)                1.2477         estimate D2E/DX2                !
 ! R46   R(26,28)                1.3837         estimate D2E/DX2                !
 ! R47   R(28,29)                1.4177         estimate D2E/DX2                !
 ! R48   R(28,47)                0.991          estimate D2E/DX2                !
 ! R49   R(29,30)                1.5173         estimate D2E/DX2                !
 ! R50   R(29,31)                1.5164         estimate D2E/DX2                !
 ! R51   R(29,48)                1.1165         estimate D2E/DX2                !
 ! R52   R(30,31)                1.5012         estimate D2E/DX2                !
 ! R53   R(30,49)                1.1038         estimate D2E/DX2                !
 ! R54   R(30,50)                1.104          estimate D2E/DX2                !
 ! R55   R(31,51)                1.104          estimate D2E/DX2                !
 ! R56   R(31,52)                1.104          estimate D2E/DX2                !
 ! A1    A(1,2,3)              121.7977         estimate D2E/DX2                !
 ! A2    A(1,2,13)             121.617          estimate D2E/DX2                !
 ! A3    A(3,2,13)             116.5691         estimate D2E/DX2                !
 ! A4    A(2,3,4)              115.1273         estimate D2E/DX2                !
 ! A5    A(2,3,32)             108.0329         estimate D2E/DX2                !
 ! A6    A(2,3,33)             108.7827         estimate D2E/DX2                !
 ! A7    A(4,3,32)             107.7435         estimate D2E/DX2                !
 ! A8    A(4,3,33)             107.4692         estimate D2E/DX2                !
 ! A9    A(32,3,33)            109.6055         estimate D2E/DX2                !
 ! A10   A(3,4,5)              123.3328         estimate D2E/DX2                !
 ! A11   A(3,4,12)             124.3603         estimate D2E/DX2                !
 ! A12   A(5,4,12)             108.0719         estimate D2E/DX2                !
 ! A13   A(4,5,6)              112.3691         estimate D2E/DX2                !
 ! A14   A(5,6,7)              109.4231         estimate D2E/DX2                !
 ! A15   A(6,7,8)              133.3638         estimate D2E/DX2                !
 ! A16   A(6,7,12)             106.1235         estimate D2E/DX2                !
 ! A17   A(8,7,12)             120.5035         estimate D2E/DX2                !
 ! A18   A(7,8,9)              117.4571         estimate D2E/DX2                !
 ! A19   A(7,8,34)             120.9867         estimate D2E/DX2                !
 ! A20   A(9,8,34)             121.5562         estimate D2E/DX2                !
 ! A21   A(8,9,10)             121.8181         estimate D2E/DX2                !
 ! A22   A(8,9,35)             119.275          estimate D2E/DX2                !
 ! A23   A(10,9,35)            118.9069         estimate D2E/DX2                !
 ! A24   A(9,10,11)            122.1091         estimate D2E/DX2                !
 ! A25   A(9,10,36)            118.8856         estimate D2E/DX2                !
 ! A26   A(11,10,36)           119.0053         estimate D2E/DX2                !
 ! A27   A(10,11,12)           116.9559         estimate D2E/DX2                !
 ! A28   A(10,11,37)           121.361          estimate D2E/DX2                !
 ! A29   A(12,11,37)           121.6831         estimate D2E/DX2                !
 ! A30   A(4,12,7)             103.8251         estimate D2E/DX2                !
 ! A31   A(4,12,11)            134.8993         estimate D2E/DX2                !
 ! A32   A(7,12,11)            121.1528         estimate D2E/DX2                !
 ! A33   A(2,13,14)            120.3552         estimate D2E/DX2                !
 ! A34   A(2,13,20)            121.1132         estimate D2E/DX2                !
 ! A35   A(14,13,20)           118.0557         estimate D2E/DX2                !
 ! A36   A(13,14,15)           116.5001         estimate D2E/DX2                !
 ! A37   A(13,14,38)           108.2539         estimate D2E/DX2                !
 ! A38   A(13,14,39)           108.3731         estimate D2E/DX2                !
 ! A39   A(15,14,38)           108.5018         estimate D2E/DX2                !
 ! A40   A(15,14,39)           108.1388         estimate D2E/DX2                !
 ! A41   A(38,14,39)           106.6557         estimate D2E/DX2                !
 ! A42   A(14,15,16)           121.4587         estimate D2E/DX2                !
 ! A43   A(14,15,19)           127.2466         estimate D2E/DX2                !
 ! A44   A(16,15,19)           111.2531         estimate D2E/DX2                !
 ! A45   A(15,16,17)           111.4107         estimate D2E/DX2                !
 ! A46   A(15,16,40)           123.2125         estimate D2E/DX2                !
 ! A47   A(17,16,40)           125.3754         estimate D2E/DX2                !
 ! A48   A(16,17,18)           111.6665         estimate D2E/DX2                !
 ! A49   A(16,17,41)           125.4174         estimate D2E/DX2                !
 ! A50   A(18,17,41)           122.9159         estimate D2E/DX2                !
 ! A51   A(17,18,19)            93.9736         estimate D2E/DX2                !
 ! A52   A(15,19,18)           111.6961         estimate D2E/DX2                !
 ! A53   A(15,19,42)           125.3079         estimate D2E/DX2                !
 ! A54   A(18,19,42)           122.996          estimate D2E/DX2                !
 ! A55   A(13,20,21)           120.67           estimate D2E/DX2                !
 ! A56   A(13,20,25)           120.876          estimate D2E/DX2                !
 ! A57   A(21,20,25)           118.4283         estimate D2E/DX2                !
 ! A58   A(20,21,22)           120.6108         estimate D2E/DX2                !
 ! A59   A(20,21,43)           120.5548         estimate D2E/DX2                !
 ! A60   A(22,21,43)           118.8343         estimate D2E/DX2                !
 ! A61   A(21,22,23)           120.5174         estimate D2E/DX2                !
 ! A62   A(21,22,44)           118.6367         estimate D2E/DX2                !
 ! A63   A(23,22,44)           120.8402         estimate D2E/DX2                !
 ! A64   A(22,23,24)           119.3325         estimate D2E/DX2                !
 ! A65   A(22,23,26)           122.6375         estimate D2E/DX2                !
 ! A66   A(24,23,26)           118.0149         estimate D2E/DX2                !
 ! A67   A(23,24,25)           120.7718         estimate D2E/DX2                !
 ! A68   A(23,24,45)           119.2469         estimate D2E/DX2                !
 ! A69   A(25,24,45)           119.9768         estimate D2E/DX2                !
 ! A70   A(20,25,24)           120.3359         estimate D2E/DX2                !
 ! A71   A(20,25,46)           120.4356         estimate D2E/DX2                !
 ! A72   A(24,25,46)           119.2216         estimate D2E/DX2                !
 ! A73   A(23,26,27)           121.453          estimate D2E/DX2                !
 ! A74   A(23,26,28)           117.2837         estimate D2E/DX2                !
 ! A75   A(27,26,28)           121.258          estimate D2E/DX2                !
 ! A76   A(26,28,29)           122.3659         estimate D2E/DX2                !
 ! A77   A(26,28,47)           119.6145         estimate D2E/DX2                !
 ! A78   A(29,28,47)           118.0187         estimate D2E/DX2                !
 ! A79   A(28,29,30)           121.5402         estimate D2E/DX2                !
 ! A80   A(28,29,31)           121.6264         estimate D2E/DX2                !
 ! A81   A(28,29,48)           110.8273         estimate D2E/DX2                !
 ! A82   A(30,29,48)           117.4711         estimate D2E/DX2                !
 ! A83   A(31,29,48)           117.5484         estimate D2E/DX2                !
 ! A84   A(29,30,49)           120.0264         estimate D2E/DX2                !
 ! A85   A(29,30,50)           117.8796         estimate D2E/DX2                !
 ! A86   A(31,30,49)           118.6447         estimate D2E/DX2                !
 ! A87   A(31,30,50)           119.4849         estimate D2E/DX2                !
 ! A88   A(49,30,50)           111.7775         estimate D2E/DX2                !
 ! A89   A(29,31,51)           117.9504         estimate D2E/DX2                !
 ! A90   A(29,31,52)           119.9742         estimate D2E/DX2                !
 ! A91   A(30,31,51)           119.2949         estimate D2E/DX2                !
 ! A92   A(30,31,52)           118.8261         estimate D2E/DX2                !
 ! A93   A(51,31,52)           111.7436         estimate D2E/DX2                !
 ! D1    D(1,2,3,4)             -3.1014         estimate D2E/DX2                !
 ! D2    D(1,2,3,32)           117.3422         estimate D2E/DX2                !
 ! D3    D(1,2,3,33)          -123.7473         estimate D2E/DX2                !
 ! D4    D(13,2,3,4)           178.3408         estimate D2E/DX2                !
 ! D5    D(13,2,3,32)          -61.2155         estimate D2E/DX2                !
 ! D6    D(13,2,3,33)           57.695          estimate D2E/DX2                !
 ! D7    D(1,2,13,14)          172.5777         estimate D2E/DX2                !
 ! D8    D(1,2,13,20)            0.646          estimate D2E/DX2                !
 ! D9    D(3,2,13,14)           -8.8617         estimate D2E/DX2                !
 ! D10   D(3,2,13,20)          179.2065         estimate D2E/DX2                !
 ! D11   D(2,3,4,5)             67.8157         estimate D2E/DX2                !
 ! D12   D(2,3,4,12)           -86.2687         estimate D2E/DX2                !
 ! D13   D(32,3,4,5)           -52.7864         estimate D2E/DX2                !
 ! D14   D(32,3,4,12)          153.1292         estimate D2E/DX2                !
 ! D15   D(33,3,4,5)          -170.823          estimate D2E/DX2                !
 ! D16   D(33,3,4,12)           35.0927         estimate D2E/DX2                !
 ! D17   D(3,4,5,6)           -162.3228         estimate D2E/DX2                !
 ! D18   D(12,4,5,6)            -4.6259         estimate D2E/DX2                !
 ! D19   D(3,4,12,7)           161.2637         estimate D2E/DX2                !
 ! D20   D(3,4,12,11)          -22.9197         estimate D2E/DX2                !
 ! D21   D(5,4,12,7)             3.8515         estimate D2E/DX2                !
 ! D22   D(5,4,12,11)          179.6681         estimate D2E/DX2                !
 ! D23   D(4,5,6,7)              3.2332         estimate D2E/DX2                !
 ! D24   D(5,6,7,8)           -179.4771         estimate D2E/DX2                !
 ! D25   D(5,6,7,12)            -0.6174         estimate D2E/DX2                !
 ! D26   D(6,7,8,9)            178.8092         estimate D2E/DX2                !
 ! D27   D(6,7,8,34)            -1.1381         estimate D2E/DX2                !
 ! D28   D(12,7,8,9)             0.0806         estimate D2E/DX2                !
 ! D29   D(12,7,8,34)         -179.8667         estimate D2E/DX2                !
 ! D30   D(6,7,12,4)            -2.0453         estimate D2E/DX2                !
 ! D31   D(6,7,12,11)         -178.5836         estimate D2E/DX2                !
 ! D32   D(8,7,12,4)           176.9926         estimate D2E/DX2                !
 ! D33   D(8,7,12,11)            0.4543         estimate D2E/DX2                !
 ! D34   D(7,8,9,10)            -0.4589         estimate D2E/DX2                !
 ! D35   D(7,8,9,35)           179.5948         estimate D2E/DX2                !
 ! D36   D(34,8,9,10)          179.4881         estimate D2E/DX2                !
 ! D37   D(34,8,9,35)           -0.4583         estimate D2E/DX2                !
 ! D38   D(8,9,10,11)            0.3219         estimate D2E/DX2                !
 ! D39   D(8,9,10,36)         -179.6917         estimate D2E/DX2                !
 ! D40   D(35,9,10,11)        -179.7316         estimate D2E/DX2                !
 ! D41   D(35,9,10,36)           0.2549         estimate D2E/DX2                !
 ! D42   D(9,10,11,12)           0.2139         estimate D2E/DX2                !
 ! D43   D(9,10,11,37)        -179.805          estimate D2E/DX2                !
 ! D44   D(36,10,11,12)       -179.7725         estimate D2E/DX2                !
 ! D45   D(36,10,11,37)          0.2086         estimate D2E/DX2                !
 ! D46   D(10,11,12,4)        -175.8391         estimate D2E/DX2                !
 ! D47   D(10,11,12,7)          -0.5871         estimate D2E/DX2                !
 ! D48   D(37,11,12,4)           4.1798         estimate D2E/DX2                !
 ! D49   D(37,11,12,7)         179.4319         estimate D2E/DX2                !
 ! D50   D(2,13,14,15)         -72.9503         estimate D2E/DX2                !
 ! D51   D(2,13,14,38)          49.5855         estimate D2E/DX2                !
 ! D52   D(2,13,14,39)         164.8986         estimate D2E/DX2                !
 ! D53   D(20,13,14,15)         99.2238         estimate D2E/DX2                !
 ! D54   D(20,13,14,38)       -138.2404         estimate D2E/DX2                !
 ! D55   D(20,13,14,39)        -22.9272         estimate D2E/DX2                !
 ! D56   D(2,13,20,21)         141.9148         estimate D2E/DX2                !
 ! D57   D(2,13,20,25)         -39.9591         estimate D2E/DX2                !
 ! D58   D(14,13,20,21)        -30.1972         estimate D2E/DX2                !
 ! D59   D(14,13,20,25)        147.9289         estimate D2E/DX2                !
 ! D60   D(13,14,15,16)        151.6888         estimate D2E/DX2                !
 ! D61   D(13,14,15,19)        -30.8699         estimate D2E/DX2                !
 ! D62   D(38,14,15,16)         29.2825         estimate D2E/DX2                !
 ! D63   D(38,14,15,19)       -153.2763         estimate D2E/DX2                !
 ! D64   D(39,14,15,16)        -86.0375         estimate D2E/DX2                !
 ! D65   D(39,14,15,19)         91.4038         estimate D2E/DX2                !
 ! D66   D(14,15,16,17)        177.7744         estimate D2E/DX2                !
 ! D67   D(14,15,16,40)         -1.8247         estimate D2E/DX2                !
 ! D68   D(19,15,16,17)         -0.0403         estimate D2E/DX2                !
 ! D69   D(19,15,16,40)       -179.6394         estimate D2E/DX2                !
 ! D70   D(14,15,19,18)       -177.6543         estimate D2E/DX2                !
 ! D71   D(14,15,19,42)          2.4333         estimate D2E/DX2                !
 ! D72   D(16,15,19,18)          0.0039         estimate D2E/DX2                !
 ! D73   D(16,15,19,42)       -179.9084         estimate D2E/DX2                !
 ! D74   D(15,16,17,18)          0.059          estimate D2E/DX2                !
 ! D75   D(15,16,17,41)       -179.7622         estimate D2E/DX2                !
 ! D76   D(40,16,17,18)        179.6476         estimate D2E/DX2                !
 ! D77   D(40,16,17,41)         -0.1736         estimate D2E/DX2                !
 ! D78   D(16,17,18,19)         -0.0495         estimate D2E/DX2                !
 ! D79   D(41,17,18,19)        179.777          estimate D2E/DX2                !
 ! D80   D(17,18,19,15)          0.0256         estimate D2E/DX2                !
 ! D81   D(17,18,19,42)        179.9404         estimate D2E/DX2                !
 ! D82   D(13,20,21,22)        177.8287         estimate D2E/DX2                !
 ! D83   D(13,20,21,43)         -2.2593         estimate D2E/DX2                !
 ! D84   D(25,20,21,22)         -0.3424         estimate D2E/DX2                !
 ! D85   D(25,20,21,43)        179.5696         estimate D2E/DX2                !
 ! D86   D(13,20,25,24)       -178.058          estimate D2E/DX2                !
 ! D87   D(13,20,25,46)          2.901          estimate D2E/DX2                !
 ! D88   D(21,20,25,24)          0.1092         estimate D2E/DX2                !
 ! D89   D(21,20,25,46)       -178.9318         estimate D2E/DX2                !
 ! D90   D(20,21,22,23)          0.6233         estimate D2E/DX2                !
 ! D91   D(20,21,22,44)       -178.5244         estimate D2E/DX2                !
 ! D92   D(43,21,22,23)       -179.2902         estimate D2E/DX2                !
 ! D93   D(43,21,22,44)          1.5621         estimate D2E/DX2                !
 ! D94   D(21,22,23,24)         -0.6578         estimate D2E/DX2                !
 ! D95   D(21,22,23,26)       -179.2178         estimate D2E/DX2                !
 ! D96   D(44,22,23,24)        178.4709         estimate D2E/DX2                !
 ! D97   D(44,22,23,26)         -0.0891         estimate D2E/DX2                !
 ! D98   D(22,23,24,25)          0.4248         estimate D2E/DX2                !
 ! D99   D(22,23,24,45)       -178.8081         estimate D2E/DX2                !
 ! D100  D(26,23,24,25)        179.0513         estimate D2E/DX2                !
 ! D101  D(26,23,24,45)         -0.1817         estimate D2E/DX2                !
 ! D102  D(22,23,26,27)        145.4808         estimate D2E/DX2                !
 ! D103  D(22,23,26,28)        -35.3516         estimate D2E/DX2                !
 ! D104  D(24,23,26,27)        -33.0972         estimate D2E/DX2                !
 ! D105  D(24,23,26,28)        146.0704         estimate D2E/DX2                !
 ! D106  D(23,24,25,20)         -0.1547         estimate D2E/DX2                !
 ! D107  D(23,24,25,46)        178.8979         estimate D2E/DX2                !
 ! D108  D(45,24,25,20)        179.0726         estimate D2E/DX2                !
 ! D109  D(45,24,25,46)         -1.8748         estimate D2E/DX2                !
 ! D110  D(23,26,28,29)        179.6831         estimate D2E/DX2                !
 ! D111  D(23,26,28,47)         -0.6597         estimate D2E/DX2                !
 ! D112  D(27,26,28,29)         -1.1476         estimate D2E/DX2                !
 ! D113  D(27,26,28,47)        178.5096         estimate D2E/DX2                !
 ! D114  D(26,28,29,30)       -140.6095         estimate D2E/DX2                !
 ! D115  D(26,28,29,31)        148.3677         estimate D2E/DX2                !
 ! D116  D(26,28,29,48)          3.7396         estimate D2E/DX2                !
 ! D117  D(47,28,29,30)         39.7281         estimate D2E/DX2                !
 ! D118  D(47,28,29,31)        -31.2948         estimate D2E/DX2                !
 ! D119  D(47,28,29,48)       -175.9228         estimate D2E/DX2                !
 ! D120  D(28,29,30,49)         -2.6355         estimate D2E/DX2                !
 ! D121  D(28,29,30,50)        139.5997         estimate D2E/DX2                !
 ! D122  D(48,29,30,49)       -144.7568         estimate D2E/DX2                !
 ! D123  D(48,29,30,50)         -2.5217         estimate D2E/DX2                !
 ! D124  D(28,29,31,51)       -139.9766         estimate D2E/DX2                !
 ! D125  D(28,29,31,52)          2.2227         estimate D2E/DX2                !
 ! D126  D(48,29,31,51)          2.4162         estimate D2E/DX2                !
 ! D127  D(48,29,31,52)        144.6154         estimate D2E/DX2                !
 ! D128  D(49,30,31,51)        142.4141         estimate D2E/DX2                !
 ! D129  D(49,30,31,52)         -0.1124         estimate D2E/DX2                !
 ! D130  D(50,30,31,51)         -0.1933         estimate D2E/DX2                !
 ! D131  D(50,30,31,52)       -142.7198         estimate D2E/DX2                !
 --------------------------------------------------------------------------------
 Trust Radius=3.00D-01 FncErr=1.00D-07 GrdErr=1.00D-07
 Number of steps in this run=    290 maximum allowed number of steps=    312.
 GradGradGradGradGradGradGradGradGradGradGradGradGradGradGradGradGradGrad

 Leave Link  103 at Fri Aug 26 15:21:26 2022, MaxMem=  209715200 cpu:       0.1
 (Enter /opt/gaussian/l202.exe)
 Stoichiometry    C23H21N5O2S
 Framework group  C1[X(C23H21N5O2S)]
 Deg. of freedom   150
 Full point group                 C1      NOp   1
 Largest Abelian subgroup         C1      NOp   1
 Largest concise Abelian subgroup C1      NOp   1
                         Standard orientation:                         
 ---------------------------------------------------------------------
 Center     Atomic      Atomic             Coordinates (Angstroms)
 Number     Number       Type             X           Y           Z
 ---------------------------------------------------------------------
      1          8           0        1.098953   -1.723789   -0.383228
      2          6           0        1.305096   -0.650113   -0.969144
      3          6           0        2.725225   -0.195485   -1.354369
      4          7           0        3.784363   -1.069230   -0.923818
      5          7           0        3.974009   -2.335082   -1.430836
      6          7           0        4.702605   -3.040127   -0.693530
      7          6           0        5.039950   -2.302545    0.489352
      8          6           0        5.812940   -2.595022    1.611620
      9          6           0        5.942274   -1.602205    2.578149
     10          6           0        5.330826   -0.346437    2.435790
     11          6           0        4.555764   -0.022572    1.326147
     12          6           0        4.404657   -1.008166    0.351161
     13          7           0        0.252470    0.197406   -1.342411
     14          6           0        0.527859    1.513075   -1.878960
     15          6           0        1.011641    2.537775   -0.911403
     16          6           0        1.858101    3.620152   -1.327159
     17          6           0        2.139706    4.468644   -0.280209
     18         16           0        1.408776    3.966024    1.134370
     19          6           0        0.702389    2.631397    0.431400
     20          6           0       -1.095360   -0.135572   -1.050895
     21          6           0       -2.016879    0.863253   -0.661502
     22          6           0       -3.348383    0.542769   -0.419526
     23          6           0       -3.794739   -0.774444   -0.544737
     24          6           0       -2.890817   -1.770948   -0.930618
     25          6           0       -1.558340   -1.464352   -1.180352
     26          6           0       -5.213534   -1.167745   -0.313527
     27          8           0       -5.753281   -2.077026   -0.975818
     28          7           0       -5.904550   -0.495135    0.678840
     29          6           0       -7.259699   -0.777483    0.984773
     30          6           0       -8.244522    0.327121    1.319858
     31          6           0       -7.805120   -0.627646    2.391685
     32          1           0        2.775583   -0.122406   -2.480510
     33          1           0        2.917656    0.819829   -0.899908
     34          1           0        6.300389   -3.573881    1.723605
     35          1           0        6.540494   -1.803549    3.479883
     36          1           0        5.469389    0.405587    3.228202
     37          1           0        4.085882    0.964291    1.225942
     38          1           0        1.295779    1.406219   -2.702518
     39          1           0       -0.416182    1.905026   -2.364597
     40          1           0        2.216145    3.739915   -2.351913
     41          1           0        2.756835    5.364045   -0.341819
     42          1           0        0.076716    1.929748    0.984685
     43          1           0       -1.692110    1.909496   -0.542999
     44          1           0       -4.043408    1.350244   -0.141902
     45          1           0       -3.249344   -2.807675   -1.048335
     46          1           0       -0.864140   -2.272589   -1.465139
     47          1           0       -5.445245    0.207962    1.204982
     48          1           0       -7.634424   -1.633841    0.374143
     49          1           0       -7.902203    1.375218    1.372054
     50          1           0       -9.266326    0.249939    0.908936
     51          1           0       -8.512409   -1.392746    2.756690
     52          1           0       -7.151353   -0.256211    3.200056
 ---------------------------------------------------------------------
 Rotational constants (GHZ):      0.2004360      0.0611564      0.0537112
 Leave Link  202 at Fri Aug 26 15:21:26 2022, MaxMem=  209715200 cpu:       0.0
 (Enter /opt/gaussian/l301.exe)
 Standard basis: 6-31G (6D, 7F)
 Ernie: Thresh=  0.10000D-02 Tol=  0.10000D-05 Strict=F.
 There are   325 symmetry adapted basis functions of A   symmetry.
 Integral buffers will be    131072 words long.
 Raffenetti 1 integral format.
 Two-electron integral symmetry is turned on.
   325 basis functions,   790 primitive gaussians,   325 cartesian basis functions
   113 alpha electrons      113 beta electrons
       nuclear repulsion energy      2959.7546131055 Hartrees.



 Warning!  S  atom   18 may be hypervalent but has no d functions.



 IExCor=    0 DFT=F Ex=HF Corr=None ExCW=0 ScaHFX=  1.000000
 ScaDFX=  1.000000  1.000000  1.000000  1.000000 ScalE2=  1.000000  1.000000
 IRadAn=      0 IRanWt=     -1 IRanGd=            0 ICorTp=0
 NAtoms=   52 NActive=   52 NUniq=   52 SFac= 1.00D+00 NAtFMM=   60 NAOKFM=F Big=F
 Leave Link  301 at Fri Aug 26 15:21:26 2022, MaxMem=  209715200 cpu:       0.2
 (Enter /opt/gaussian/l302.exe)
 NPDir=0 NMtPBC=     1 NCelOv=     1 NCel=       1 NClECP=     1 NCelD=      1
         NCelK=      1 NCelE2=     1 NClLst=     1 CellRange=     0.0.
 One-electron integrals computed using PRISM.
 NBasis=   325 RedAO= T  NBF=   325
 NBsUse=   325 1.00D-06 NBFU=   325
 Leave Link  302 at Fri Aug 26 15:21:26 2022, MaxMem=  209715200 cpu:       1.9
 (Enter /opt/gaussian/l303.exe)
 DipDrv:  MaxL=1.
 Leave Link  303 at Fri Aug 26 15:21:27 2022, MaxMem=  209715200 cpu:       0.4
 (Enter /opt/gaussian/l401.exe)
 Harris functional with IExCor=  205 diagonalized for initial guess.
 ExpMin= 1.17D-01 ExpMax= 2.19D+04 ExpMxC= 3.30D+03 IAcc=1 IRadAn=         1 AccDes= 0.00D+00
 HarFok:  IExCor=  205 AccDes= 0.00D+00 IRadAn=         1 IDoV= 1
 ScaDFX=  1.000000  1.000000  1.000000  1.000000
 FoFCou: FMM=F IPFlag=           0 FMFlag=      100000 FMFlg1=           0
         NFxFlg=           0 DoJE=T BraDBF=F KetDBF=T FulRan=T
         Omega=  0.000000  0.000000  1.000000  0.000000  0.000000 ICntrl=     500 IOpCl=  0
         NMat0=    1 NMatS0=    1 NMatT0=    0 NMatD0=    1 NMtDS0=    0 NMtDT0=    0
         I1Cent=           4 NGrid=           0.
 Petite list used in FoFCou.
 Harris En= -1703.18445243464    
 Initial guess orbital symmetries:
       Occupied  (A) (A) (A) (A) (A) (A) (A) (A) (A) (A) (A) (A)
                 (A) (A) (A) (A) (A) (A) (A) (A) (A) (A) (A) (A)
                 (A) (A) (A) (A) (A) (A) (A) (A) (A) (A) (A) (A)
                 (A) (A) (A) (A) (A) (A) (A) (A) (A) (A) (A) (A)
                 (A) (A) (A) (A) (A) (A) (A) (A) (A) (A) (A) (A)
                 (A) (A) (A) (A) (A) (A) (A) (A) (A) (A) (A) (A)
                 (A) (A) (A) (A) (A) (A) (A) (A) (A) (A) (A) (A)
                 (A) (A) (A) (A) (A) (A) (A) (A) (A) (A) (A) (A)
                 (A) (A) (A) (A) (A) (A) (A) (A) (A) (A) (A) (A)
                 (A) (A) (A) (A) (A)
       Virtual   (A) (A) (A) (A) (A) (A) (A) (A) (A) (A) (A) (A)
                 (A) (A) (A) (A) (A) (A) (A) (A) (A) (A) (A) (A)
                 (A) (A) (A) (A) (A) (A) (A) (A) (A) (A) (A) (A)
                 (A) (A) (A) (A) (A) (A) (A) (A) (A) (A) (A) (A)
                 (A) (A) (A) (A) (A) (A) (A) (A) (A) (A) (A) (A)
                 (A) (A) (A) (A) (A) (A) (A) (A) (A) (A) (A) (A)
                 (A) (A) (A) (A) (A) (A) (A) (A) (A) (A) (A) (A)
                 (A) (A) (A) (A) (A) (A) (A) (A) (A) (A) (A) (A)
                 (A) (A) (A) (A) (A) (A) (A) (A) (A) (A) (A) (A)
                 (A) (A) (A) (A) (A) (A) (A) (A) (A) (A) (A) (A)
                 (A) (A) (A) (A) (A) (A) (A) (A) (A) (A) (A) (A)
                 (A) (A) (A) (A) (A) (A) (A) (A) (A) (A) (A) (A)
                 (A) (A) (A) (A) (A) (A) (A) (A) (A) (A) (A) (A)
                 (A) (A) (A) (A) (A) (A) (A) (A) (A) (A) (A) (A)
                 (A) (A) (A) (A) (A) (A) (A) (A) (A) (A) (A) (A)
                 (A) (A) (A) (A) (A) (A) (A) (A) (A) (A) (A) (A)
                 (A) (A) (A) (A) (A) (A) (A) (A) (A) (A) (A) (A)
                 (A) (A) (A) (A) (A) (A) (A) (A)
 The electronic state of the initial guess is 1-A.
 Leave Link  401 at Fri Aug 26 15:21:27 2022, MaxMem=  209715200 cpu:       4.5
 (Enter /opt/gaussian/l502.exe)
 Closed shell SCF:
 Requested convergence on RMS density matrix=1.00D-08 within 128 cycles.
 Requested convergence on MAX density matrix=1.00D-06.
 Requested convergence on             energy=1.00D-06.
 No special actions if energy rises.
 Using DIIS extrapolation, IDIIS=  1040.
 Integral symmetry usage will be decided dynamically.
 IEnd=      340136 IEndB=      340136 NGot=   209715200 MDV=   209497655
 LenX=   209497655 LenY=   209391589
 Fock matrices will be formed incrementally for  20 cycles.
 Integral accuracy reduced to 1.0D-05 until final iterations.

 Cycle   1  Pass 0  IDiag  1:
 FoFCou: FMM=F IPFlag=           0 FMFlag=      100000 FMFlg1=           0
         NFxFlg=           0 DoJE=F BraDBF=F KetDBF=F FulRan=T
         Omega=  0.000000  0.000000  1.000000  0.000000  0.000000 ICntrl=       0 IOpCl=  0
         NMat0=    1 NMatS0=    1 NMatT0=    0 NMatD0=    1 NMtDS0=    0 NMtDT0=    0
         I1Cent=           0 NGrid=           0.
 Symmetry not used in FoFCou.
 E= -1700.95504611088    
 DIIS: error= 4.54D-02 at cycle   1 NSaved=   1.
 NSaved= 1 IEnMin= 1 EnMin= -1700.95504611088     IErMin= 1 ErrMin= 4.54D-02
 ErrMax= 4.54D-02 EMaxC= 1.00D-01 BMatC= 1.16D+00 BMatP= 1.16D+00
 IDIUse=3 WtCom= 5.46D-01 WtEn= 4.54D-01
 Coeff-Com:  0.100D+01
 Coeff-En:   0.100D+01
 Coeff:      0.100D+01
 Gap=     0.493 Goal=   None    Shift=    0.000
 GapD=    0.493 DampG=2.000 DampE=0.500 DampFc=1.0000 IDamp=-1.
 RMSDP=5.99D-03 MaxDP=1.63D-01              OVMax= 2.01D-01

 Cycle   2  Pass 0  IDiag  1:
 RMSU=  4.22D-03    CP:  9.78D-01
 E= -1701.71427153206     Delta-E=       -0.759225421180 Rises=F Damp=F
 DIIS: error= 1.78D-02 at cycle   2 NSaved=   2.
 NSaved= 2 IEnMin= 2 EnMin= -1701.71427153206     IErMin= 2 ErrMin= 1.78D-02
 ErrMax= 1.78D-02 EMaxC= 1.00D-01 BMatC= 2.45D-01 BMatP= 1.16D+00
 IDIUse=3 WtCom= 8.22D-01 WtEn= 1.78D-01
 Coeff-Com:  0.273D+00 0.727D+00
 Coeff-En:   0.000D+00 0.100D+01
 Coeff:      0.224D+00 0.776D+00
 Gap=     0.475 Goal=   None    Shift=    0.000
 RMSDP=2.72D-03 MaxDP=8.53D-02 DE=-7.59D-01 OVMax= 9.17D-02

 Cycle   3  Pass 0  IDiag  1:
 RMSU=  1.61D-03    CP:  9.77D-01  7.52D-01
 E= -1701.91987761552     Delta-E=       -0.205606083460 Rises=F Damp=F
 DIIS: error= 8.46D-03 at cycle   3 NSaved=   3.
 NSaved= 3 IEnMin= 3 EnMin= -1701.91987761552     IErMin= 3 ErrMin= 8.46D-03
 ErrMax= 8.46D-03 EMaxC= 1.00D-01 BMatC= 2.87D-02 BMatP= 2.45D-01
 IDIUse=3 WtCom= 9.15D-01 WtEn= 8.46D-02
 Coeff-Com:  0.455D-02 0.239D+00 0.757D+00
 Coeff-En:   0.000D+00 0.000D+00 0.100D+01
 Coeff:      0.417D-02 0.219D+00 0.777D+00
 Gap=     0.422 Goal=   None    Shift=    0.000
 RMSDP=7.54D-04 MaxDP=2.84D-02 DE=-2.06D-01 OVMax= 3.21D-02

 Cycle   4  Pass 0  IDiag  1:
 RMSU=  3.38D-04    CP:  9.78D-01  8.41D-01  8.96D-01
 E= -1701.94571333316     Delta-E=       -0.025835717637 Rises=F Damp=F
 DIIS: error= 2.61D-03 at cycle   4 NSaved=   4.
 NSaved= 4 IEnMin= 4 EnMin= -1701.94571333316     IErMin= 4 ErrMin= 2.61D-03
 ErrMax= 2.61D-03 EMaxC= 1.00D-01 BMatC= 2.73D-03 BMatP= 2.87D-02
 IDIUse=3 WtCom= 9.74D-01 WtEn= 2.61D-02
 Coeff-Com: -0.147D-01 0.215D-01 0.278D+00 0.715D+00
 Coeff-En:   0.000D+00 0.000D+00 0.000D+00 0.100D+01
 Coeff:     -0.144D-01 0.210D-01 0.271D+00 0.723D+00
 Gap=     0.415 Goal=   None    Shift=    0.000
 RMSDP=2.61D-04 MaxDP=8.90D-03 DE=-2.58D-02 OVMax= 1.14D-02

 Cycle   5  Pass 0  IDiag  1:
 RMSU=  1.36D-04    CP:  9.77D-01  8.35D-01  9.57D-01  7.94D-01
 E= -1701.94848822146     Delta-E=       -0.002774888301 Rises=F Damp=F
 DIIS: error= 8.61D-04 at cycle   5 NSaved=   5.
 NSaved= 5 IEnMin= 5 EnMin= -1701.94848822146     IErMin= 5 ErrMin= 8.61D-04
 ErrMax= 8.61D-04 EMaxC= 1.00D-01 BMatC= 1.40D-04 BMatP= 2.73D-03
 IDIUse=3 WtCom= 9.91D-01 WtEn= 8.61D-03
 Coeff-Com: -0.116D-02-0.173D-01-0.296D-01 0.543D-01 0.994D+00
 Coeff-En:   0.000D+00 0.000D+00 0.000D+00 0.000D+00 0.100D+01
 Coeff:     -0.115D-02-0.171D-01-0.294D-01 0.538D-01 0.994D+00
 Gap=     0.414 Goal=   None    Shift=    0.000
 RMSDP=1.09D-04 MaxDP=5.09D-03 DE=-2.77D-03 OVMax= 5.53D-03

 Cycle   6  Pass 0  IDiag  1:
 RMSU=  5.21D-05    CP:  9.77D-01  8.34D-01  9.84D-01  8.71D-01  1.18D+00
 E= -1701.94889490578     Delta-E=       -0.000406684319 Rises=F Damp=F
 DIIS: error= 4.52D-04 at cycle   6 NSaved=   6.
 NSaved= 6 IEnMin= 6 EnMin= -1701.94889490578     IErMin= 6 ErrMin= 4.52D-04
 ErrMax= 4.52D-04 EMaxC= 1.00D-01 BMatC= 3.71D-05 BMatP= 1.40D-04
 IDIUse=3 WtCom= 9.95D-01 WtEn= 4.52D-03
 Coeff-Com:  0.279D-02-0.880D-02-0.605D-01-0.156D+00 0.184D+00 0.104D+01
 Coeff-En:   0.000D+00 0.000D+00 0.000D+00 0.000D+00 0.000D+00 0.100D+01
 Coeff:      0.278D-02-0.876D-02-0.603D-01-0.155D+00 0.183D+00 0.104D+01
 Gap=     0.415 Goal=   None    Shift=    0.000
 RMSDP=6.70D-05 MaxDP=2.34D-03 DE=-4.07D-04 OVMax= 6.05D-03

 Cycle   7  Pass 0  IDiag  1:
 RMSU=  1.95D-05    CP:  9.77D-01  8.33D-01  9.95D-01  8.92D-01  1.45D+00
                    CP:  1.23D+00
 E= -1701.94901892986     Delta-E=       -0.000124024077 Rises=F Damp=F
 DIIS: error= 2.39D-04 at cycle   7 NSaved=   7.
 NSaved= 7 IEnMin= 7 EnMin= -1701.94901892986     IErMin= 7 ErrMin= 2.39D-04
 ErrMax= 2.39D-04 EMaxC= 1.00D-01 BMatC= 4.73D-06 BMatP= 3.71D-05
 IDIUse=3 WtCom= 9.98D-01 WtEn= 2.39D-03
 Coeff-Com:  0.407D-03 0.108D-02-0.941D-04-0.272D-01-0.991D-01 0.972D-01
 Coeff-Com:  0.103D+01
 Coeff-En:   0.000D+00 0.000D+00 0.000D+00 0.000D+00 0.000D+00 0.000D+00
 Coeff-En:   0.100D+01
 Coeff:      0.406D-03 0.108D-02-0.939D-04-0.271D-01-0.989D-01 0.969D-01
 Coeff:      0.103D+01
 Gap=     0.415 Goal=   None    Shift=    0.000
 RMSDP=2.27D-05 MaxDP=8.77D-04 DE=-1.24D-04 OVMax= 1.67D-03

 Cycle   8  Pass 0  IDiag  1:
 RMSU=  7.01D-06    CP:  9.77D-01  8.32D-01  9.98D-01  8.96D-01  1.51D+00
                    CP:  1.40D+00  1.28D+00
 E= -1701.94903453605     Delta-E=       -0.000015606193 Rises=F Damp=F
 DIIS: error= 5.85D-05 at cycle   8 NSaved=   8.
 NSaved= 8 IEnMin= 8 EnMin= -1701.94903453605     IErMin= 8 ErrMin= 5.85D-05
 ErrMax= 5.85D-05 EMaxC= 1.00D-01 BMatC= 9.56D-07 BMatP= 4.73D-06
 IDIUse=1 WtCom= 1.00D+00 WtEn= 0.00D+00
 Coeff-Com: -0.517D-03 0.219D-02 0.144D-01 0.263D-01-0.555D-01-0.214D+00
 Coeff-Com:  0.201D+00 0.103D+01
 Coeff:     -0.517D-03 0.219D-02 0.144D-01 0.263D-01-0.555D-01-0.214D+00
 Coeff:      0.201D+00 0.103D+01
 Gap=     0.415 Goal=   None    Shift=    0.000
 RMSDP=1.04D-05 MaxDP=4.24D-04 DE=-1.56D-05 OVMax= 7.79D-04

 Cycle   9  Pass 0  IDiag  1:
 RMSU=  2.95D-06    CP:  9.77D-01  8.31D-01  9.98D-01  8.95D-01  1.53D+00
                    CP:  1.46D+00  1.51D+00  1.19D+00
 E= -1701.94903751525     Delta-E=       -0.000002979202 Rises=F Damp=F
 DIIS: error= 3.24D-05 at cycle   9 NSaved=   9.
 NSaved= 9 IEnMin= 9 EnMin= -1701.94903751525     IErMin= 9 ErrMin= 3.24D-05
 ErrMax= 3.24D-05 EMaxC= 1.00D-01 BMatC= 1.26D-07 BMatP= 9.56D-07
 IDIUse=1 WtCom= 1.00D+00 WtEn= 0.00D+00
 Coeff-Com: -0.167D-03 0.441D-03 0.385D-02 0.864D-02-0.236D-02-0.649D-01
 Coeff-Com: -0.433D-01 0.245D+00 0.853D+00
 Coeff:     -0.167D-03 0.441D-03 0.385D-02 0.864D-02-0.236D-02-0.649D-01
 Coeff:     -0.433D-01 0.245D+00 0.853D+00
 Gap=     0.415 Goal=   None    Shift=    0.000
 RMSDP=2.45D-06 MaxDP=5.96D-05 DE=-2.98D-06 OVMax= 2.24D-04

 Initial convergence to 1.0D-05 achieved.  Increase integral accuracy.
 Cycle  10  Pass 1  IDiag  1:
 E= -1701.94904094149     Delta-E=       -0.000003426236 Rises=F Damp=F
 DIIS: error= 1.15D-04 at cycle   1 NSaved=   1.
 NSaved= 1 IEnMin= 1 EnMin= -1701.94904094149     IErMin= 1 ErrMin= 1.15D-04
 ErrMax= 1.15D-04 EMaxC= 1.00D-01 BMatC= 1.35D-06 BMatP= 1.35D-06
 IDIUse=3 WtCom= 9.99D-01 WtEn= 1.15D-03
 Coeff-Com:  0.100D+01
 Coeff-En:   0.100D+01
 Coeff:      0.100D+01
 Gap=     0.415 Goal=   None    Shift=    0.000
 RMSDP=2.45D-06 MaxDP=5.96D-05 DE=-3.43D-06 OVMax= 1.49D-04

 Cycle  11  Pass 1  IDiag  1:
 RMSU=  3.47D-05    CP:  1.00D+00
 E= -1701.94904235152     Delta-E=       -0.000001410028 Rises=F Damp=F
 DIIS: error= 8.09D-06 at cycle   2 NSaved=   2.
 NSaved= 2 IEnMin= 2 EnMin= -1701.94904235152     IErMin= 2 ErrMin= 8.09D-06
 ErrMax= 8.09D-06 EMaxC= 1.00D-01 BMatC= 1.47D-08 BMatP= 1.35D-06
 IDIUse=1 WtCom= 1.00D+00 WtEn= 0.00D+00
 Coeff-Com: -0.400D-01 0.104D+01
 Coeff:     -0.400D-01 0.104D+01
 Gap=     0.415 Goal=   None    Shift=    0.000
 RMSDP=2.79D-06 MaxDP=5.57D-05 DE=-1.41D-06 OVMax= 8.12D-05

 Cycle  12  Pass 1  IDiag  1:
 RMSU=  7.05D-07    CP:  1.00D+00  1.05D+00
 E= -1701.94904238992     Delta-E=       -0.000000038404 Rises=F Damp=F
 DIIS: error= 6.36D-06 at cycle   3 NSaved=   3.
 NSaved= 3 IEnMin= 3 EnMin= -1701.94904238992     IErMin= 3 ErrMin= 6.36D-06
 ErrMax= 6.36D-06 EMaxC= 1.00D-01 BMatC= 7.02D-09 BMatP= 1.47D-08
 IDIUse=1 WtCom= 1.00D+00 WtEn= 0.00D+00
 Coeff-Com: -0.205D-01 0.366D+00 0.655D+00
 Coeff:     -0.205D-01 0.366D+00 0.655D+00
 Gap=     0.415 Goal=   None    Shift=    0.000
 RMSDP=3.89D-07 MaxDP=9.57D-06 DE=-3.84D-08 OVMax= 3.33D-05

 Cycle  13  Pass 1  IDiag  1:
 RMSU=  2.66D-07    CP:  1.00D+00  1.05D+00  1.06D+00
 E= -1701.94904240209     Delta-E=       -0.000000012167 Rises=F Damp=F
 DIIS: error= 3.80D-06 at cycle   4 NSaved=   4.
 NSaved= 4 IEnMin= 4 EnMin= -1701.94904240209     IErMin= 4 ErrMin= 3.80D-06
 ErrMax= 3.80D-06 EMaxC= 1.00D-01 BMatC= 1.85D-09 BMatP= 7.02D-09
 IDIUse=1 WtCom= 1.00D+00 WtEn= 0.00D+00
 Coeff-Com:  0.240D-01-0.573D+00-0.271D+00 0.182D+01
 Coeff:      0.240D-01-0.573D+00-0.271D+00 0.182D+01
 Gap=     0.415 Goal=   None    Shift=    0.000
 RMSDP=6.09D-07 MaxDP=1.56D-05 DE=-1.22D-08 OVMax= 8.32D-05

 Cycle  14  Pass 1  IDiag  1:
 RMSU=  2.31D-07    CP:  1.00D+00  1.06D+00  1.46D+00  1.86D+00
 E= -1701.94904241460     Delta-E=       -0.000000012510 Rises=F Damp=F
 DIIS: error= 1.36D-06 at cycle   5 NSaved=   5.
 NSaved= 5 IEnMin= 5 EnMin= -1701.94904241460     IErMin= 5 ErrMin= 1.36D-06
 ErrMax= 1.36D-06 EMaxC= 1.00D-01 BMatC= 1.99D-10 BMatP= 1.85D-09
 IDIUse=1 WtCom= 1.00D+00 WtEn= 0.00D+00
 Coeff-Com:  0.589D-02-0.124D+00-0.152D+00 0.251D+00 0.102D+01
 Coeff:      0.589D-02-0.124D+00-0.152D+00 0.251D+00 0.102D+01
 Gap=     0.415 Goal=   None    Shift=    0.000
 RMSDP=1.78D-07 MaxDP=4.76D-06 DE=-1.25D-08 OVMax= 2.44D-05

 Cycle  15  Pass 1  IDiag  1:
 RMSU=  4.98D-08    CP:  1.00D+00  1.06D+00  1.52D+00  2.15D+00  1.31D+00
 E= -1701.94904241547     Delta-E=       -0.000000000874 Rises=F Damp=F
 DIIS: error= 3.33D-07 at cycle   6 NSaved=   6.
 NSaved= 6 IEnMin= 6 EnMin= -1701.94904241547     IErMin= 6 ErrMin= 3.33D-07
 ErrMax= 3.33D-07 EMaxC= 1.00D-01 BMatC= 3.55D-11 BMatP= 1.99D-10
 IDIUse=1 WtCom= 1.00D+00 WtEn= 0.00D+00
 Coeff-Com: -0.258D-02 0.663D-01-0.154D-02-0.228D+00 0.291D+00 0.875D+00
 Coeff:     -0.258D-02 0.663D-01-0.154D-02-0.228D+00 0.291D+00 0.875D+00
 Gap=     0.415 Goal=   None    Shift=    0.000
 RMSDP=4.87D-08 MaxDP=1.00D-06 DE=-8.74D-10 OVMax= 5.59D-06

 Cycle  16  Pass 1  IDiag  1:
 RMSU=  2.01D-08    CP:  1.00D+00  1.06D+00  1.52D+00  2.19D+00  1.42D+00
                    CP:  1.01D+00
 E= -1701.94904241557     Delta-E=       -0.000000000095 Rises=F Damp=F
 DIIS: error= 1.18D-07 at cycle   7 NSaved=   7.
 NSaved= 7 IEnMin= 7 EnMin= -1701.94904241557     IErMin= 7 ErrMin= 1.18D-07
 ErrMax= 1.18D-07 EMaxC= 1.00D-01 BMatC= 4.23D-12 BMatP= 3.55D-11
 IDIUse=1 WtCom= 1.00D+00 WtEn= 0.00D+00
 Coeff-Com: -0.594D-03 0.118D-01 0.123D-01-0.150D-01-0.137D+00-0.102D+00
 Coeff-Com:  0.123D+01
 Coeff:     -0.594D-03 0.118D-01 0.123D-01-0.150D-01-0.137D+00-0.102D+00
 Coeff:      0.123D+01
 Gap=     0.415 Goal=   None    Shift=    0.000
 RMSDP=2.23D-08 MaxDP=4.95D-07 DE=-9.55D-11 OVMax= 2.58D-06

 Cycle  17  Pass 1  IDiag  1:
 RMSU=  7.41D-09    CP:  1.00D+00  1.06D+00  1.52D+00  2.21D+00  1.44D+00
                    CP:  1.17D+00  1.39D+00
 E= -1701.94904241560     Delta-E=       -0.000000000030 Rises=F Damp=F
 DIIS: error= 9.32D-08 at cycle   8 NSaved=   8.
 NSaved= 8 IEnMin= 8 EnMin= -1701.94904241560     IErMin= 8 ErrMin= 9.32D-08
 ErrMax= 9.32D-08 EMaxC= 1.00D-01 BMatC= 1.23D-12 BMatP= 4.23D-12
 IDIUse=1 WtCom= 1.00D+00 WtEn= 0.00D+00
 Coeff-Com:  0.397D-03-0.113D-01 0.331D-02 0.511D-01-0.108D+00-0.250D+00
 Coeff-Com:  0.417D+00 0.897D+00
 Coeff:      0.397D-03-0.113D-01 0.331D-02 0.511D-01-0.108D+00-0.250D+00
 Coeff:      0.417D+00 0.897D+00
 Gap=     0.415 Goal=   None    Shift=    0.000
 RMSDP=8.38D-09 MaxDP=2.05D-07 DE=-3.00D-11 OVMax= 9.33D-07

 SCF Done:  E(RHF) =  -1701.94904242     A.U. after   17 cycles
             Convg  =    0.8379D-08             -V/T =  2.0000
 KE= 1.701900889496D+03 PE=-9.911606410037D+03 EE= 3.548001865020D+03
 Leave Link  502 at Fri Aug 26 15:22:43 2022, MaxMem=  209715200 cpu:     571.5
 (Enter /opt/gaussian/l601.exe)
 Copying SCF densities to generalized density rwf, IOpCl= 0 IROHF=0.

 **********************************************************************

            Population analysis using the SCF density.

 **********************************************************************

 Orbital symmetries:
       Occupied  (A) (A) (A) (A) (A) (A) (A) (A) (A) (A) (A) (A)
                 (A) (A) (A) (A) (A) (A) (A) (A) (A) (A) (A) (A)
                 (A) (A) (A) (A) (A) (A) (A) (A) (A) (A) (A) (A)
                 (A) (A) (A) (A) (A) (A) (A) (A) (A) (A) (A) (A)
                 (A) (A) (A) (A) (A) (A) (A) (A) (A) (A) (A) (A)
                 (A) (A) (A) (A) (A) (A) (A) (A) (A) (A) (A) (A)
                 (A) (A) (A) (A) (A) (A) (A) (A) (A) (A) (A) (A)
                 (A) (A) (A) (A) (A) (A) (A) (A) (A) (A) (A) (A)
                 (A) (A) (A) (A) (A) (A) (A) (A) (A) (A) (A) (A)
                 (A) (A) (A) (A) (A)
       Virtual   (A) (A) (A) (A) (A) (A) (A) (A) (A) (A) (A) (A)
                 (A) (A) (A) (A) (A) (A) (A) (A) (A) (A) (A) (A)
                 (A) (A) (A) (A) (A) (A) (A) (A) (A) (A) (A) (A)
                 (A) (A) (A) (A) (A) (A) (A) (A) (A) (A) (A) (A)
                 (A) (A) (A) (A) (A) (A) (A) (A) (A) (A) (A) (A)
                 (A) (A) (A) (A) (A) (A) (A) (A) (A) (A) (A) (A)
                 (A) (A) (A) (A) (A) (A) (A) (A) (A) (A) (A) (A)
                 (A) (A) (A) (A) (A) (A) (A) (A) (A) (A) (A) (A)
                 (A) (A) (A) (A) (A) (A) (A) (A) (A) (A) (A) (A)
                 (A) (A) (A) (A) (A) (A) (A) (A) (A) (A) (A) (A)
                 (A) (A) (A) (A) (A) (A) (A) (A) (A) (A) (A) (A)
                 (A) (A) (A) (A) (A) (A) (A) (A) (A) (A) (A) (A)
                 (A) (A) (A) (A) (A) (A) (A) (A) (A) (A) (A) (A)
                 (A) (A) (A) (A) (A) (A) (A) (A) (A) (A) (A) (A)
                 (A) (A) (A) (A) (A) (A) (A) (A) (A) (A) (A) (A)
                 (A) (A) (A) (A) (A) (A) (A) (A) (A) (A) (A) (A)
                 (A) (A) (A) (A) (A) (A) (A) (A) (A) (A) (A) (A)
                 (A) (A) (A) (A) (A) (A) (A) (A)
 The electronic state is 1-A.
 Alpha  occ. eigenvalues --  -92.00238 -20.56168 -20.52841 -15.67393 -15.65942
 Alpha  occ. eigenvalues --  -15.63426 -15.62585 -15.59486 -11.40304 -11.37559
 Alpha  occ. eigenvalues --  -11.33245 -11.32116 -11.31730 -11.30992 -11.29746
 Alpha  occ. eigenvalues --  -11.29335 -11.28509 -11.28248 -11.28222 -11.27473
 Alpha  occ. eigenvalues --  -11.27204 -11.26736 -11.26729 -11.26543 -11.26497
 Alpha  occ. eigenvalues --  -11.26455 -11.25893 -11.25425 -11.25297 -11.24060
 Alpha  occ. eigenvalues --  -11.23933  -9.02627  -6.70779  -6.70607  -6.70327
 Alpha  occ. eigenvalues --   -1.46643  -1.41788  -1.38468  -1.29682  -1.24841
 Alpha  occ. eigenvalues --   -1.24808  -1.23390  -1.17418  -1.17271  -1.13010
 Alpha  occ. eigenvalues --   -1.07759  -1.05894  -1.05212  -1.03984  -1.03643
 Alpha  occ. eigenvalues --   -1.02291  -1.01326  -0.95450  -0.90997  -0.88759
 Alpha  occ. eigenvalues --   -0.85883  -0.84940  -0.84355  -0.82554  -0.81713
 Alpha  occ. eigenvalues --   -0.80073  -0.79716  -0.78112  -0.76518  -0.74365
 Alpha  occ. eigenvalues --   -0.73262  -0.72208  -0.72023  -0.70918  -0.69290
 Alpha  occ. eigenvalues --   -0.67799  -0.65947  -0.65796  -0.64612  -0.64380
 Alpha  occ. eigenvalues --   -0.63797  -0.63103  -0.62566  -0.62166  -0.60727
 Alpha  occ. eigenvalues --   -0.60578  -0.60096  -0.59877  -0.58791  -0.58208
 Alpha  occ. eigenvalues --   -0.57284  -0.56461  -0.55225  -0.55186  -0.54269
 Alpha  occ. eigenvalues --   -0.53957  -0.53761  -0.53394  -0.51730  -0.51055
 Alpha  occ. eigenvalues --   -0.50960  -0.50764  -0.49894  -0.49837  -0.46927
 Alpha  occ. eigenvalues --   -0.45975  -0.43882  -0.43129  -0.42890  -0.41983
 Alpha  occ. eigenvalues --   -0.41608  -0.37317  -0.35839  -0.35330  -0.35173
 Alpha  occ. eigenvalues --   -0.34067  -0.32941  -0.32576
 Alpha virt. eigenvalues --    0.08929   0.09245   0.09964   0.12198   0.14060
 Alpha virt. eigenvalues --    0.15544   0.17178   0.18660   0.19347   0.19861
 Alpha virt. eigenvalues --    0.21303   0.21766   0.22266   0.23355   0.23612
 Alpha virt. eigenvalues --    0.23984   0.24124   0.25063   0.26185   0.27144
 Alpha virt. eigenvalues --    0.27585   0.28509   0.28896   0.29485   0.29992
 Alpha virt. eigenvalues --    0.30797   0.31235   0.32244   0.32407   0.32871
 Alpha virt. eigenvalues --    0.33080   0.33811   0.35031   0.35423   0.36091
 Alpha virt. eigenvalues --    0.36895   0.36936   0.38221   0.39143   0.39536
 Alpha virt. eigenvalues --    0.40889   0.41399   0.41988   0.42748   0.42998
 Alpha virt. eigenvalues --    0.43690   0.45242   0.46265   0.46447   0.46976
 Alpha virt. eigenvalues --    0.47239   0.48067   0.48939   0.50110   0.51232
 Alpha virt. eigenvalues --    0.51598   0.52639   0.53460   0.54629   0.55438
 Alpha virt. eigenvalues --    0.56854   0.57386   0.58523   0.61822   0.62760
 Alpha virt. eigenvalues --    0.62910   0.64689   0.69235   0.70528   0.71272
 Alpha virt. eigenvalues --    0.72504   0.73471   0.73620   0.74207   0.75090
 Alpha virt. eigenvalues --    0.75844   0.76135   0.76790   0.77408   0.77770
 Alpha virt. eigenvalues --    0.78531   0.78898   0.79346   0.80021   0.80963
 Alpha virt. eigenvalues --    0.81294   0.81941   0.82711   0.82888   0.83094
 Alpha virt. eigenvalues --    0.83657   0.83736   0.84277   0.84708   0.85152
 Alpha virt. eigenvalues --    0.85785   0.86136   0.86685   0.86760   0.87512
 Alpha virt. eigenvalues --    0.88313   0.88595   0.88774   0.89472   0.89927
 Alpha virt. eigenvalues --    0.90337   0.90845   0.91039   0.91455   0.92056
 Alpha virt. eigenvalues --    0.93551   0.94450   0.94899   0.95237   0.96319
 Alpha virt. eigenvalues --    0.96595   0.97463   0.98623   0.99023   1.00106
 Alpha virt. eigenvalues --    1.01314   1.01341   1.02047   1.03244   1.04215
 Alpha virt. eigenvalues --    1.06381   1.06661   1.07172   1.07854   1.08302
 Alpha virt. eigenvalues --    1.09965   1.10226   1.10432   1.10804   1.11656
 Alpha virt. eigenvalues --    1.11889   1.12122   1.12373   1.12877   1.13974
 Alpha virt. eigenvalues --    1.14062   1.14692   1.15608   1.16242   1.16936
 Alpha virt. eigenvalues --    1.17291   1.18125   1.18550   1.19564   1.20387
 Alpha virt. eigenvalues --    1.20887   1.21450   1.22357   1.22700   1.23182
 Alpha virt. eigenvalues --    1.23712   1.24247   1.25221   1.26177   1.26924
 Alpha virt. eigenvalues --    1.27643   1.28715   1.29692   1.31076   1.31646
 Alpha virt. eigenvalues --    1.32455   1.33488   1.33572   1.35711   1.36884
 Alpha virt. eigenvalues --    1.38196   1.38405   1.39834   1.40407   1.42109
 Alpha virt. eigenvalues --    1.42454   1.43079   1.44253   1.45912   1.47308
 Alpha virt. eigenvalues --    1.48469   1.50548   1.53406   1.53747   1.53939
 Alpha virt. eigenvalues --    1.55303   1.57818   1.58699   1.59052   1.61737
 Alpha virt. eigenvalues --    1.62767   1.63733   1.65352   1.66142   1.68711
 Alpha virt. eigenvalues --    1.70210   1.71851   1.73649   1.74758   1.78037
 Alpha virt. eigenvalues --    1.83751   1.88132   1.89564   1.93445   1.96300
 Alpha virt. eigenvalues --    2.00647   2.03802   2.14303   2.21843   2.24305
 Alpha virt. eigenvalues --    2.31040   2.32076
          Condensed to atoms (all electrons):
 Mulliken atomic charges:
              1
     1  O   -0.575812
     2  C    0.802032
     3  C   -0.148448
     4  N   -0.788159
     5  N    0.120376
     6  N   -0.311633
     7  C    0.034544
     8  C   -0.104565
     9  C   -0.233920
    10  C   -0.201314
    11  C   -0.123444
    12  C    0.380589
    13  N   -0.983930
    14  C   -0.134663
    15  C    0.022079
    16  C   -0.118124
    17  C   -0.595741
    18  S    0.582330
    19  C   -0.612390
    20  C    0.365139
    21  C   -0.246308
    22  C   -0.180330
    23  C   -0.119229
    24  C   -0.176426
    25  C   -0.166077
    26  C    0.775807
    27  O   -0.628777
    28  N   -0.895254
    29  C    0.049953
    30  C   -0.338268
    31  C   -0.341055
    32  H    0.243808
    33  H    0.241033
    34  H    0.247462
    35  H    0.210021
    36  H    0.212180
    37  H    0.231529
    38  H    0.193696
    39  H    0.230628
    40  H    0.226178
    41  H    0.253590
    42  H    0.269879
    43  H    0.230320
    44  H    0.221876
    45  H    0.269149
    46  H    0.271052
    47  H    0.373978
    48  H    0.257363
    49  H    0.168313
    50  H    0.183048
    51  H    0.184483
    52  H    0.171431
 Sum of Mulliken atomic charges =   0.00000
 Mulliken charges with hydrogens summed into heavy atoms:
              1
     1  O   -0.575812
     2  C    0.802032
     3  C    0.336393
     4  N   -0.788159
     5  N    0.120376
     6  N   -0.311633
     7  C    0.034544
     8  C    0.142898
     9  C   -0.023898
    10  C    0.010866
    11  C    0.108084
    12  C    0.380589
    13  N   -0.983930
    14  C    0.289660
    15  C    0.022079
    16  C    0.108054
    17  C   -0.342151
    18  S    0.582330
    19  C   -0.342511
    20  C    0.365139
    21  C   -0.015988
    22  C    0.041545
    23  C   -0.119229
    24  C    0.092724
    25  C    0.104975
    26  C    0.775807
    27  O   -0.628777
    28  N   -0.521275
    29  C    0.307316
    30  C    0.013093
    31  C    0.014859
 Sum of Mulliken charges with hydrogens summed into heavy atoms =   0.00000
 Electronic spatial extent (au):  <R**2>=          19745.4837
 Charge=              0.0000 electrons
 Dipole moment (field-independent basis, Debye):
    X=              1.4983    Y=              9.9781    Z=              2.5029  Tot=             10.3957
 Quadrupole moment (field-independent basis, Debye-Ang):
   XX=           -195.2183   YY=           -200.1225   ZZ=           -183.6671
   XY=              2.6215   XZ=             -5.4268   YZ=            -15.3567
 Traceless Quadrupole moment (field-independent basis, Debye-Ang):
   XX=             -2.2157   YY=             -7.1199   ZZ=              9.3356
   XY=              2.6215   XZ=             -5.4268   YZ=            -15.3567
 Octapole moment (field-independent basis, Debye-Ang**2):
  XXX=            -15.3580  YYY=             80.5958  ZZZ=              7.2624  XYY=             16.1775
  XXY=            133.1885  XXZ=            196.1264  XZZ=             37.8941  YZZ=             16.2050
  YYZ=             17.3545  XYZ=            -30.2286
 Hexadecapole moment (field-independent basis, Debye-Ang**3):
 XXXX=         -20056.8241 YYYY=          -4889.1609 ZZZZ=          -2006.5716 XXXY=           -318.5356
 XXXZ=            -96.0051 YYYX=            310.7380 YYYZ=           -145.8148 ZZZX=             37.4895
 ZZZY=            -48.9825 XXYY=          -4398.1767 XXZZ=          -3650.3716 YYZZ=          -1190.8374
 XXYZ=           -448.8290 YYXZ=             65.8685 ZZXY=              9.9141
 N-N= 2.959754613106D+03 E-N=-9.911606416517D+03  KE= 1.701900889496D+03
 No NMR shielding tensors so no spin-rotation constants.
 Leave Link  601 at Fri Aug 26 15:22:43 2022, MaxMem=  209715200 cpu:       1.4
 (Enter /opt/gaussian/l701.exe)
 Compute integral first derivatives.
 ... and contract with generalized density number  0.
 Leave Link  701 at Fri Aug 26 15:22:43 2022, MaxMem=  209715200 cpu:       1.2
 (Enter /opt/gaussian/l702.exe)
 L702 exits ... SP integral derivatives will be done elsewhere.
 Leave Link  702 at Fri Aug 26 15:22:43 2022, MaxMem=  209715200 cpu:       0.2
 (Enter /opt/gaussian/l703.exe)
 Compute integral first derivatives, UseDBF=F ICtDFT=           0.
 Integral derivatives from FoFDir, PRISM(SPDF).
 Calling FoFJK, ICntrl=      2127 FMM=F ISym2X=0 I1Cent= 0 IOpClX= 0 NMat=1 NMatS=1 NMatT=0.
 FoFCou: FMM=F IPFlag=           0 FMFlag=      100000 FMFlg1=         800
         NFxFlg=           0 DoJE=F BraDBF=F KetDBF=F FulRan=T
         Omega=  0.000000  0.000000  1.000000  0.000000  0.000000 ICntrl=    2127 IOpCl=  0
         NMat0=    1 NMatS0=    1 NMatT0=    0 NMatD0=    1 NMtDS0=    0 NMtDT0=    0
         I1Cent=           0 NGrid=           0.
 Symmetry not used in FoFCou.
 Leave Link  703 at Fri Aug 26 15:23:12 2022, MaxMem=  209715200 cpu:     218.6
 (Enter /opt/gaussian/l716.exe)
 Dipole        = 5.89466814D-01 3.92566920D+00 9.84705614D-01
 ***** Axes restored to original set *****
 -------------------------------------------------------------------
 Center     Atomic                   Forces (Hartrees/Bohr)
 Number     Number              X              Y              Z
 -------------------------------------------------------------------
      1        8           0.025057515   -0.027019402    0.009724083
      2        6          -0.022076413    0.016982132   -0.006437121
      3        6           0.010597625   -0.020154342    0.019947744
      4        7          -0.001518454    0.014053222   -0.053181466
      5        7          -0.002166851   -0.011838986    0.013102471
      6        7           0.009883460   -0.005508732   -0.029430574
      7        6          -0.008690983   -0.046379343    0.013852348
      8        6          -0.001101551    0.011121851    0.004787508
      9        6           0.005273833    0.010616517   -0.009610172
     10        6           0.002154755   -0.008978726   -0.008890336
     11        6          -0.003440134   -0.010751520    0.003197470
     12        6           0.003012229    0.040756803    0.022783545
     13        7           0.009736376    0.017874304   -0.011935368
     14        6           0.003227655   -0.016900674    0.042719695
     15        6           0.002146868   -0.005914327   -0.024408654
     16        6           0.008021852   -0.008139528   -0.008723060
     17        6           0.041281608   -0.016015282    0.073380009
     18       16           0.009009304   -0.021621572   -0.092425417
     19        6          -0.048014528    0.044780731    0.057090410
     20        6          -0.026145683    0.002661248   -0.002892280
     21        6           0.014135938   -0.001441295    0.001625433
     22        6          -0.004445887   -0.005804126   -0.004414050
     23        6           0.001409776    0.000109926   -0.000519813
     24        6          -0.005349892    0.006243850    0.003950179
     25        6           0.007700274    0.008432535    0.005229371
     26        6          -0.024246461   -0.002761138   -0.002289735
     27        8           0.017738240   -0.009718460   -0.018443146
     28        7           0.017774192    0.011260960    0.021119891
     29        6          -0.031090152    0.006415733    0.009385290
     30        6          -0.006650703   -0.021538783    0.012198795
     31        6          -0.005259477    0.017440058   -0.017332618
     32        1          -0.002077993    0.003404466   -0.030130778
     33        1          -0.011773448    0.022585592    0.021600810
     34        1          -0.002194234   -0.019780485   -0.000297827
     35        1          -0.007804485   -0.009525277    0.015979871
     36        1          -0.006368918    0.009678579    0.016476579
     37        1           0.002074080    0.018072413   -0.000598242
     38        1          -0.021321815   -0.011218210   -0.019594977
     39        1           0.019868949    0.024763330   -0.007114843
     40        1          -0.003948951    0.000388828   -0.015826516
     41        1          -0.014587087    0.009798788   -0.002391264
     42        1           0.016553087   -0.009197625    0.003583573
     43        1          -0.013858305    0.016783889    0.006433797
     44        1           0.006543330    0.016939434    0.007655394
     45        1           0.013863578   -0.017590474   -0.005569350
     46        1          -0.008307912   -0.023152465   -0.009484534
     47        1           0.002261050    0.002816954   -0.000477593
     48        1           0.017224282   -0.017287114   -0.022055060
     49        1          -0.009286349    0.017715100    0.004390480
     50        1           0.017420692    0.007247403   -0.008877775
     51        1           0.017581938   -0.010106350    0.005137289
     52        1          -0.009825823   -0.000600410    0.018000533
 -------------------------------------------------------------------
 Cartesian Forces:  Max     0.092425417 RMS     0.019228507
 Leave Link  716 at Fri Aug 26 15:23:12 2022, MaxMem=  209715200 cpu:       0.2
 (Enter /opt/gaussian/l103.exe)

 GradGradGradGradGradGradGradGradGradGradGradGradGradGradGradGradGradGrad
 Berny optimization.
 Internal  Forces:  Max     0.062533921 RMS     0.010693935
 Search for a local minimum.
 Step number   1 out of a maximum of  290
 All quantities printed in internal units (Hartrees-Bohrs-Radians)
 RMS Force = .10694D-01 SwitMx=.10000D-02 MixMth= 1
 Mixed Optimization -- RFO/linear search
 Second derivative matrix not updated -- first step.
 ITU=  0
     Eigenvalues ---    0.00236   0.00808   0.00894   0.00898   0.01066
     Eigenvalues ---    0.01177   0.01384   0.01400   0.01445   0.01458
     Eigenvalues ---    0.01515   0.01579   0.01641   0.01665   0.01672
     Eigenvalues ---    0.01721   0.01744   0.01770   0.01794   0.01905
     Eigenvalues ---    0.01907   0.01958   0.01965   0.02043   0.02050
     Eigenvalues ---    0.02058   0.02072   0.02094   0.02127   0.02129
     Eigenvalues ---    0.02130   0.02136   0.02169   0.02176   0.02180
     Eigenvalues ---    0.02183   0.02186   0.02248   0.02280   0.02307
     Eigenvalues ---    0.02677   0.03075   0.03087   0.03470   0.03849
     Eigenvalues ---    0.04734   0.04798   0.06488   0.06574   0.10174
     Eigenvalues ---    0.10241   0.10308   0.10692   0.10933   0.13467
     Eigenvalues ---    0.13685   0.15998   0.15998   0.15999   0.15999
     Eigenvalues ---    0.16000   0.16000   0.16000   0.16000   0.16000
     Eigenvalues ---    0.16000   0.16000   0.16000   0.16000   0.16068
     Eigenvalues ---    0.17326   0.22000   0.22000   0.22000   0.22061
     Eigenvalues ---    0.22154   0.22509   0.22575   0.22869   0.22961
     Eigenvalues ---    0.23491   0.23995   0.24418   0.24551   0.24798
     Eigenvalues ---    0.24858   0.24957   0.24972   0.24986   0.24992
     Eigenvalues ---    0.24993   0.24998   0.25000   0.25000   0.26644
     Eigenvalues ---    0.26938   0.28512   0.30409   0.30465   0.30607
     Eigenvalues ---    0.30678   0.31269   0.31918   0.33240   0.33241
     Eigenvalues ---    0.33242   0.33263   0.33323   0.33370   0.33412
     Eigenvalues ---    0.33445   0.33475   0.33549   0.33574   0.33605
     Eigenvalues ---    0.33767   0.33949   0.34572   0.34717   0.34904
     Eigenvalues ---    0.34998   0.37746   0.38060   0.38136   0.38599
     Eigenvalues ---    0.39730   0.40157   0.40797   0.41461   0.41656
     Eigenvalues ---    0.42668   0.42782   0.42816   0.43192   0.44517
     Eigenvalues ---    0.45044   0.45289   0.46080   0.46127   0.46345
     Eigenvalues ---    0.46820   0.46867   0.47264   0.47816   0.48427
     Eigenvalues ---    0.48983   0.49302   0.77515   0.84093   0.86890
 RFO step:  Lambda=-7.40430380D-02 EMin= 2.35739447D-03
 Linear search not attempted -- first point.
 Maximum step size (   0.300) exceeded in Quadratic search.
    -- Step size scaled by   0.725
 Iteration  1 RMS(Cart)=  0.06660047 RMS(Int)=  0.00068965
 Iteration  2 RMS(Cart)=  0.00181165 RMS(Int)=  0.00007919
 Iteration  3 RMS(Cart)=  0.00000140 RMS(Int)=  0.00007918
 Iteration  4 RMS(Cart)=  0.00000000 RMS(Int)=  0.00007918
 Variable       Old X    -DE/DX   Delta X   Delta X   Delta X     New X
                                 (Linear)    (Quad)   (Total)
    R1        2.34400  -0.03722   0.00000  -0.02860  -0.02860   2.31540
    R2        2.91033  -0.01398   0.00000  -0.02821  -0.02821   2.88212
    R3        2.64942  -0.01674   0.00000  -0.02302  -0.02302   2.62640
    R4        2.71922  -0.00988   0.00000  -0.01519  -0.01519   2.70404
    R5        2.13470  -0.03026   0.00000  -0.05768  -0.05768   2.07702
    R6        2.13332  -0.03303   0.00000  -0.06284  -0.06284   2.07048
    R7        2.60166  -0.01037   0.00000  -0.01208  -0.01210   2.58956
    R8        2.68186  -0.03248   0.00000  -0.04842  -0.04842   2.63344
    R9        2.36900  -0.00313   0.00000  -0.00138  -0.00141   2.36759
   R10        2.71032  -0.02615   0.00000  -0.03934  -0.03932   2.67100
   R11        2.63381  -0.01164   0.00000  -0.01637  -0.01635   2.61746
   R12        2.73724  -0.04606   0.00000  -0.07657  -0.07650   2.66074
   R13        2.62977  -0.01117   0.00000  -0.01415  -0.01416   2.61561
   R14        2.07725  -0.01990   0.00000  -0.03502  -0.03502   2.04223
   R15        2.65309  -0.00732   0.00000  -0.00866  -0.00869   2.64440
   R16        2.08001  -0.02017   0.00000  -0.03564  -0.03564   2.04437
   R17        2.62999  -0.01000   0.00000  -0.01253  -0.01255   2.61744
   R18        2.08098  -0.02014   0.00000  -0.03563  -0.03563   2.04535
   R19        2.63536  -0.00930   0.00000  -0.01319  -0.01318   2.62218
   R20        2.07417  -0.01814   0.00000  -0.03178  -0.03178   2.04239
   R21        2.73502   0.01538   0.00000   0.02422   0.02422   2.75924
   R22        2.68082   0.00984   0.00000   0.01424   0.01424   2.69506
   R23        2.81577   0.01509   0.00000   0.02677   0.02677   2.84253
   R24        2.13745  -0.03058   0.00000  -0.05850  -0.05850   2.07895
   R25        2.13855  -0.03199   0.00000  -0.06130  -0.06130   2.07725
   R26        2.71285   0.00576   0.00000   0.00505   0.00488   2.71773
   R27        2.60996  -0.01830   0.00000  -0.02442  -0.02451   2.58545
   R28        2.60161  -0.01909   0.00000  -0.02562  -0.02567   2.57595
   R29        2.06375  -0.01600   0.00000  -0.02762  -0.02762   2.03613
   R30        3.15529   0.05620   0.00000   0.08876   0.08890   3.24419
   R31        2.05832  -0.01734   0.00000  -0.02970  -0.02970   2.02862
   R32        3.14762   0.06253   0.00000   0.09780   0.09791   3.24552
   R33        2.06136  -0.01879   0.00000  -0.03233  -0.03233   2.02904
   R34        2.67146  -0.01907   0.00000  -0.02740  -0.02740   2.64406
   R35        2.67031  -0.01657   0.00000  -0.02384  -0.02384   2.64648
   R36        2.62812  -0.00662   0.00000  -0.00873  -0.00873   2.61939
   R37        2.08225  -0.02268   0.00000  -0.04020  -0.04020   2.04206
   R38        2.63883  -0.01154   0.00000  -0.01534  -0.01534   2.62349
   R39        2.08054  -0.01969   0.00000  -0.03482  -0.03482   2.04573
   R40        2.64494  -0.01132   0.00000  -0.01524  -0.01524   2.62970
   R41        2.81634  -0.00375   0.00000  -0.00666  -0.00666   2.80968
   R42        2.62656  -0.00915   0.00000  -0.01216  -0.01216   2.61440
   R43        2.08488  -0.02307   0.00000  -0.04104  -0.04104   2.04384
[...]
 ! D120  D(28,29,30,49)          1.0413         -DE/DX =    0.0                 !
 ! D121  D(28,29,30,50)        143.5969         -DE/DX =    0.0                 !
 ! D122  D(48,29,30,49)       -143.6798         -DE/DX =    0.0                 !
 ! D123  D(48,29,30,50)         -1.1242         -DE/DX =    0.0                 !
 ! D124  D(28,29,31,51)       -141.4408         -DE/DX =    0.0                 !
 ! D125  D(28,29,31,52)          2.0064         -DE/DX =    0.0                 !
 ! D126  D(48,29,31,51)          2.2571         -DE/DX =    0.0                 !
 ! D127  D(48,29,31,52)        145.7043         -DE/DX =    0.0                 !
 ! D128  D(49,30,31,51)        145.5964         -DE/DX =    0.0                 !
 ! D129  D(49,30,31,52)          0.6899         -DE/DX =    0.0                 !
 ! D130  D(50,30,31,51)         -0.0931         -DE/DX =    0.0                 !
 ! D131  D(50,30,31,52)       -144.9995         -DE/DX =    0.0                 !
 --------------------------------------------------------------------------------
 GradGradGradGradGradGradGradGradGradGradGradGradGradGradGradGradGradGrad

 Largest change from initial coordinates is atom   49       1.918 Angstoms.
 Leave Link  103 at Fri Aug 26 16:10:19 2022, MaxMem=  209715200 cpu:       0.8
 (Enter /opt/gaussian/l202.exe)
 Stoichiometry    C23H21N5O2S
 Framework group  C1[X(C23H21N5O2S)]
 Deg. of freedom   150
 Full point group                 C1      NOp   1
 RotChk:  IX=0 Diff= 5.01D-16
 Largest Abelian subgroup         C1      NOp   1
 Largest concise Abelian subgroup C1      NOp   1
                         Standard orientation:                         
 ---------------------------------------------------------------------
 Center     Atomic      Atomic             Coordinates (Angstroms)
 Number     Number       Type             X           Y           Z
 ---------------------------------------------------------------------
      1          8           0        1.208117   -1.453248   -0.069625
      2          6           0        1.334482   -0.423970   -0.712652
      3          6           0        2.710719    0.026088   -1.188370
      4          7           0        3.728659   -0.925144   -0.867912
      5          7           0        4.164277   -1.790603   -1.828158
      6          7           0        5.029382   -2.572458   -1.331883
      7          6           0        5.200984   -2.260341    0.007572
      8          6           0        6.035404   -2.824912    0.971265
      9          6           0        5.988471   -2.289851    2.235160
     10          6           0        5.124617   -1.213829    2.538435
     11          6           0        4.297051   -0.653566    1.594830
     12          6           0        4.354234   -1.201761    0.311001
     13          7           0        0.267870    0.377643   -1.043339
     14          6           0        0.442054    1.685331   -1.681214
     15          6           0        0.871735    2.798572   -0.754126
     16          6           0        1.230281    4.106324   -1.267491
     17          6           0        1.580130    4.986330   -0.317810
     18         16           0        1.498050    4.266146    1.315484
     19          6           0        0.963103    2.722675    0.585353
     20          6           0       -1.070589   -0.062402   -0.772299
     21          6           0       -1.978698    0.802996   -0.177134
     22          6           0       -3.288506    0.401133    0.036630
     23          6           0       -3.707057   -0.869085   -0.335141
     24          6           0       -2.794839   -1.725910   -0.943550
     25          6           0       -1.488575   -1.331923   -1.159751
     26          6           0       -5.104582   -1.352767   -0.143240
     27          8           0       -5.576753   -2.229412   -0.864033
     28          7           0       -5.816860   -0.794607    0.869391
     29          6           0       -7.171202   -1.171668    1.146220
     30          6           0       -8.267346   -0.652727    0.267502
     31          6           0       -8.102221   -0.109255    1.662282
     32          1           0        2.712372    0.125437   -2.263757
     33          1           0        2.960144    0.987373   -0.760851
     34          1           0        6.680358   -3.642745    0.720776
     35          1           0        6.610312   -2.690832    3.010857
     36          1           0        5.113511   -0.828222    3.539444
     37          1           0        3.636013    0.153006    1.840321
     38          1           0        1.152392    1.607137   -2.495264
     39          1           0       -0.502634    1.943316   -2.139022
     40          1           0        1.217068    4.348110   -2.311618
     41          1           0        1.883390    6.001776   -0.437256
     42          1           0        0.748951    1.887163    1.213398
     43          1           0       -1.673358    1.785857    0.119829
     44          1           0       -3.977061    1.099418    0.471322
     45          1           0       -3.124995   -2.696453   -1.253080
     46          1           0       -0.794596   -2.008793   -1.610637
     47          1           0       -5.342659   -0.252320    1.550401
     48          1           0       -7.285736   -2.166662    1.531161
     49          1           0       -7.982528   -0.025410   -0.553102
     50          1           0       -9.091913   -1.304479    0.056878
     51          1           0       -8.813097   -0.383365    2.416996
     52          1           0       -7.716854    0.886929    1.767209
 ---------------------------------------------------------------------
 Rotational constants (GHZ):      0.1897269      0.0619757      0.0525128
 Leave Link  202 at Fri Aug 26 16:10:19 2022, MaxMem=  209715200 cpu:       0.0
 (Enter /opt/gaussian/l601.exe)
 Copying SCF densities to generalized density rwf, IOpCl= 0 IROHF=0.

 **********************************************************************

            Population analysis using the SCF density.

 **********************************************************************

 Orbital symmetries:
       Occupied  (A) (A) (A) (A) (A) (A) (A) (A) (A) (A) (A) (A)
                 (A) (A) (A) (A) (A) (A) (A) (A) (A) (A) (A) (A)
                 (A) (A) (A) (A) (A) (A) (A) (A) (A) (A) (A) (A)
                 (A) (A) (A) (A) (A) (A) (A) (A) (A) (A) (A) (A)
                 (A) (A) (A) (A) (A) (A) (A) (A) (A) (A) (A) (A)
                 (A) (A) (A) (A) (A) (A) (A) (A) (A) (A) (A) (A)
                 (A) (A) (A) (A) (A) (A) (A) (A) (A) (A) (A) (A)
                 (A) (A) (A) (A) (A) (A) (A) (A) (A) (A) (A) (A)
                 (A) (A) (A) (A) (A) (A) (A) (A) (A) (A) (A) (A)
                 (A) (A) (A) (A) (A)
       Virtual   (A) (A) (A) (A) (A) (A) (A) (A) (A) (A) (A) (A)
                 (A) (A) (A) (A) (A) (A) (A) (A) (A) (A) (A) (A)
                 (A) (A) (A) (A) (A) (A) (A) (A) (A) (A) (A) (A)
                 (A) (A) (A) (A) (A) (A) (A) (A) (A) (A) (A) (A)
                 (A) (A) (A) (A) (A) (A) (A) (A) (A) (A) (A) (A)
                 (A) (A) (A) (A) (A) (A) (A) (A) (A) (A) (A) (A)
                 (A) (A) (A) (A) (A) (A) (A) (A) (A) (A) (A) (A)
                 (A) (A) (A) (A) (A) (A) (A) (A) (A) (A) (A) (A)
                 (A) (A) (A) (A) (A) (A) (A) (A) (A) (A) (A) (A)
                 (A) (A) (A) (A) (A) (A) (A) (A) (A) (A) (A) (A)
                 (A) (A) (A) (A) (A) (A) (A) (A) (A) (A) (A) (A)
                 (A) (A) (A) (A) (A) (A) (A) (A) (A) (A) (A) (A)
                 (A) (A) (A) (A) (A) (A) (A) (A) (A) (A) (A) (A)
                 (A) (A) (A) (A) (A) (A) (A) (A) (A) (A) (A) (A)
                 (A) (A) (A) (A) (A) (A) (A) (A) (A) (A) (A) (A)
                 (A) (A) (A) (A) (A) (A) (A) (A) (A) (A) (A) (A)
                 (A) (A) (A) (A) (A) (A) (A) (A) (A) (A) (A) (A)
                 (A) (A) (A) (A) (A) (A) (A) (A)
 The electronic state is 1-A.
 Alpha  occ. eigenvalues --  -91.99268 -20.55661 -20.52787 -15.66584 -15.65700
 Alpha  occ. eigenvalues --  -15.62939 -15.61410 -15.59156 -11.39488 -11.36893
 Alpha  occ. eigenvalues --  -11.31720 -11.31593 -11.30965 -11.30161 -11.29722
 Alpha  occ. eigenvalues --  -11.29700 -11.28569 -11.27659 -11.27238 -11.26724
 Alpha  occ. eigenvalues --  -11.26558 -11.26152 -11.25759 -11.25615 -11.25469
 Alpha  occ. eigenvalues --  -11.25434 -11.25324 -11.25015 -11.24266 -11.23777
 Alpha  occ. eigenvalues --  -11.23035  -9.01047  -6.69177  -6.69043  -6.68781
 Alpha  occ. eigenvalues --   -1.47712  -1.42963  -1.39710  -1.29496  -1.25295
 Alpha  occ. eigenvalues --   -1.25209  -1.20545  -1.18080  -1.17900  -1.13878
 Alpha  occ. eigenvalues --   -1.07422  -1.06663  -1.05810  -1.04451  -1.03796
 Alpha  occ. eigenvalues --   -1.02015  -1.01573  -0.95757  -0.91024  -0.89042
 Alpha  occ. eigenvalues --   -0.86719  -0.85461  -0.84768  -0.84148  -0.82230
 Alpha  occ. eigenvalues --   -0.80884  -0.79072  -0.77992  -0.76458  -0.74918
 Alpha  occ. eigenvalues --   -0.74083  -0.72876  -0.72577  -0.71214  -0.70492
 Alpha  occ. eigenvalues --   -0.69292  -0.67205  -0.65843  -0.65662  -0.64982
 Alpha  occ. eigenvalues --   -0.64526  -0.63858  -0.62882  -0.62431  -0.61673
 Alpha  occ. eigenvalues --   -0.61280  -0.60873  -0.60508  -0.59767  -0.58819
 Alpha  occ. eigenvalues --   -0.57824  -0.55602  -0.55425  -0.53883  -0.53801
 Alpha  occ. eigenvalues --   -0.53519  -0.53474  -0.53106  -0.52335  -0.51858
 Alpha  occ. eigenvalues --   -0.51202  -0.50782  -0.49660  -0.48725  -0.45455
 Alpha  occ. eigenvalues --   -0.45144  -0.43716  -0.43423  -0.42483  -0.42419
 Alpha  occ. eigenvalues --   -0.41742  -0.38158  -0.37120  -0.36199  -0.35502
 Alpha  occ. eigenvalues --   -0.33912  -0.33760  -0.32295
 Alpha virt. eigenvalues --    0.09193   0.09660   0.10067   0.12444   0.15541
 Alpha virt. eigenvalues --    0.15832   0.16480   0.18283   0.20294   0.21041
 Alpha virt. eigenvalues --    0.22021   0.22468   0.23101   0.23240   0.24192
 Alpha virt. eigenvalues --    0.25015   0.25430   0.25707   0.26405   0.26584
 Alpha virt. eigenvalues --    0.28106   0.28994   0.29441   0.29847   0.30323
 Alpha virt. eigenvalues --    0.31293   0.31692   0.32008   0.32281   0.33055
 Alpha virt. eigenvalues --    0.33203   0.33827   0.35227   0.36487   0.37105
 Alpha virt. eigenvalues --    0.37340   0.37675   0.39866   0.40414   0.41019
 Alpha virt. eigenvalues --    0.41551   0.42131   0.42421   0.42457   0.43956
 Alpha virt. eigenvalues --    0.44351   0.45674   0.46011   0.46392   0.47284
 Alpha virt. eigenvalues --    0.48016   0.48611   0.49684   0.51358   0.52426
 Alpha virt. eigenvalues --    0.53060   0.53211   0.53497   0.54032   0.56285
 Alpha virt. eigenvalues --    0.57626   0.58918   0.59018   0.60913   0.61481
 Alpha virt. eigenvalues --    0.63061   0.64146   0.70806   0.71335   0.72679
 Alpha virt. eigenvalues --    0.72979   0.73481   0.74022   0.74314   0.74779
 Alpha virt. eigenvalues --    0.75364   0.76262   0.77131   0.77462   0.77964
 Alpha virt. eigenvalues --    0.78587   0.79128   0.79900   0.80495   0.81514
 Alpha virt. eigenvalues --    0.81737   0.82479   0.82939   0.83044   0.83312
 Alpha virt. eigenvalues --    0.83682   0.84084   0.84534   0.85198   0.85606
 Alpha virt. eigenvalues --    0.85987   0.86473   0.86624   0.87188   0.87822
 Alpha virt. eigenvalues --    0.88457   0.88671   0.89547   0.90238   0.90615
 Alpha virt. eigenvalues --    0.91142   0.91478   0.91734   0.91994   0.93712
 Alpha virt. eigenvalues --    0.94171   0.94967   0.95343   0.95630   0.96371
 Alpha virt. eigenvalues --    0.97441   0.98069   0.98791   0.99753   1.00274
 Alpha virt. eigenvalues --    1.00948   1.01558   1.02731   1.04297   1.04613
 Alpha virt. eigenvalues --    1.05694   1.07574   1.07821   1.08524   1.09540
 Alpha virt. eigenvalues --    1.10790   1.11385   1.11473   1.12050   1.12596
 Alpha virt. eigenvalues --    1.13177   1.13499   1.14238   1.14452   1.15391
 Alpha virt. eigenvalues --    1.15983   1.16687   1.17077   1.17504   1.18879
 Alpha virt. eigenvalues --    1.19294   1.20082   1.20478   1.20914   1.21351
 Alpha virt. eigenvalues --    1.21849   1.22989   1.24264   1.24599   1.24846
 Alpha virt. eigenvalues --    1.25789   1.26180   1.26933   1.27407   1.28588
 Alpha virt. eigenvalues --    1.29013   1.29678   1.29825   1.30542   1.31829
 Alpha virt. eigenvalues --    1.32202   1.33168   1.34880   1.35357   1.36839
 Alpha virt. eigenvalues --    1.37100   1.39243   1.40142   1.41615   1.42332
 Alpha virt. eigenvalues --    1.42959   1.44101   1.44417   1.45938   1.47150
 Alpha virt. eigenvalues --    1.47440   1.49259   1.50872   1.52966   1.54594
 Alpha virt. eigenvalues --    1.55522   1.57491   1.59438   1.60244   1.60585
 Alpha virt. eigenvalues --    1.62129   1.63981   1.65492   1.66880   1.67507
 Alpha virt. eigenvalues --    1.70878   1.73110   1.73755   1.76618   1.79395
 Alpha virt. eigenvalues --    1.82067   1.87531   1.89543   1.91684   1.96678
 Alpha virt. eigenvalues --    2.04500   2.07317   2.15904   2.24061   2.24811
 Alpha virt. eigenvalues --    2.33778   2.34787
          Condensed to atoms (all electrons):
 Mulliken atomic charges:
              1
     1  O   -0.564936
     2  C    0.786703
     3  C   -0.131093
     4  N   -0.884333
     5  N    0.095958
     6  N   -0.333305
     7  C   -0.020174
     8  C   -0.077964
     9  C   -0.233573
    10  C   -0.204620
    11  C   -0.066642
    12  C    0.488066
    13  N   -0.987802
    14  C   -0.085985
    15  C    0.066248
    16  C   -0.103587
    17  C   -0.551622
    18  S    0.480914
    19  C   -0.603664
    20  C    0.340289
    21  C   -0.223587
    22  C   -0.180627
    23  C   -0.125392
    24  C   -0.179876
    25  C   -0.151566
    26  C    0.784049
    27  O   -0.607470
    28  N   -0.911391
    29  C    0.075378
    30  C   -0.305466
    31  C   -0.366033
    32  H    0.250542
    33  H    0.239527
    34  H    0.241481
    35  H    0.204813
    36  H    0.205614
    37  H    0.222433
    38  H    0.196504
    39  H    0.227149
    40  H    0.224154
    41  H    0.240232
    42  H    0.250026
    43  H    0.230924
    44  H    0.218431
    45  H    0.265888
    46  H    0.246840
    47  H    0.377875
    48  H    0.205046
    49  H    0.190811
    50  H    0.185752
    51  H    0.183466
    52  H    0.175595
 Sum of Mulliken atomic charges =   0.00000
 Mulliken charges with hydrogens summed into heavy atoms:
              1
     1  O   -0.564936
     2  C    0.786703
     3  C    0.358976
     4  N   -0.884333
     5  N    0.095958
     6  N   -0.333305
     7  C   -0.020174
     8  C    0.163517
     9  C   -0.028760
    10  C    0.000994
    11  C    0.155791
    12  C    0.488066
    13  N   -0.987802
    14  C    0.337668
    15  C    0.066248
    16  C    0.120567
    17  C   -0.311390
    18  S    0.480914
    19  C   -0.353638
    20  C    0.340289
    21  C    0.007337
    22  C    0.037804
    23  C   -0.125392
    24  C    0.086012
    25  C    0.095275
    26  C    0.784049
    27  O   -0.607470
    28  N   -0.533516
    29  C    0.280424
    30  C    0.071097
    31  C   -0.006972
 Sum of Mulliken charges with hydrogens summed into heavy atoms =   0.00000
 Electronic spatial extent (au):  <R**2>=          19961.5907
 Charge=              0.0000 electrons
 Dipole moment (field-independent basis, Debye):
    X=             -0.6061    Y=              8.7044    Z=              2.7109  Tot=              9.1369
 Quadrupole moment (field-independent basis, Debye-Ang):
   XX=           -197.7249   YY=           -193.7918   ZZ=           -183.8009
   XY=             -1.0362   XZ=             -3.1918   YZ=            -19.8645
 Traceless Quadrupole moment (field-independent basis, Debye-Ang):
   XX=             -5.9523   YY=             -2.0193   ZZ=              7.9716
   XY=             -1.0362   XZ=             -3.1918   YZ=            -19.8645
 Octapole moment (field-independent basis, Debye-Ang**2):
  XXX=            -96.9340  YYY=             87.1065  ZZZ=             20.4428  XYY=             29.9357
  XXY=             77.3159  XXZ=            218.3495  XZZ=             -8.8267  YZZ=             20.8092
  YYZ=             -6.4557  XYZ=            -34.3216
 Hexadecapole moment (field-independent basis, Debye-Ang**3):
 XXXX=         -19742.4322 YYYY=          -5169.8270 ZZZZ=          -1741.1374 XXXY=           -325.5449
 XXXZ=           -194.3191 YYYX=            177.5037 YYYZ=           -217.2199 ZZZX=             95.5963
 ZZZY=            -92.3049 XXYY=          -4490.1160 XXZZ=          -3621.3800 YYZZ=          -1263.8926
 XXYZ=           -522.6890 YYXZ=             15.0637 ZZXY=             49.2308
 N-N= 2.958397280668D+03 E-N=-9.910598637132D+03  KE= 1.703446387336D+03
 No NMR shielding tensors so no spin-rotation constants.
 Leave Link  601 at Fri Aug 26 16:10:19 2022, MaxMem=  209715200 cpu:       1.4
 (Enter /opt/gaussian/l9999.exe)
 1\1\GINC-LQCAPF-6\FOpt\RHF\6-31G\C23H21N5O2S1\LQCAPF-6\26-Aug-2022\0\\
 #p opt hf/6-31G\\Mol11.out\\0,1\O,21.073154011,-6.83033933,-0.73968257
 67\C,21.5804881962,-7.7824351802,-0.1696043643\C,23.0342440177,-7.7262
 979523,0.284633256\N,23.6255399258,-6.4478633623,0.0402727375\N,23.730
 1576609,-5.5507394409,1.0625628106\N,24.2383553442,-4.4735594971,0.629
 6548589\C,24.4882082667,-4.6082697438,-0.72696991\C,25.0391869766,-3.7
 119034218,-1.641655985\C,25.169101494,-4.1389062186,-2.9403919815\C,24
 .7555807067,-5.4337335131,-3.325702221\C,24.2090272835,-6.3222099623,-
 2.4306945617\C,24.0841817371,-5.8806214599,-1.1110668312\N,20.88915430
 13,-8.9407086529,0.0950794385\C,21.5431396881,-10.1330703784,0.6408359
 417\C,22.3347926764,-10.9440672718,-0.3586607894\C,23.1579733234,-12.0
 601736289,0.0644147093\C,23.7892960364,-12.6826757791,-0.9418760955\S,
 23.4186678466,-11.933196635,-2.5211057299\C,22.3674912214,-10.74843022
 96,-1.6886871921\C,19.4779321556,-9.0062448748,-0.1553860233\C,18.9405
 691675,-10.1020388914,-0.8174073291\C,17.5710594986,-10.196369391,-1.0
 131885443\C,16.7219798726,-9.1977012472,-0.5564847321\C,17.2665549868,
 -8.1092528854,0.1181792592\C,18.6299199916,-8.0090884225,0.3169158383\
 C,15.2412427402,-9.2499024434,-0.7254281811\O,14.4932416622,-8.6598375
 417,0.0513030304\N,14.7655145305,-9.9601834005,-1.7806477634\C,13.3625
 558236,-10.0895765022,-2.0414467258\C,12.5498900209,-11.0340529801,-1.
 2104747805\C,12.8777051963,-11.3819216309,-2.6386078273\H,23.091853753
 3,-7.8914087636,1.3503491122\H,23.611546325,-8.4968352331,-0.207350919
 7\H,25.3430423064,-2.733406641,-1.3289629966\H,25.5859235509,-3.485289
 3936,-3.6808119874\H,24.8686924148,-5.7269437279,-4.351406806\H,23.886
 1687538,-7.2965200788,-2.7377436036\H,22.1897734134,-9.8550418787,1.46
 42052524\H,20.7677850105,-10.7510392013,1.0715548623\H,23.2535167426,-
 12.3607098254,1.0888101825\H,24.4465129953,-13.5210710004,-0.891631643
 2\H,21.8499803258,-10.009342308,-2.2581717127\H,19.580169084,-10.88095
 81376,-1.1802190589\H,17.1793871716,-11.0674246738,-1.5015765512\H,16.
 6086317471,-7.3517434422,0.4924543489\H,19.034797317,-7.1570066778,0.8
 199960671\H,15.3932948403,-10.2421360568,-2.4941667902\H,12.8835150352
 ,-9.1825835348,-2.3564005076\H,13.0601349168,-11.5672482375,-0.4336911
 44\H,11.5475289391,-10.7472345593,-0.9613553184\H,12.1022261064,-11.33
 74768265,-3.3780211855\H,13.6001128907,-12.1569079333,-2.8101413354\\V
 ersion=EM64L-G09RevC.01\State=1-A\HF=-1702.0063171\RMSD=7.058e-09\RMSF
 =3.377e-06\Dipole=1.0169339,-3.190717,-1.3066728\Quadrupole=-4.2758358
 ,0.4184475,3.8573883,-1.204513,7.7549827,-13.2122769\PG=C01 [X(C23H21N
 5O2S1)]\\@


 NEVER TEACH A PIG TO SING.
 IT WASTES YOUR TIME AND ANNOYS THE PIG.
     -- SEEN ON A GREETING CARD
 Job cpu time:  0 days  6 hours  5 minutes 42.0 seconds.
 File lengths (MBytes):  RWF=     72 Int=      0 D2E=      0 Chk=     11 Scr=      1
 Normal termination of Gaussian 09 at Fri Aug 26 16:10:19 2022.
