 Entering Gaussian System, Link 0=g09
 Input=Mol18.gjf
 Output=Mol18.log
 Initial command:
 /opt/gaussian/l1.exe /home/scr/lqcapf-6/Gau-251602.inp -scrdir=/home/scr/lqcapf-6/
 Entering Link 1 = /opt/gaussian/l1.exe PID=    251604.
  
 Copyright (c) 1988,1990,1992,1993,1995,1998,2003,2009,2011,
            Gaussian, Inc.  All Rights Reserved.
  
 This is part of the Gaussian(R) 09 program.  It is based on
 the Gaussian(R) 03 system (copyright 2003, Gaussian, Inc.),
 the Gaussian(R) 98 system (copyright 1998, Gaussian, Inc.),
 the Gaussian(R) 94 system (copyright 1995, Gaussian, Inc.),
 the Gaussian 92(TM) system (copyright 1992, Gaussian, Inc.),
 the Gaussian 90(TM) system (copyright 1990, Gaussian, Inc.),
 the Gaussian 88(TM) system (copyright 1988, Gaussian, Inc.),
 the Gaussian 86(TM) system (copyright 1986, Carnegie Mellon
 University), and the Gaussian 82(TM) system (copyright 1983,
 Carnegie Mellon University). Gaussian is a federally registered
 trademark of Gaussian, Inc.
  
 This software contains proprietary and confidential information,
 including trade secrets, belonging to Gaussian, Inc.
  
 This software is provided under written license and may be
 used, copied, transmitted, or stored only in accord with that
 written license.
  
 The following legend is applicable only to US Government
 contracts under FAR:
  
                    RESTRICTED RIGHTS LEGEND
  
 Use, reproduction and disclosure by the US Government is
 subject to restrictions as set forth in subparagraphs (a)
 and (c) of the Commercial Computer Software - Restricted
 Rights clause in FAR 52.227-19.
  
 Gaussian, Inc.
 340 Quinnipiac St., Bldg. 40, Wallingford CT 06492
  
  
 ---------------------------------------------------------------
 Warning -- This program may not be used in any manner that
 competes with the business of Gaussian, Inc. or will provide
 assistance to any competitor of Gaussian, Inc.  The licensee
 of this program is prohibited from giving any competitor of
 Gaussian, Inc. access to this program.  By using this program,
 the user acknowledges that Gaussian, Inc. is engaged in the
 business of creating and licensing software in the field of
 computational chemistry and represents and warrants to the
 licensee that it is not a competitor of Gaussian, Inc. and that
 it will not use this program in any manner prohibited above.
 ---------------------------------------------------------------
  

 Cite this work as:
 Gaussian 09, Revision C.01,
 M. J. Frisch, G. W. Trucks, H. B. Schlegel, G. E. Scuseria, 
 M. A. Robb, J. R. Cheeseman, G. Scalmani, V. Barone, B. Mennucci, 
 G. A. Petersson, H. Nakatsuji, M. Caricato, X. Li, H. P. Hratchian, 
 A. F. Izmaylov, J. Bloino, G. Zheng, J. L. Sonnenberg, M. Hada, 
 M. Ehara, K. Toyota, R. Fukuda, J. Hasegawa, M. Ishida, T. Nakajima, 
 Y. Honda, O. Kitao, H. Nakai, T. Vreven, J. A. Montgomery, Jr., 
 J. E. Peralta, F. Ogliaro, M. Bearpark, J. J. Heyd, E. Brothers, 
 K. N. Kudin, V. N. Staroverov, T. Keith, R. Kobayashi, J. Normand, 
 K. Raghavachari, A. Rendell, J. C. Burant, S. S. Iyengar, J. Tomasi, 
 M. Cossi, N. Rega, J. M. Millam, M. Klene, J. E. Knox, J. B. Cross, 
 V. Bakken, C. Adamo, J. Jaramillo, R. Gomperts, R. E. Stratmann, 
 O. Yazyev, A. J. Austin, R. Cammi, C. Pomelli, J. W. Ochterski, 
 R. L. Martin, K. Morokuma, V. G. Zakrzewski, G. A. Voth, 
 P. Salvador, J. J. Dannenberg, S. Dapprich, A. D. Daniels, 
 O. Farkas, J. B. Foresman, J. V. Ortiz, J. Cioslowski, 
 and D. J. Fox, Gaussian, Inc., Wallingford CT, 2010.
 
 ******************************************
 Gaussian 09:  EM64L-G09RevC.01 23-Sep-2011
                26-Aug-2022 
 ******************************************
 %nprocshared=8
 Will use up to    8 processors via shared memory.
 %mem=1600MB
 ---------------
 #p opt hf/6-31G
 ---------------
 1/18=20,19=15,38=1/1,3;
 2/9=110,12=2,17=6,18=5,40=1/2;
 3/5=1,6=6,11=9,16=1,25=1,30=1,71=1/1,2,3;
 4//1;
 5/5=2,38=5/2;
 6/7=2,8=2,9=2,10=2,28=1/1;
 7//1,2,3,16;
 1/18=20,19=15/3(2);
 2/9=110/2;
 99//99;
 2/9=110/2;
 3/5=1,6=6,11=9,16=1,25=1,30=1,71=1/1,2,3;
 4/5=5,16=3/1;
 5/5=2,38=5/2;
 7//1,2,3,16;
 1/18=20,19=15/3(-5);
 2/9=110/2;
 6/7=2,8=2,9=2,10=2,19=2,28=1/1;
 99/9=1/99;
 Leave Link    1 at Fri Aug 26 20:15:49 2022, MaxMem=  209715200 cpu:       0.1
 (Enter /opt/gaussian/l101.exe)
 ---------
 Mol18.out
 ---------
 Charge =  0 Multiplicity = 1
 Symbolic Z-Matrix:
 C                     12.4815  -8.5731   -1.6989 
 N                     13.7564  -9.2325   -1.5603 
 C                     14.9495  -8.5878   -1.2172 
 C                     15.948   -9.5805   -1.1687 
 C                     15.245   -10.8079  -1.4986 
 N                     13.9335  -10.5562  -1.7235 
 C                     17.3432  -9.4293   -0.8636 
 C                     17.8218  -8.2808   -0.215 
 C                     19.1683  -8.1371    0.098 
 C                     20.0895  -9.1533   -0.2335 
 C                     19.6121  -10.2994  -0.907 
 C                     18.263   -10.4315  -1.2082 
 N                     21.4591  -9.0479    0.1324 
 C                     22.1417  -10.2615   0.5222 
 C                     22.984   -10.9257  -0.5124 
 C                     24.0193  -11.8497  -0.1418 
 C                     24.6336  -12.388   -1.2496 
 S                     23.9811  -11.7914  -2.6668 
 C                     22.8775  -10.8172  -1.8845 
 C                     22.1594  -7.8468   -0.0197 
 O                     21.603   -6.8143   -0.4255 
 C                     23.6488  -7.8671    0.3731 
 N                     24.3494  -6.625     0.1852 
 N                     24.1454  -5.5075    0.9567 
 N                     24.662   -4.4805    0.452 
 C                     25.2451  -4.814    -0.8131 
 C                     25.9439  -4.0778   -1.7694 
 C                     26.3901  -4.7543   -2.8997 
 C                     26.1562  -6.1276   -3.0816 
 C                     25.4693  -6.8917   -2.1444 
 C                     25.009   -6.2308   -1.0044 
 H                     12.0429  -8.7883   -2.71 
 H                     11.7709  -8.9391   -0.9099 
 H                     12.634   -7.4687   -1.5832 
 H                     15.0046  -7.5133   -1.0476 
 H                     15.6588  -11.8145  -1.5613 
 H                     17.119   -7.4796    0.06 
 H                     19.514   -7.2137    0.591 
 H                     20.3079  -11.1015  -1.2023 
 H                     17.9122  -11.3342  -1.7314 
 H                     22.7921  -10.0326   1.4189 
 H                     21.3633  -11.009    0.8648 
 H                     24.2664  -12.0836   0.8958 
 H                     25.4432  -13.1164  -1.2315 
 H                     22.1638  -10.1853  -2.4151 
 H                     23.7205  -8.1413    1.4667 
 H                     24.1729  -8.6515   -0.2471 
 H                     26.132   -3.0038   -1.6288 
 H                     26.9425  -4.2017   -3.6749 
 H                     26.5278  -6.6128   -3.9977 
 H                     25.2958  -7.9647   -2.2972 
 
 NAtoms=     51 NQM=        0 NQMF=       0 NMMI=     51 NMMIF=      0
                NMic=       0 NMicF=      0.
                    Isotopes and Nuclear Properties:
 (Nuclear quadrupole moments (NQMom) in fm**2, nuclear magnetic moments (NMagM)
  in nuclear magnetons)

  Atom         1           2           3           4           5           6           7           8           9          10
 IAtWgt=          12          14          12          12          12          14          12          12          12          12
 AtmWgt=  12.0000000  14.0030740  12.0000000  12.0000000  12.0000000  14.0030740  12.0000000  12.0000000  12.0000000  12.0000000
 NucSpn=           0           2           0           0           0           2           0           0           0           0
 AtZEff=   0.0000000   0.0000000   0.0000000   0.0000000   0.0000000   0.0000000   0.0000000   0.0000000   0.0000000   0.0000000
 NQMom=    0.0000000   2.0440000   0.0000000   0.0000000   0.0000000   2.0440000   0.0000000   0.0000000   0.0000000   0.0000000
 NMagM=    0.0000000   0.4037610   0.0000000   0.0000000   0.0000000   0.4037610   0.0000000   0.0000000   0.0000000   0.0000000

  Atom        11          12          13          14          15          16          17          18          19          20
 IAtWgt=          12          12          14          12          12          12          12          32          12          12
 AtmWgt=  12.0000000  12.0000000  14.0030740  12.0000000  12.0000000  12.0000000  12.0000000  31.9720718  12.0000000  12.0000000
 NucSpn=           0           0           2           0           0           0           0           0           0           0
 AtZEff=   0.0000000   0.0000000   0.0000000   0.0000000   0.0000000   0.0000000   0.0000000   0.0000000   0.0000000   0.0000000
 NQMom=    0.0000000   0.0000000   2.0440000   0.0000000   0.0000000   0.0000000   0.0000000   0.0000000   0.0000000   0.0000000
 NMagM=    0.0000000   0.0000000   0.4037610   0.0000000   0.0000000   0.0000000   0.0000000   0.0000000   0.0000000   0.0000000

  Atom        21          22          23          24          25          26          27          28          29          30
 IAtWgt=          16          12          14          14          14          12          12          12          12          12
 AtmWgt=  15.9949146  12.0000000  14.0030740  14.0030740  14.0030740  12.0000000  12.0000000  12.0000000  12.0000000  12.0000000
 NucSpn=           0           0           2           2           2           0           0           0           0           0
 AtZEff=   0.0000000   0.0000000   0.0000000   0.0000000   0.0000000   0.0000000   0.0000000   0.0000000   0.0000000   0.0000000
 NQMom=    0.0000000   0.0000000   2.0440000   2.0440000   2.0440000   0.0000000   0.0000000   0.0000000   0.0000000   0.0000000
 NMagM=    0.0000000   0.0000000   0.4037610   0.4037610   0.4037610   0.0000000   0.0000000   0.0000000   0.0000000   0.0000000

  Atom        31          32          33          34          35          36          37          38          39          40
 IAtWgt=          12           1           1           1           1           1           1           1           1           1
 AtmWgt=  12.0000000   1.0078250   1.0078250   1.0078250   1.0078250   1.0078250   1.0078250   1.0078250   1.0078250   1.0078250
 NucSpn=           0           1           1           1           1           1           1           1           1           1
 AtZEff=   0.0000000   0.0000000   0.0000000   0.0000000   0.0000000   0.0000000   0.0000000   0.0000000   0.0000000   0.0000000
 NQMom=    0.0000000   0.0000000   0.0000000   0.0000000   0.0000000   0.0000000   0.0000000   0.0000000   0.0000000   0.0000000
 NMagM=    0.0000000   2.7928460   2.7928460   2.7928460   2.7928460   2.7928460   2.7928460   2.7928460   2.7928460   2.7928460

  Atom        41          42          43          44          45          46          47          48          49          50
 IAtWgt=           1           1           1           1           1           1           1           1           1           1
 AtmWgt=   1.0078250   1.0078250   1.0078250   1.0078250   1.0078250   1.0078250   1.0078250   1.0078250   1.0078250   1.0078250
 NucSpn=           1           1           1           1           1           1           1           1           1           1
 AtZEff=   0.0000000   0.0000000   0.0000000   0.0000000   0.0000000   0.0000000   0.0000000   0.0000000   0.0000000   0.0000000
 NQMom=    0.0000000   0.0000000   0.0000000   0.0000000   0.0000000   0.0000000   0.0000000   0.0000000   0.0000000   0.0000000
 NMagM=    2.7928460   2.7928460   2.7928460   2.7928460   2.7928460   2.7928460   2.7928460   2.7928460   2.7928460   2.7928460

  Atom        51
 IAtWgt=           1
 AtmWgt=   1.0078250
 NucSpn=           1
 AtZEff=   0.0000000
 NQMom=    0.0000000
 NMagM=    2.7928460
 Leave Link  101 at Fri Aug 26 20:15:49 2022, MaxMem=  209715200 cpu:       0.8
 (Enter /opt/gaussian/l103.exe)

 GradGradGradGradGradGradGradGradGradGradGradGradGradGradGradGradGradGrad
 Berny optimization.
 Initialization pass.
                           ----------------------------
                           !    Initial Parameters    !
                           ! (Angstroms and Degrees)  !
 --------------------------                            --------------------------
 ! Name  Definition              Value          Derivative Info.                !
 --------------------------------------------------------------------------------
 ! R1    R(1,2)                  1.442          estimate D2E/DX2                !
 ! R2    R(1,32)                 1.1229         estimate D2E/DX2                !
 ! R3    R(1,33)                 1.1231         estimate D2E/DX2                !
 ! R4    R(1,34)                 1.1209         estimate D2E/DX2                !
 ! R5    R(2,3)                  1.3989         estimate D2E/DX2                !
 ! R6    R(2,6)                  1.3454         estimate D2E/DX2                !
 ! R7    R(3,4)                  1.4088         estimate D2E/DX2                !
 ! R8    R(3,35)                 1.0892         estimate D2E/DX2                !
 ! R9    R(4,5)                  1.4524         estimate D2E/DX2                !
 ! R10   R(4,7)                  1.4362         estimate D2E/DX2                !
 ! R11   R(5,6)                  1.3542         estimate D2E/DX2                !
 ! R12   R(5,36)                 1.0901         estimate D2E/DX2                !
 ! R13   R(7,8)                  1.4031         estimate D2E/DX2                !
 ! R14   R(7,12)                 1.4033         estimate D2E/DX2                !
 ! R15   R(8,9)                  1.3898         estimate D2E/DX2                !
 ! R16   R(8,37)                 1.1007         estimate D2E/DX2                !
 ! R17   R(9,10)                 1.4111         estimate D2E/DX2                !
 ! R18   R(9,38)                 1.1024         estimate D2E/DX2                !
 ! R19   R(10,11)                1.4125         estimate D2E/DX2                !
 ! R20   R(10,13)                1.4215         estimate D2E/DX2                !
 ! R21   R(11,12)                1.3886         estimate D2E/DX2                !
 ! R22   R(11,39)                1.1021         estimate D2E/DX2                !
 ! R23   R(12,40)                1.1008         estimate D2E/DX2                !
 ! R24   R(13,14)                1.4459         estimate D2E/DX2                !
 ! R25   R(13,20)                1.3986         estimate D2E/DX2                !
 ! R26   R(14,15)                1.4903         estimate D2E/DX2                !
 ! R27   R(14,41)                1.1311         estimate D2E/DX2                !
 ! R28   R(14,42)                1.1323         estimate D2E/DX2                !
 ! R29   R(15,16)                1.4363         estimate D2E/DX2                !
 ! R30   R(15,19)                1.3805         estimate D2E/DX2                !
 ! R31   R(16,17)                1.3764         estimate D2E/DX2                !
 ! R32   R(16,43)                1.092          estimate D2E/DX2                !
 ! R33   R(17,18)                1.6704         estimate D2E/DX2                !
 ! R34   R(17,44)                1.0892         estimate D2E/DX2                !
 ! R35   R(18,19)                1.667          estimate D2E/DX2                !
 ! R36   R(19,45)                1.091          estimate D2E/DX2                !
 ! R37   R(20,21)                1.2411         estimate D2E/DX2                !
 ! R38   R(20,22)                1.5405         estimate D2E/DX2                !
 ! R39   R(22,23)                1.4384         estimate D2E/DX2                !
 ! R40   R(22,46)                1.1297         estimate D2E/DX2                !
 ! R41   R(22,47)                1.129          estimate D2E/DX2                !
 ! R42   R(23,24)                1.3732         estimate D2E/DX2                !
 ! R43   R(23,31)                1.4162         estimate D2E/DX2                !
 ! R44   R(24,25)                1.2555         estimate D2E/DX2                !
 ! R45   R(25,26)                1.4324         estimate D2E/DX2                !
 ! R46   R(26,27)                1.3946         estimate D2E/DX2                !
 ! R47   R(26,31)                1.449          estimate D2E/DX2                !
 ! R48   R(27,28)                1.3908         estimate D2E/DX2                !
 ! R49   R(27,48)                1.0994         estimate D2E/DX2                !
 ! R50   R(28,29)                1.4049         estimate D2E/DX2                !
 ! R51   R(28,49)                1.1007         estimate D2E/DX2                !
 ! R52   R(29,30)                1.3907         estimate D2E/DX2                !
 ! R53   R(29,50)                1.1012         estimate D2E/DX2                !
 ! R54   R(30,31)                1.3958         estimate D2E/DX2                !
 ! R55   R(30,51)                1.0976         estimate D2E/DX2                !
 ! A1    A(2,1,32)             110.1347         estimate D2E/DX2                !
 ! A2    A(2,1,33)             110.0498         estimate D2E/DX2                !
 ! A3    A(2,1,34)             108.6842         estimate D2E/DX2                !
 ! A4    A(32,1,33)            108.8422         estimate D2E/DX2                !
 ! A5    A(32,1,34)            109.5669         estimate D2E/DX2                !
 ! A6    A(33,1,34)            109.5515         estimate D2E/DX2                !
 ! A7    A(1,2,3)              124.5336         estimate D2E/DX2                !
 ! A8    A(1,2,6)              123.684          estimate D2E/DX2                !
 ! A9    A(3,2,6)              111.7718         estimate D2E/DX2                !
 ! A10   A(2,3,4)              106.7496         estimate D2E/DX2                !
 ! A11   A(2,3,35)             122.4111         estimate D2E/DX2                !
 ! A12   A(4,3,35)             130.8366         estimate D2E/DX2                !
 ! A13   A(3,4,5)              104.1578         estimate D2E/DX2                !
 ! A14   A(3,4,7)              128.4377         estimate D2E/DX2                !
 ! A15   A(5,4,7)              127.4045         estimate D2E/DX2                !
 ! A16   A(4,5,6)              110.4504         estimate D2E/DX2                !
 ! A17   A(4,5,36)             127.5639         estimate D2E/DX2                !
 ! A18   A(6,5,36)             121.9832         estimate D2E/DX2                !
 ! A19   A(2,6,5)              106.8694         estimate D2E/DX2                !
 ! A20   A(4,7,8)              121.0472         estimate D2E/DX2                !
 ! A21   A(4,7,12)             120.6249         estimate D2E/DX2                !
 ! A22   A(8,7,12)             118.3279         estimate D2E/DX2                !
 ! A23   A(7,8,9)              121.2775         estimate D2E/DX2                !
 ! A24   A(7,8,37)             119.572          estimate D2E/DX2                !
 ! A25   A(9,8,37)             119.1486         estimate D2E/DX2                !
 ! A26   A(8,9,10)             120.3383         estimate D2E/DX2                !
 ! A27   A(8,9,38)             119.4153         estimate D2E/DX2                !
 ! A28   A(10,9,38)            120.2367         estimate D2E/DX2                !
 ! A29   A(9,10,11)            118.4059         estimate D2E/DX2                !
 ! A30   A(9,10,13)            121.0048         estimate D2E/DX2                !
 ! A31   A(11,10,13)           120.5663         estimate D2E/DX2                !
 ! A32   A(10,11,12)           120.5967         estimate D2E/DX2                !
 ! A33   A(10,11,39)           120.3249         estimate D2E/DX2                !
 ! A34   A(12,11,39)           119.0784         estimate D2E/DX2                !
 ! A35   A(7,12,11)            121.0381         estimate D2E/DX2                !
 ! A36   A(7,12,40)            119.5718         estimate D2E/DX2                !
 ! A37   A(11,12,40)           119.3888         estimate D2E/DX2                !
 ! A38   A(10,13,14)           117.5157         estimate D2E/DX2                !
 ! A39   A(10,13,20)           121.2039         estimate D2E/DX2                !
 ! A40   A(14,13,20)           120.9121         estimate D2E/DX2                !
 ! A41   A(13,14,15)           116.9834         estimate D2E/DX2                !
 ! A42   A(13,14,41)           108.3794         estimate D2E/DX2                !
 ! A43   A(13,14,42)           108.1273         estimate D2E/DX2                !
 ! A44   A(15,14,41)           108.3936         estimate D2E/DX2                !
 ! A45   A(15,14,42)           107.7205         estimate D2E/DX2                !
 ! A46   A(41,14,42)           106.7993         estimate D2E/DX2                !
 ! A47   A(14,15,16)           120.996          estimate D2E/DX2                !
 ! A48   A(14,15,19)           127.6882         estimate D2E/DX2                !
 ! A49   A(16,15,19)           111.2614         estimate D2E/DX2                !
 ! A50   A(15,16,17)           111.4471         estimate D2E/DX2                !
 ! A51   A(15,16,43)           123.0992         estimate D2E/DX2                !
 ! A52   A(17,16,43)           125.453          estimate D2E/DX2                !
 ! A53   A(16,17,18)           111.6447         estimate D2E/DX2                !
 ! A54   A(16,17,44)           125.4456         estimate D2E/DX2                !
 ! A55   A(18,17,44)           122.9093         estimate D2E/DX2                !
 ! A56   A(17,18,19)            93.9668         estimate D2E/DX2                !
 ! A57   A(15,19,18)           111.6799         estimate D2E/DX2                !
 ! A58   A(15,19,45)           125.4078         estimate D2E/DX2                !
 ! A59   A(18,19,45)           122.911          estimate D2E/DX2                !
 ! A60   A(13,20,21)           121.7029         estimate D2E/DX2                !
 ! A61   A(13,20,22)           116.4271         estimate D2E/DX2                !
 ! A62   A(21,20,22)           121.8564         estimate D2E/DX2                !
 ! A63   A(20,22,23)           115.2291         estimate D2E/DX2                !
 ! A64   A(20,22,46)           108.1434         estimate D2E/DX2                !
 ! A65   A(20,22,47)           108.5368         estimate D2E/DX2                !
 ! A66   A(23,22,46)           107.7662         estimate D2E/DX2                !
 ! A67   A(23,22,47)           107.5837         estimate D2E/DX2                !
 ! A68   A(46,22,47)           109.4922         estimate D2E/DX2                !
 ! A69   A(22,23,24)           123.8482         estimate D2E/DX2                !
 ! A70   A(22,23,31)           125.2365         estimate D2E/DX2                !
 ! A71   A(24,23,31)           108.3371         estimate D2E/DX2                !
 ! A72   A(23,24,25)           112.2535         estimate D2E/DX2                !
 ! A73   A(24,25,26)           109.3956         estimate D2E/DX2                !
 ! A74   A(25,26,27)           133.3713         estimate D2E/DX2                !
 ! A75   A(25,26,31)           106.1364         estimate D2E/DX2                !
 ! A76   A(27,26,31)           120.483          estimate D2E/DX2                !
 ! A77   A(26,27,28)           117.4693         estimate D2E/DX2                !
 ! A78   A(26,27,48)           120.9143         estimate D2E/DX2                !
 ! A79   A(28,27,48)           121.6163         estimate D2E/DX2                !
 ! A80   A(27,28,29)           121.8219         estimate D2E/DX2                !
 ! A81   A(27,28,49)           119.2876         estimate D2E/DX2                !
 ! A82   A(29,28,49)           118.8905         estimate D2E/DX2                !
 ! A83   A(28,29,30)           122.1446         estimate D2E/DX2                !
 ! A84   A(28,29,50)           118.8298         estimate D2E/DX2                !
 ! A85   A(30,29,50)           119.0255         estimate D2E/DX2                !
 ! A86   A(29,30,31)           116.945          estimate D2E/DX2                !
 ! A87   A(29,30,51)           121.4243         estimate D2E/DX2                !
 ! A88   A(31,30,51)           121.6305         estimate D2E/DX2                !
 ! A89   A(23,31,26)           103.7186         estimate D2E/DX2                !
 ! A90   A(23,31,30)           135.0603         estimate D2E/DX2                !
 ! A91   A(26,31,30)           121.1349         estimate D2E/DX2                !
 ! D1    D(32,1,2,3)           125.3187         estimate D2E/DX2                !
 ! D2    D(32,1,2,6)           -55.9655         estimate D2E/DX2                !
 ! D3    D(33,1,2,3)          -114.6825         estimate D2E/DX2                !
 ! D4    D(33,1,2,6)            64.0333         estimate D2E/DX2                !
 ! D5    D(34,1,2,3)             5.2831         estimate D2E/DX2                !
 ! D6    D(34,1,2,6)          -176.0011         estimate D2E/DX2                !
 ! D7    D(1,2,3,4)            179.1574         estimate D2E/DX2                !
 ! D8    D(1,2,3,35)            -1.3831         estimate D2E/DX2                !
 ! D9    D(6,2,3,4)              0.308          estimate D2E/DX2                !
 ! D10   D(6,2,3,35)           179.7675         estimate D2E/DX2                !
 ! D11   D(1,2,6,5)           -179.1764         estimate D2E/DX2                !
 ! D12   D(3,2,6,5)             -0.3156         estimate D2E/DX2                !
 ! D13   D(2,3,4,5)             -0.1679         estimate D2E/DX2                !
 ! D14   D(2,3,4,7)            179.889          estimate D2E/DX2                !
 ! D15   D(35,3,4,5)          -179.5647         estimate D2E/DX2                !
 ! D16   D(35,3,4,7)             0.4922         estimate D2E/DX2                !
 ! D17   D(3,4,5,6)             -0.0152         estimate D2E/DX2                !
 ! D18   D(3,4,5,36)          -179.4482         estimate D2E/DX2                !
 ! D19   D(7,4,5,6)            179.9287         estimate D2E/DX2                !
 ! D20   D(7,4,5,36)             0.4957         estimate D2E/DX2                !
 ! D21   D(3,4,7,8)             17.5858         estimate D2E/DX2                !
 ! D22   D(3,4,7,12)          -162.4479         estimate D2E/DX2                !
 ! D23   D(5,4,7,8)           -162.3447         estimate D2E/DX2                !
 ! D24   D(5,4,7,12)            17.6215         estimate D2E/DX2                !
 ! D25   D(4,5,6,2)              0.1993         estimate D2E/DX2                !
 ! D26   D(36,5,6,2)           179.6694         estimate D2E/DX2                !
 ! D27   D(4,7,8,9)            179.1599         estimate D2E/DX2                !
 ! D28   D(4,7,8,37)            -0.3444         estimate D2E/DX2                !
 ! D29   D(12,7,8,9)            -0.8071         estimate D2E/DX2                !
 ! D30   D(12,7,8,37)          179.6886         estimate D2E/DX2                !
 ! D31   D(4,7,12,11)         -179.4379         estimate D2E/DX2                !
 ! D32   D(4,7,12,40)            0.967          estimate D2E/DX2                !
 ! D33   D(8,7,12,11)            0.5292         estimate D2E/DX2                !
 ! D34   D(8,7,12,40)         -179.0658         estimate D2E/DX2                !
 ! D35   D(7,8,9,10)            -0.0032         estimate D2E/DX2                !
 ! D36   D(7,8,9,38)           178.8661         estimate D2E/DX2                !
 ! D37   D(37,8,9,10)          179.5032         estimate D2E/DX2                !
 ! D38   D(37,8,9,38)           -1.6275         estimate D2E/DX2                !
 ! D39   D(8,9,10,11)            1.0782         estimate D2E/DX2                !
 ! D40   D(8,9,10,13)         -177.1852         estimate D2E/DX2                !
 ! D41   D(38,9,10,11)        -177.7819         estimate D2E/DX2                !
 ! D42   D(38,9,10,13)           3.9548         estimate D2E/DX2                !
 ! D43   D(9,10,11,12)          -1.3539         estimate D2E/DX2                !
 ! D44   D(9,10,11,39)         178.5465         estimate D2E/DX2                !
 ! D45   D(13,10,11,12)        176.9174         estimate D2E/DX2                !
 ! D46   D(13,10,11,39)         -3.1823         estimate D2E/DX2                !
 ! D47   D(9,10,13,14)         143.5324         estimate D2E/DX2                !
 ! D48   D(9,10,13,20)         -43.3746         estimate D2E/DX2                !
 ! D49   D(11,10,13,14)        -34.6935         estimate D2E/DX2                !
 ! D50   D(11,10,13,20)        138.3995         estimate D2E/DX2                !
 ! D51   D(10,11,12,7)           0.557          estimate D2E/DX2                !
 ! D52   D(10,11,12,40)       -179.8472         estimate D2E/DX2                !
 ! D53   D(39,11,12,7)        -179.3446         estimate D2E/DX2                !
 ! D54   D(39,11,12,40)          0.2512         estimate D2E/DX2                !
 ! D55   D(10,13,14,15)         98.9663         estimate D2E/DX2                !
 ! D56   D(10,13,14,41)       -138.1936         estimate D2E/DX2                !
 ! D57   D(10,13,14,42)        -22.7747         estimate D2E/DX2                !
 ! D58   D(20,13,14,15)        -74.1479         estimate D2E/DX2                !
 ! D59   D(20,13,14,41)         48.6921         estimate D2E/DX2                !
 ! D60   D(20,13,14,42)        164.1111         estimate D2E/DX2                !
 ! D61   D(10,13,20,21)          3.0487         estimate D2E/DX2                !
 ! D62   D(10,13,20,22)       -178.273          estimate D2E/DX2                !
 ! D63   D(14,13,20,21)        175.9076         estimate D2E/DX2                !
 ! D64   D(14,13,20,22)         -5.4141         estimate D2E/DX2                !
 ! D65   D(13,14,15,16)        159.633          estimate D2E/DX2                !
 ! D66   D(13,14,15,19)        -23.2925         estimate D2E/DX2                !
 ! D67   D(41,14,15,16)         36.8003         estimate D2E/DX2                !
 ! D68   D(41,14,15,19)       -146.1252         estimate D2E/DX2                !
 ! D69   D(42,14,15,16)        -78.4141         estimate D2E/DX2                !
 ! D70   D(42,14,15,19)         98.6604         estimate D2E/DX2                !
 ! D71   D(14,15,16,17)        177.4016         estimate D2E/DX2                !
 ! D72   D(14,15,16,43)         -2.3062         estimate D2E/DX2                !
 ! D73   D(19,15,16,17)         -0.1145         estimate D2E/DX2                !
 ! D74   D(19,15,16,43)       -179.8223         estimate D2E/DX2                !
 ! D75   D(14,15,19,18)       -177.2785         estimate D2E/DX2                !
 ! D76   D(14,15,19,45)          2.3128         estimate D2E/DX2                !
 ! D77   D(16,15,19,18)          0.0308         estimate D2E/DX2                !
 ! D78   D(16,15,19,45)        179.6221         estimate D2E/DX2                !
 ! D79   D(15,16,17,18)          0.148          estimate D2E/DX2                !
 ! D80   D(15,16,17,44)       -179.6202         estimate D2E/DX2                !
 ! D81   D(43,16,17,18)        179.8475         estimate D2E/DX2                !
 ! D82   D(43,16,17,44)          0.0794         estimate D2E/DX2                !
 ! D83   D(16,17,18,19)         -0.1137         estimate D2E/DX2                !
 ! D84   D(44,17,18,19)        179.6613         estimate D2E/DX2                !
 ! D85   D(17,18,19,15)          0.0461         estimate D2E/DX2                !
 ! D86   D(17,18,19,45)       -179.5571         estimate D2E/DX2                !
 ! D87   D(13,20,22,23)        178.9929         estimate D2E/DX2                !
 ! D88   D(13,20,22,46)        -60.386          estimate D2E/DX2                !
 ! D89   D(13,20,22,47)         58.3143         estimate D2E/DX2                !
 ! D90   D(21,20,22,23)         -2.3311         estimate D2E/DX2                !
 ! D91   D(21,20,22,46)        118.2901         estimate D2E/DX2                !
 ! D92   D(21,20,22,47)       -123.0096         estimate D2E/DX2                !
 ! D93   D(20,22,23,24)         70.684          estimate D2E/DX2                !
 ! D94   D(20,22,23,31)        -88.9561         estimate D2E/DX2                !
 ! D95   D(46,22,23,24)        -50.1429         estimate D2E/DX2                !
 ! D96   D(46,22,23,31)        150.2171         estimate D2E/DX2                !
 ! D97   D(47,22,23,24)       -168.1189         estimate D2E/DX2                !
 ! D98   D(47,22,23,31)         32.241          estimate D2E/DX2                !
 ! D99   D(22,23,24,25)       -166.801          estimate D2E/DX2                !
 ! D100  D(31,23,24,25)         -4.2209         estimate D2E/DX2                !
 ! D101  D(22,23,31,26)        165.916          estimate D2E/DX2                !
 ! D102  D(22,23,31,30)        -17.5923         estimate D2E/DX2                !
 ! D103  D(24,23,31,26)          3.6385         estimate D2E/DX2                !
 ! D104  D(24,23,31,30)       -179.8697         estimate D2E/DX2                !
 ! D105  D(23,24,25,26)          2.8165         estimate D2E/DX2                !
 ! D106  D(24,25,26,27)       -179.2129         estimate D2E/DX2                !
 ! D107  D(24,25,26,31)         -0.3637         estimate D2E/DX2                !
 ! D108  D(25,26,27,28)        179.038          estimate D2E/DX2                !
 ! D109  D(25,26,27,48)         -0.9324         estimate D2E/DX2                !
 ! D110  D(31,26,27,28)          0.3208         estimate D2E/DX2                !
 ! D111  D(31,26,27,48)       -179.6496         estimate D2E/DX2                !
 ! D112  D(25,26,31,23)         -2.0469         estimate D2E/DX2                !
 ! D113  D(25,26,31,30)       -179.1523         estimate D2E/DX2                !
 ! D114  D(27,26,31,23)        176.9824         estimate D2E/DX2                !
 ! D115  D(27,26,31,30)         -0.123          estimate D2E/DX2                !
 ! D116  D(26,27,28,29)         -0.1958         estimate D2E/DX2                !
 ! D117  D(26,27,28,49)        179.835          estimate D2E/DX2                !
 ! D118  D(48,27,28,29)        179.7744         estimate D2E/DX2                !
 ! D119  D(48,27,28,49)         -0.1948         estimate D2E/DX2                !
 ! D120  D(27,28,29,30)         -0.1436         estimate D2E/DX2                !
 ! D121  D(27,28,29,50)        179.7292         estimate D2E/DX2                !
 ! D122  D(49,28,29,30)        179.8257         estimate D2E/DX2                !
 ! D123  D(49,28,29,50)         -0.3015         estimate D2E/DX2                !
 ! D124  D(28,29,30,31)          0.3402         estimate D2E/DX2                !
 ! D125  D(28,29,30,51)       -179.8139         estimate D2E/DX2                !
 ! D126  D(50,29,30,31)       -179.5323         estimate D2E/DX2                !
 ! D127  D(50,29,30,51)          0.3135         estimate D2E/DX2                !
 ! D128  D(29,30,31,23)       -176.2252         estimate D2E/DX2                !
 ! D129  D(29,30,31,26)         -0.2076         estimate D2E/DX2                !
 ! D130  D(51,30,31,23)          3.9293         estimate D2E/DX2                !
 ! D131  D(51,30,31,26)        179.9469         estimate D2E/DX2                !
 --------------------------------------------------------------------------------
 Trust Radius=3.00D-01 FncErr=1.00D-07 GrdErr=1.00D-07
 Number of steps in this run=    287 maximum allowed number of steps=    306.
 GradGradGradGradGradGradGradGradGradGradGradGradGradGradGradGradGradGrad

 Leave Link  103 at Fri Aug 26 20:15:49 2022, MaxMem=  209715200 cpu:       0.1
 (Enter /opt/gaussian/l202.exe)
 Stoichiometry    C23H20N6OS
 Framework group  C1[X(C23H20N6OS)]
 Deg. of freedom   147
 Full point group                 C1      NOp   1
 Largest Abelian subgroup         C1      NOp   1
 Largest concise Abelian subgroup C1      NOp   1
                         Standard orientation:                         
 ---------------------------------------------------------------------
 Center     Atomic      Atomic             Coordinates (Angstroms)
 Number     Number       Type             X           Y           Z
 ---------------------------------------------------------------------
      1          6           0       -8.417339   -2.215778    0.888903
      2          7           0       -7.356319   -1.264746    0.667177
      3          6           0       -6.035346   -1.607674    0.360136
      4          6           0       -5.328078   -0.399332    0.203645
      5          6           0       -6.326686    0.629452    0.435891
      6          7           0       -7.529124    0.068922    0.707766
      7          6           0       -3.940004   -0.211956   -0.113646
      8          6           0       -3.177133   -1.252030   -0.665972
      9          6           0       -1.838003   -1.070754   -0.990858
     10          6           0       -1.213203    0.174965   -0.769553
     11          6           0       -1.974407    1.215319   -0.192241
     12          6           0       -3.312987    1.021136    0.121984
     13          7           0        0.138549    0.394206   -1.150993
     14          6           0        0.485003    1.702091   -1.661009
     15          6           0        1.121658    2.653223   -0.706522
     16          6           0        1.883734    3.775548   -1.178321
     17          6           0        2.332486    4.553359   -0.135257
     18         16           0        1.850521    3.940585    1.342025
     19          6           0        1.040712    2.646865    0.671586
     20          6           0        1.125550   -0.565893   -0.905567
     21          8           0        0.853966   -1.665532   -0.398273
     22          6           0        2.560546   -0.197261   -1.327365
     23          7           0        3.558303   -1.193435   -1.042625
     24          7           0        3.654433   -2.391408   -1.706896
     25          7           0        4.417291   -3.199316   -1.122381
     26          6           0        4.888284   -2.612130    0.096259
     27          6           0        5.749691   -3.051973    1.100917
     28          6           0        6.000167   -2.182659    2.157269
     29          6           0        5.417472   -0.905834    2.219995
     30          6           0        4.560239   -0.434337    1.231629
     31          6           0        4.292146   -1.293182    0.164495
     32          1           0       -8.901302   -2.029724    1.884979
     33          1           0       -9.194942   -2.119690    0.084211
     34          1           0       -7.983261   -3.249000    0.869602
     35          1           0       -5.702845   -2.642252    0.286370
     36          1           0       -6.188234    1.710175    0.400207
     37          1           0       -3.646984   -2.229361   -0.854488
     38          1           0       -1.262539   -1.914481   -1.405816
     39          1           0       -1.511641    2.193563    0.016545
     40          1           0       -3.888148    1.846401    0.568967
     41          1           0        1.176558    1.568082   -2.546040
     42          1           0       -0.458990    2.188362   -2.054016
     43          1           0        2.066454    3.969446   -2.237282
     44          1           0        2.925683    5.461479   -0.234159
     45          1           0        0.512803    1.903220    1.270339
     46          1           0        2.563671   -0.015075   -2.442303
     47          1           0        2.860599    0.749294   -0.790136
     48          1           0        6.210384   -4.049035    1.053410
     49          1           0        6.673409   -2.500355    2.967985
     50          1           0        5.646454   -0.259366    3.081616
     51          1           0        4.113851    0.566653    1.291092
 ---------------------------------------------------------------------
 Rotational constants (GHZ):      0.2018279      0.0621834      0.0524445
 Leave Link  202 at Fri Aug 26 20:15:49 2022, MaxMem=  209715200 cpu:       0.0
 (Enter /opt/gaussian/l301.exe)
 Standard basis: 6-31G (6D, 7F)
 Ernie: Thresh=  0.10000D-02 Tol=  0.10000D-05 Strict=F.
 There are   323 symmetry adapted basis functions of A   symmetry.
 Integral buffers will be    131072 words long.
 Raffenetti 1 integral format.
 Two-electron integral symmetry is turned on.
   323 basis functions,   786 primitive gaussians,   323 cartesian basis functions
   112 alpha electrons      112 beta electrons
       nuclear repulsion energy      2921.0959963198 Hartrees.



 Warning!  S  atom   18 may be hypervalent but has no d functions.



 IExCor=    0 DFT=F Ex=HF Corr=None ExCW=0 ScaHFX=  1.000000
 ScaDFX=  1.000000  1.000000  1.000000  1.000000 ScalE2=  1.000000  1.000000
 IRadAn=      0 IRanWt=     -1 IRanGd=            0 ICorTp=0
 NAtoms=   51 NActive=   51 NUniq=   51 SFac= 1.00D+00 NAtFMM=   60 NAOKFM=F Big=F
 Leave Link  301 at Fri Aug 26 20:15:49 2022, MaxMem=  209715200 cpu:       0.2
 (Enter /opt/gaussian/l302.exe)
 NPDir=0 NMtPBC=     1 NCelOv=     1 NCel=       1 NClECP=     1 NCelD=      1
         NCelK=      1 NCelE2=     1 NClLst=     1 CellRange=     0.0.
 One-electron integrals computed using PRISM.
 NBasis=   323 RedAO= T  NBF=   323
 NBsUse=   323 1.00D-06 NBFU=   323
 Leave Link  302 at Fri Aug 26 20:15:49 2022, MaxMem=  209715200 cpu:       2.0
 (Enter /opt/gaussian/l303.exe)
 DipDrv:  MaxL=1.
 Leave Link  303 at Fri Aug 26 20:15:49 2022, MaxMem=  209715200 cpu:       0.4
 (Enter /opt/gaussian/l401.exe)
 Harris functional with IExCor=  205 diagonalized for initial guess.
 ExpMin= 1.17D-01 ExpMax= 2.19D+04 ExpMxC= 3.30D+03 IAcc=1 IRadAn=         1 AccDes= 0.00D+00
 HarFok:  IExCor=  205 AccDes= 0.00D+00 IRadAn=         1 IDoV= 1
 ScaDFX=  1.000000  1.000000  1.000000  1.000000
 FoFCou: FMM=F IPFlag=           0 FMFlag=      100000 FMFlg1=           0
         NFxFlg=           0 DoJE=T BraDBF=F KetDBF=T FulRan=T
         Omega=  0.000000  0.000000  1.000000  0.000000  0.000000 ICntrl=     500 IOpCl=  0
         NMat0=    1 NMatS0=    1 NMatT0=    0 NMatD0=    1 NMtDS0=    0 NMtDT0=    0
         I1Cent=           4 NGrid=           0.
 Petite list used in FoFCou.
 Harris En= -1682.14851591569    
 Initial guess orbital symmetries:
       Occupied  (A) (A) (A) (A) (A) (A) (A) (A) (A) (A) (A) (A)
                 (A) (A) (A) (A) (A) (A) (A) (A) (A) (A) (A) (A)
                 (A) (A) (A) (A) (A) (A) (A) (A) (A) (A) (A) (A)
                 (A) (A) (A) (A) (A) (A) (A) (A) (A) (A) (A) (A)
                 (A) (A) (A) (A) (A) (A) (A) (A) (A) (A) (A) (A)
                 (A) (A) (A) (A) (A) (A) (A) (A) (A) (A) (A) (A)
                 (A) (A) (A) (A) (A) (A) (A) (A) (A) (A) (A) (A)
                 (A) (A) (A) (A) (A) (A) (A) (A) (A) (A) (A) (A)
                 (A) (A) (A) (A) (A) (A) (A) (A) (A) (A) (A) (A)
                 (A) (A) (A) (A)
       Virtual   (A) (A) (A) (A) (A) (A) (A) (A) (A) (A) (A) (A)
                 (A) (A) (A) (A) (A) (A) (A) (A) (A) (A) (A) (A)
                 (A) (A) (A) (A) (A) (A) (A) (A) (A) (A) (A) (A)
                 (A) (A) (A) (A) (A) (A) (A) (A) (A) (A) (A) (A)
                 (A) (A) (A) (A) (A) (A) (A) (A) (A) (A) (A) (A)
                 (A) (A) (A) (A) (A) (A) (A) (A) (A) (A) (A) (A)
                 (A) (A) (A) (A) (A) (A) (A) (A) (A) (A) (A) (A)
                 (A) (A) (A) (A) (A) (A) (A) (A) (A) (A) (A) (A)
                 (A) (A) (A) (A) (A) (A) (A) (A) (A) (A) (A) (A)
                 (A) (A) (A) (A) (A) (A) (A) (A) (A) (A) (A) (A)
                 (A) (A) (A) (A) (A) (A) (A) (A) (A) (A) (A) (A)
                 (A) (A) (A) (A) (A) (A) (A) (A) (A) (A) (A) (A)
                 (A) (A) (A) (A) (A) (A) (A) (A) (A) (A) (A) (A)
                 (A) (A) (A) (A) (A) (A) (A) (A) (A) (A) (A) (A)
                 (A) (A) (A) (A) (A) (A) (A) (A) (A) (A) (A) (A)
                 (A) (A) (A) (A) (A) (A) (A) (A) (A) (A) (A) (A)
                 (A) (A) (A) (A) (A) (A) (A) (A) (A) (A) (A) (A)
                 (A) (A) (A) (A) (A) (A) (A)
 The electronic state of the initial guess is 1-A.
 Leave Link  401 at Fri Aug 26 20:15:50 2022, MaxMem=  209715200 cpu:       4.4
 (Enter /opt/gaussian/l502.exe)
 Closed shell SCF:
 Requested convergence on RMS density matrix=1.00D-08 within 128 cycles.
 Requested convergence on MAX density matrix=1.00D-06.
 Requested convergence on             energy=1.00D-06.
 No special actions if energy rises.
 Using DIIS extrapolation, IDIIS=  1040.
 Integral symmetry usage will be decided dynamically.
 IEnd=      336214 IEndB=      336214 NGot=   209715200 MDV=   209500279
 LenX=   209500279 LenY=   209395509
 Fock matrices will be formed incrementally for  20 cycles.
 Integral accuracy reduced to 1.0D-05 until final iterations.

 Cycle   1  Pass 0  IDiag  1:
 FoFCou: FMM=F IPFlag=           0 FMFlag=      100000 FMFlg1=           0
         NFxFlg=           0 DoJE=F BraDBF=F KetDBF=F FulRan=T
         Omega=  0.000000  0.000000  1.000000  0.000000  0.000000 ICntrl=       0 IOpCl=  0
         NMat0=    1 NMatS0=    1 NMatT0=    0 NMatD0=    1 NMtDS0=    0 NMtDT0=    0
         I1Cent=           0 NGrid=           0.
 Symmetry not used in FoFCou.
 E= -1679.98232386391    
 DIIS: error= 4.58D-02 at cycle   1 NSaved=   1.
 NSaved= 1 IEnMin= 1 EnMin= -1679.98232386391     IErMin= 1 ErrMin= 4.58D-02
 ErrMax= 4.58D-02 EMaxC= 1.00D-01 BMatC= 1.11D+00 BMatP= 1.11D+00
 IDIUse=3 WtCom= 5.42D-01 WtEn= 4.58D-01
 Coeff-Com:  0.100D+01
 Coeff-En:   0.100D+01
 Coeff:      0.100D+01
 Gap=     0.411 Goal=   None    Shift=    0.000
 GapD=    0.411 DampG=2.000 DampE=0.500 DampFc=1.0000 IDamp=-1.
 RMSDP=6.12D-03 MaxDP=1.63D-01              OVMax= 1.73D-01

 Cycle   2  Pass 0  IDiag  1:
 RMSU=  4.29D-03    CP:  9.72D-01
 E= -1680.72561465677     Delta-E=       -0.743290792860 Rises=F Damp=F
 DIIS: error= 2.06D-02 at cycle   2 NSaved=   2.
 NSaved= 2 IEnMin= 2 EnMin= -1680.72561465677     IErMin= 2 ErrMin= 2.06D-02
 ErrMax= 2.06D-02 EMaxC= 1.00D-01 BMatC= 2.25D-01 BMatP= 1.11D+00
 IDIUse=3 WtCom= 7.94D-01 WtEn= 2.06D-01
 Coeff-Com:  0.265D+00 0.735D+00
 Coeff-En:   0.000D+00 0.100D+01
 Coeff:      0.210D+00 0.790D+00
 Gap=     0.423 Goal=   None    Shift=    0.000
 RMSDP=2.80D-03 MaxDP=8.73D-02 DE=-7.43D-01 OVMax= 9.47D-02

 Cycle   3  Pass 0  IDiag  1:
 RMSU=  1.73D-03    CP:  9.72D-01  7.75D-01
 E= -1680.91636684269     Delta-E=       -0.190752185922 Rises=F Damp=F
 DIIS: error= 9.21D-03 at cycle   3 NSaved=   3.
 NSaved= 3 IEnMin= 3 EnMin= -1680.91636684269     IErMin= 3 ErrMin= 9.21D-03
 ErrMax= 9.21D-03 EMaxC= 1.00D-01 BMatC= 3.13D-02 BMatP= 2.25D-01
 IDIUse=3 WtCom= 9.08D-01 WtEn= 9.21D-02
 Coeff-Com:  0.499D-02 0.256D+00 0.739D+00
 Coeff-En:   0.000D+00 0.000D+00 0.100D+01
 Coeff:      0.453D-02 0.233D+00 0.763D+00
 Gap=     0.380 Goal=   None    Shift=    0.000
 RMSDP=8.26D-04 MaxDP=2.90D-02 DE=-1.91D-01 OVMax= 3.68D-02

 Cycle   4  Pass 0  IDiag  1:
 RMSU=  3.58D-04    CP:  9.72D-01  8.68D-01  8.66D-01
 E= -1680.94604823374     Delta-E=       -0.029681391055 Rises=F Damp=F
 DIIS: error= 2.38D-03 at cycle   4 NSaved=   4.
 NSaved= 4 IEnMin= 4 EnMin= -1680.94604823374     IErMin= 4 ErrMin= 2.38D-03
 ErrMax= 2.38D-03 EMaxC= 1.00D-01 BMatC= 2.86D-03 BMatP= 3.13D-02
 IDIUse=3 WtCom= 9.76D-01 WtEn= 2.38D-02
 Coeff-Com: -0.143D-01 0.219D-01 0.271D+00 0.721D+00
 Coeff-En:   0.000D+00 0.000D+00 0.000D+00 0.100D+01
 Coeff:     -0.139D-01 0.214D-01 0.265D+00 0.728D+00
 Gap=     0.375 Goal=   None    Shift=    0.000
 RMSDP=2.69D-04 MaxDP=8.60D-03 DE=-2.97D-02 OVMax= 1.11D-02

 Cycle   5  Pass 0  IDiag  1:
 RMSU=  1.36D-04    CP:  9.71D-01  8.64D-01  9.28D-01  7.91D-01
 E= -1680.94903943768     Delta-E=       -0.002991203935 Rises=F Damp=F
 DIIS: error= 9.60D-04 at cycle   5 NSaved=   5.
 NSaved= 5 IEnMin= 5 EnMin= -1680.94903943768     IErMin= 5 ErrMin= 9.60D-04
 ErrMax= 9.60D-04 EMaxC= 1.00D-01 BMatC= 1.50D-04 BMatP= 2.86D-03
 IDIUse=3 WtCom= 9.90D-01 WtEn= 9.60D-03
 Coeff-Com: -0.182D-02-0.176D-01-0.127D-01 0.903D-01 0.942D+00
 Coeff-En:   0.000D+00 0.000D+00 0.000D+00 0.000D+00 0.100D+01
 Coeff:     -0.181D-02-0.174D-01-0.126D-01 0.895D-01 0.942D+00
 Gap=     0.376 Goal=   None    Shift=    0.000
 RMSDP=1.03D-04 MaxDP=5.04D-03 DE=-2.99D-03 OVMax= 5.25D-03

 Cycle   6  Pass 0  IDiag  1:
 RMSU=  5.18D-05    CP:  9.71D-01  8.64D-01  9.50D-01  8.76D-01  1.14D+00
 E= -1680.94944913601     Delta-E=       -0.000409698330 Rises=F Damp=F
 DIIS: error= 5.00D-04 at cycle   6 NSaved=   6.
 NSaved= 6 IEnMin= 6 EnMin= -1680.94944913601     IErMin= 6 ErrMin= 5.00D-04
 ErrMax= 5.00D-04 EMaxC= 1.00D-01 BMatC= 3.82D-05 BMatP= 1.50D-04
 IDIUse=3 WtCom= 9.95D-01 WtEn= 5.00D-03
 Coeff-Com:  0.286D-02-0.906D-02-0.579D-01-0.163D+00 0.123D+00 0.110D+01
 Coeff-En:   0.000D+00 0.000D+00 0.000D+00 0.000D+00 0.000D+00 0.100D+01
 Coeff:      0.285D-02-0.902D-02-0.577D-01-0.162D+00 0.122D+00 0.110D+01
 Gap=     0.376 Goal=   None    Shift=    0.000
 RMSDP=7.00D-05 MaxDP=2.58D-03 DE=-4.10D-04 OVMax= 5.90D-03

 Cycle   7  Pass 0  IDiag  1:
 RMSU=  2.09D-05    CP:  9.71D-01  8.63D-01  9.61D-01  8.99D-01  1.40D+00
                    CP:  1.30D+00
 E= -1680.94959108568     Delta-E=       -0.000141949671 Rises=F Damp=F
 DIIS: error= 2.40D-04 at cycle   7 NSaved=   7.
 NSaved= 7 IEnMin= 7 EnMin= -1680.94959108568     IErMin= 7 ErrMin= 2.40D-04
 ErrMax= 2.40D-04 EMaxC= 1.00D-01 BMatC= 4.74D-06 BMatP= 3.82D-05
 IDIUse=3 WtCom= 9.98D-01 WtEn= 2.40D-03
 Coeff-Com:  0.263D-03 0.180D-02 0.297D-02-0.185D-01-0.114D+00 0.217D-01
 Coeff-Com:  0.111D+01
 Coeff-En:   0.000D+00 0.000D+00 0.000D+00 0.000D+00 0.000D+00 0.000D+00
 Coeff-En:   0.100D+01
 Coeff:      0.262D-03 0.180D-02 0.296D-02-0.185D-01-0.114D+00 0.217D-01
 Coeff:      0.111D+01
 Gap=     0.376 Goal=   None    Shift=    0.000
 RMSDP=2.34D-05 MaxDP=8.94D-04 DE=-1.42D-04 OVMax= 1.64D-03

 Cycle   8  Pass 0  IDiag  1:
 RMSU=  7.11D-06    CP:  9.71D-01  8.62D-01  9.63D-01  9.04D-01  1.46D+00
                    CP:  1.48D+00  1.34D+00
 E= -1680.94960882025     Delta-E=       -0.000017734568 Rises=F Damp=F
 DIIS: error= 1.01D-04 at cycle   8 NSaved=   8.
 NSaved= 8 IEnMin= 8 EnMin= -1680.94960882025     IErMin= 8 ErrMin= 1.01D-04
 ErrMax= 1.01D-04 EMaxC= 1.00D-01 BMatC= 8.41D-07 BMatP= 4.74D-06
 IDIUse=3 WtCom= 9.99D-01 WtEn= 1.01D-03
 Coeff-Com: -0.554D-03 0.228D-02 0.139D-01 0.301D-01-0.427D-01-0.234D+00
 Coeff-Com:  0.194D+00 0.104D+01
 Coeff-En:   0.000D+00 0.000D+00 0.000D+00 0.000D+00 0.000D+00 0.000D+00
 Coeff-En:   0.000D+00 0.100D+01
 Coeff:     -0.554D-03 0.228D-02 0.139D-01 0.301D-01-0.426D-01-0.234D+00
 Coeff:      0.194D+00 0.104D+01
 Gap=     0.376 Goal=   None    Shift=    0.000
 RMSDP=1.04D-05 MaxDP=3.87D-04 DE=-1.77D-05 OVMax= 6.93D-04

 Cycle   9  Pass 0  IDiag  1:
 RMSU=  2.87D-06    CP:  9.71D-01  8.62D-01  9.63D-01  9.04D-01  1.48D+00
                    CP:  1.54D+00  1.58D+00  1.18D+00
 E= -1680.94961168272     Delta-E=       -0.000002862469 Rises=F Damp=F
 DIIS: error= 2.17D-05 at cycle   9 NSaved=   9.
 NSaved= 9 IEnMin= 9 EnMin= -1680.94961168272     IErMin= 9 ErrMin= 2.17D-05
 ErrMax= 2.17D-05 EMaxC= 1.00D-01 BMatC= 8.42D-08 BMatP= 8.41D-07
 IDIUse=1 WtCom= 1.00D+00 WtEn= 0.00D+00
 Coeff-Com: -0.777D-04 0.149D-03 0.148D-02 0.413D-02 0.444D-02-0.306D-01
 Coeff-Com: -0.555D-01 0.118D+00 0.958D+00
 Coeff:     -0.777D-04 0.149D-03 0.148D-02 0.413D-02 0.444D-02-0.306D-01
 Coeff:     -0.555D-01 0.118D+00 0.958D+00
 Gap=     0.376 Goal=   None    Shift=    0.000
 RMSDP=2.28D-06 MaxDP=5.67D-05 DE=-2.86D-06 OVMax= 2.11D-04

 Initial convergence to 1.0D-05 achieved.  Increase integral accuracy.
 Cycle  10  Pass 1  IDiag  1:
 E= -1680.94961992829     Delta-E=       -0.000008245570 Rises=F Damp=F
 DIIS: error= 1.56D-04 at cycle   1 NSaved=   1.
 NSaved= 1 IEnMin= 1 EnMin= -1680.94961992829     IErMin= 1 ErrMin= 1.56D-04
 ErrMax= 1.56D-04 EMaxC= 1.00D-01 BMatC= 1.62D-06 BMatP= 1.62D-06
 IDIUse=3 WtCom= 9.98D-01 WtEn= 1.56D-03
 Coeff-Com:  0.100D+01
 Coeff-En:   0.100D+01
 Coeff:      0.100D+01
 Gap=     0.376 Goal=   None    Shift=    0.000
 RMSDP=2.28D-06 MaxDP=5.67D-05 DE=-8.25D-06 OVMax= 1.93D-04

 Cycle  11  Pass 1  IDiag  1:
 RMSU=  4.30D-05    CP:  1.00D+00
 E= -1680.94962155955     Delta-E=       -0.000001631259 Rises=F Damp=F
 DIIS: error= 9.31D-06 at cycle   2 NSaved=   2.
 NSaved= 2 IEnMin= 2 EnMin= -1680.94962155955     IErMin= 2 ErrMin= 9.31D-06
 ErrMax= 9.31D-06 EMaxC= 1.00D-01 BMatC= 1.56D-08 BMatP= 1.62D-06
 IDIUse=1 WtCom= 1.00D+00 WtEn= 0.00D+00
 Coeff-Com: -0.356D-01 0.104D+01
 Coeff:     -0.356D-01 0.104D+01
 Gap=     0.376 Goal=   None    Shift=    0.000
 RMSDP=3.35D-06 MaxDP=7.38D-05 DE=-1.63D-06 OVMax= 7.20D-05

 Cycle  12  Pass 1  IDiag  1:
 RMSU=  8.00D-07    CP:  1.00D+00  1.05D+00
 E= -1680.94962159291     Delta-E=       -0.000000033358 Rises=F Damp=F
 DIIS: error= 7.90D-06 at cycle   3 NSaved=   3.
 NSaved= 3 IEnMin= 3 EnMin= -1680.94962159291     IErMin= 3 ErrMin= 7.90D-06
 ErrMax= 7.90D-06 EMaxC= 1.00D-01 BMatC= 8.16D-09 BMatP= 1.56D-08
 IDIUse=1 WtCom= 1.00D+00 WtEn= 0.00D+00
 Coeff-Com: -0.208D-01 0.413D+00 0.608D+00
 Coeff:     -0.208D-01 0.413D+00 0.608D+00
 Gap=     0.376 Goal=   None    Shift=    0.000
 RMSDP=3.96D-07 MaxDP=1.50D-05 DE=-3.34D-08 OVMax= 2.76D-05

 Cycle  13  Pass 1  IDiag  1:
 RMSU=  2.73D-07    CP:  1.00D+00  1.05D+00  9.55D-01
 E= -1680.94962160501     Delta-E=       -0.000000012105 Rises=F Damp=F
 DIIS: error= 4.33D-06 at cycle   4 NSaved=   4.
 NSaved= 4 IEnMin= 4 EnMin= -1680.94962160501     IErMin= 4 ErrMin= 4.33D-06
 ErrMax= 4.33D-06 EMaxC= 1.00D-01 BMatC= 1.49D-09 BMatP= 8.16D-09
 IDIUse=1 WtCom= 1.00D+00 WtEn= 0.00D+00
 Coeff-Com:  0.211D-01-0.518D+00-0.364D+00 0.186D+01
 Coeff:      0.211D-01-0.518D+00-0.364D+00 0.186D+01
 Gap=     0.376 Goal=   None    Shift=    0.000
 RMSDP=5.42D-07 MaxDP=1.24D-05 DE=-1.21D-08 OVMax= 7.09D-05

 Cycle  14  Pass 1  IDiag  1:
 RMSU=  2.18D-07    CP:  1.00D+00  1.05D+00  1.22D+00  1.83D+00
 E= -1680.94962161517     Delta-E=       -0.000000010161 Rises=F Damp=F
 DIIS: error= 1.74D-06 at cycle   5 NSaved=   5.
 NSaved= 5 IEnMin= 5 EnMin= -1680.94962161517     IErMin= 5 ErrMin= 1.74D-06
 ErrMax= 1.74D-06 EMaxC= 1.00D-01 BMatC= 1.76D-10 BMatP= 1.49D-09
 IDIUse=1 WtCom= 1.00D+00 WtEn= 0.00D+00
 Coeff-Com:  0.514D-02-0.111D+00-0.140D+00 0.161D+00 0.108D+01
 Coeff:      0.514D-02-0.111D+00-0.140D+00 0.161D+00 0.108D+01
 Gap=     0.376 Goal=   None    Shift=    0.000
 RMSDP=1.79D-07 MaxDP=4.39D-06 DE=-1.02D-08 OVMax= 2.44D-05

 Cycle  15  Pass 1  IDiag  1:
 RMSU=  4.82D-08    CP:  1.00D+00  1.05D+00  1.26D+00  2.12D+00  1.36D+00
 E= -1680.94962161606     Delta-E=       -0.000000000886 Rises=F Damp=F
 DIIS: error= 5.37D-07 at cycle   6 NSaved=   6.
 NSaved= 6 IEnMin= 6 EnMin= -1680.94962161606     IErMin= 6 ErrMin= 5.37D-07
 ErrMax= 5.37D-07 EMaxC= 1.00D-01 BMatC= 2.87D-11 BMatP= 1.76D-10
 IDIUse=1 WtCom= 1.00D+00 WtEn= 0.00D+00
 Coeff-Com: -0.195D-02 0.518D-01 0.203D-01-0.240D+00 0.299D+00 0.870D+00
 Coeff:     -0.195D-02 0.518D-01 0.203D-01-0.240D+00 0.299D+00 0.870D+00
 Gap=     0.376 Goal=   None    Shift=    0.000
 RMSDP=4.57D-08 MaxDP=1.13D-06 DE=-8.86D-10 OVMax= 5.56D-06

 Cycle  16  Pass 1  IDiag  1:
 RMSU=  1.95D-08    CP:  1.00D+00  1.05D+00  1.26D+00  2.16D+00  1.46D+00
                    CP:  1.03D+00
 E= -1680.94962161615     Delta-E=       -0.000000000093 Rises=F Damp=F
 DIIS: error= 1.78D-07 at cycle   7 NSaved=   7.
 NSaved= 7 IEnMin= 7 EnMin= -1680.94962161615     IErMin= 7 ErrMin= 1.78D-07
 ErrMax= 1.78D-07 EMaxC= 1.00D-01 BMatC= 4.13D-12 BMatP= 2.87D-11
 IDIUse=1 WtCom= 1.00D+00 WtEn= 0.00D+00
 Coeff-Com: -0.578D-03 0.122D-01 0.161D-01-0.201D-01-0.133D+00-0.370D-01
 Coeff-Com:  0.116D+01
 Coeff:     -0.578D-03 0.122D-01 0.161D-01-0.201D-01-0.133D+00-0.370D-01
 Coeff:      0.116D+01
 Gap=     0.376 Goal=   None    Shift=    0.000
 RMSDP=2.10D-08 MaxDP=4.55D-07 DE=-9.28D-11 OVMax= 2.40D-06

 Cycle  17  Pass 1  IDiag  1:
 RMSU=  8.07D-09    CP:  1.00D+00  1.05D+00  1.26D+00  2.17D+00  1.48D+00
                    CP:  1.18D+00  1.37D+00
 E= -1680.94962161617     Delta-E=       -0.000000000016 Rises=F Damp=F
 DIIS: error= 1.21D-07 at cycle   8 NSaved=   8.
 NSaved= 8 IEnMin= 8 EnMin= -1680.94962161617     IErMin= 8 ErrMin= 1.21D-07
 ErrMax= 1.21D-07 EMaxC= 1.00D-01 BMatC= 1.12D-12 BMatP= 4.13D-12
 IDIUse=1 WtCom= 1.00D+00 WtEn= 0.00D+00
 Coeff-Com:  0.391D-03-0.113D-01-0.101D-02 0.652D-01-0.120D+00-0.267D+00
 Coeff-Com:  0.367D+00 0.967D+00
 Coeff:      0.391D-03-0.113D-01-0.101D-02 0.652D-01-0.120D+00-0.267D+00
 Coeff:      0.367D+00 0.967D+00
 Gap=     0.376 Goal=   None    Shift=    0.000
 RMSDP=9.67D-09 MaxDP=2.62D-07 DE=-1.64D-11 OVMax= 1.09D-06

 SCF Done:  E(RHF) =  -1680.94962162     A.U. after   17 cycles
             Convg  =    0.9671D-08             -V/T =  2.0001
 KE= 1.680741442802D+03 PE=-9.783636496370D+03 EE= 3.500849435632D+03
 Leave Link  502 at Fri Aug 26 20:17:03 2022, MaxMem=  209715200 cpu:     579.4
 (Enter /opt/gaussian/l601.exe)
 Copying SCF densities to generalized density rwf, IOpCl= 0 IROHF=0.

 **********************************************************************

            Population analysis using the SCF density.

 **********************************************************************

 Orbital symmetries:
       Occupied  (A) (A) (A) (A) (A) (A) (A) (A) (A) (A) (A) (A)
                 (A) (A) (A) (A) (A) (A) (A) (A) (A) (A) (A) (A)
                 (A) (A) (A) (A) (A) (A) (A) (A) (A) (A) (A) (A)
                 (A) (A) (A) (A) (A) (A) (A) (A) (A) (A) (A) (A)
                 (A) (A) (A) (A) (A) (A) (A) (A) (A) (A) (A) (A)
                 (A) (A) (A) (A) (A) (A) (A) (A) (A) (A) (A) (A)
                 (A) (A) (A) (A) (A) (A) (A) (A) (A) (A) (A) (A)
                 (A) (A) (A) (A) (A) (A) (A) (A) (A) (A) (A) (A)
                 (A) (A) (A) (A) (A) (A) (A) (A) (A) (A) (A) (A)
                 (A) (A) (A) (A)
       Virtual   (A) (A) (A) (A) (A) (A) (A) (A) (A) (A) (A) (A)
                 (A) (A) (A) (A) (A) (A) (A) (A) (A) (A) (A) (A)
                 (A) (A) (A) (A) (A) (A) (A) (A) (A) (A) (A) (A)
                 (A) (A) (A) (A) (A) (A) (A) (A) (A) (A) (A) (A)
                 (A) (A) (A) (A) (A) (A) (A) (A) (A) (A) (A) (A)
                 (A) (A) (A) (A) (A) (A) (A) (A) (A) (A) (A) (A)
                 (A) (A) (A) (A) (A) (A) (A) (A) (A) (A) (A) (A)
                 (A) (A) (A) (A) (A) (A) (A) (A) (A) (A) (A) (A)
                 (A) (A) (A) (A) (A) (A) (A) (A) (A) (A) (A) (A)
                 (A) (A) (A) (A) (A) (A) (A) (A) (A) (A) (A) (A)
                 (A) (A) (A) (A) (A) (A) (A) (A) (A) (A) (A) (A)
                 (A) (A) (A) (A) (A) (A) (A) (A) (A) (A) (A) (A)
                 (A) (A) (A) (A) (A) (A) (A) (A) (A) (A) (A) (A)
                 (A) (A) (A) (A) (A) (A) (A) (A) (A) (A) (A) (A)
                 (A) (A) (A) (A) (A) (A) (A) (A) (A) (A) (A) (A)
                 (A) (A) (A) (A) (A) (A) (A) (A) (A) (A) (A) (A)
                 (A) (A) (A) (A) (A) (A) (A) (A) (A) (A) (A) (A)
                 (A) (A) (A) (A) (A) (A) (A)
 The electronic state is 1-A.
 Alpha  occ. eigenvalues --  -91.99632 -20.55237 -15.67089 -15.65697 -15.65314
 Alpha  occ. eigenvalues --  -15.62400 -15.62172 -15.60577 -11.39465 -11.32703
 Alpha  occ. eigenvalues --  -11.31391 -11.30717 -11.29704 -11.29224 -11.29168
 Alpha  occ. eigenvalues --  -11.28963 -11.28731 -11.28181 -11.27689 -11.26888
 Alpha  occ. eigenvalues --  -11.26818 -11.26448 -11.26428 -11.26243 -11.25668
 Alpha  occ. eigenvalues --  -11.25295 -11.25137 -11.24801 -11.24706 -11.24597
 Alpha  occ. eigenvalues --  -11.24474  -9.02019  -6.70172  -6.70000  -6.69719
 Alpha  occ. eigenvalues --   -1.46341  -1.40848  -1.38550  -1.28669  -1.24401
 Alpha  occ. eigenvalues --   -1.22758  -1.17064  -1.16555  -1.12834  -1.08530
 Alpha  occ. eigenvalues --   -1.06247  -1.05042  -1.04656  -1.02523  -1.02480
 Alpha  occ. eigenvalues --   -1.01654  -0.99963  -0.95091  -0.94078  -0.88733
 Alpha  occ. eigenvalues --   -0.87639  -0.84667  -0.84329  -0.82094  -0.79426
 Alpha  occ. eigenvalues --   -0.78784  -0.77304  -0.77031  -0.75803  -0.73202
 Alpha  occ. eigenvalues --   -0.72368  -0.71863  -0.71352  -0.70313  -0.68368
 Alpha  occ. eigenvalues --   -0.65522  -0.65447  -0.65098  -0.64842  -0.63982
 Alpha  occ. eigenvalues --   -0.62684  -0.62603  -0.62054  -0.61110  -0.60437
 Alpha  occ. eigenvalues --   -0.59772  -0.59350  -0.58758  -0.58289  -0.57284
 Alpha  occ. eigenvalues --   -0.56420  -0.55943  -0.55147  -0.54608  -0.54298
 Alpha  occ. eigenvalues --   -0.53720  -0.53611  -0.53053  -0.52454  -0.50843
 Alpha  occ. eigenvalues --   -0.50658  -0.49726  -0.49518  -0.49076  -0.45361
 Alpha  occ. eigenvalues --   -0.44316  -0.42702  -0.42268  -0.41358  -0.37387
 Alpha  occ. eigenvalues --   -0.36568  -0.35043  -0.34773  -0.34235  -0.33747
 Alpha  occ. eigenvalues --   -0.32564  -0.28147
 Alpha virt. eigenvalues --    0.09456   0.10540   0.10725   0.13328   0.14455
 Alpha virt. eigenvalues --    0.15612   0.16869   0.17445   0.19128   0.19809
 Alpha virt. eigenvalues --    0.20584   0.22385   0.22666   0.23484   0.23871
 Alpha virt. eigenvalues --    0.23994   0.24843   0.25666   0.25910   0.26759
 Alpha virt. eigenvalues --    0.26998   0.28109   0.28728   0.29056   0.30081
 Alpha virt. eigenvalues --    0.31138   0.31250   0.31647   0.32240   0.32876
 Alpha virt. eigenvalues --    0.33071   0.34308   0.35432   0.35468   0.36499
 Alpha virt. eigenvalues --    0.37738   0.38447   0.38794   0.39406   0.40535
 Alpha virt. eigenvalues --    0.41491   0.42097   0.42942   0.43091   0.43566
 Alpha virt. eigenvalues --    0.45529   0.46166   0.46603   0.47135   0.47622
 Alpha virt. eigenvalues --    0.49089   0.49397   0.51222   0.51601   0.53666
 Alpha virt. eigenvalues --    0.54088   0.54869   0.55419   0.56403   0.57447
 Alpha virt. eigenvalues --    0.58624   0.59998   0.63123   0.63339   0.64053
 Alpha virt. eigenvalues --    0.64631   0.65341   0.71189   0.71708   0.72012
 Alpha virt. eigenvalues --    0.72513   0.73562   0.74076   0.74490   0.75068
 Alpha virt. eigenvalues --    0.75570   0.76331   0.77002   0.77462   0.78570
 Alpha virt. eigenvalues --    0.79093   0.79396   0.79774   0.80353   0.81036
 Alpha virt. eigenvalues --    0.81309   0.81758   0.82698   0.83099   0.83377
 Alpha virt. eigenvalues --    0.83880   0.84789   0.85119   0.85419   0.85901
 Alpha virt. eigenvalues --    0.85975   0.86646   0.86925   0.87408   0.88209
 Alpha virt. eigenvalues --    0.88576   0.88678   0.89257   0.90065   0.91052
 Alpha virt. eigenvalues --    0.91188   0.92047   0.92251   0.92718   0.93417
 Alpha virt. eigenvalues --    0.94354   0.94929   0.95262   0.96957   0.97054
 Alpha virt. eigenvalues --    0.97739   0.99770   1.00240   1.00494   1.01088
 Alpha virt. eigenvalues --    1.02061   1.03391   1.03800   1.04530   1.05959
 Alpha virt. eigenvalues --    1.06482   1.06937   1.07786   1.08321   1.09085
 Alpha virt. eigenvalues --    1.10153   1.10573   1.11066   1.11547   1.11904
 Alpha virt. eigenvalues --    1.12202   1.12495   1.12508   1.12827   1.14030
 Alpha virt. eigenvalues --    1.14533   1.14666   1.15015   1.16612   1.16869
 Alpha virt. eigenvalues --    1.17210   1.17691   1.18404   1.19218   1.19523
 Alpha virt. eigenvalues --    1.20597   1.20990   1.21045   1.21825   1.23246
 Alpha virt. eigenvalues --    1.23927   1.24725   1.25241   1.26342   1.27252
 Alpha virt. eigenvalues --    1.27703   1.28620   1.29833   1.30708   1.31793
 Alpha virt. eigenvalues --    1.32386   1.33764   1.34549   1.36874   1.37541
 Alpha virt. eigenvalues --    1.38542   1.39041   1.40641   1.41655   1.42704
 Alpha virt. eigenvalues --    1.44372   1.45595   1.45870   1.48330   1.49736
 Alpha virt. eigenvalues --    1.50243   1.51188   1.53071   1.54887   1.56739
 Alpha virt. eigenvalues --    1.58366   1.58950   1.59903   1.62395   1.65158
 Alpha virt. eigenvalues --    1.66261   1.68259   1.69328   1.69711   1.70612
 Alpha virt. eigenvalues --    1.71424   1.74529   1.75866   1.79864   1.83706
 Alpha virt. eigenvalues --    1.85575   1.88610   1.89220   1.96432   2.00025
 Alpha virt. eigenvalues --    2.01412   2.03971   2.16078   2.22437   2.25659
 Alpha virt. eigenvalues --    2.31324
          Condensed to atoms (all electrons):
 Mulliken atomic charges:
              1
     1  C   -0.184561
     2  N   -0.651723
     3  C    0.228070
     4  C   -0.308278
     5  C    0.081703
     6  N   -0.254961
     7  C    0.041007
     8  C   -0.210850
     9  C   -0.154778
    10  C    0.333167
    11  C   -0.231549
    12  C   -0.204554
    13  N   -0.981055
    14  C   -0.124642
    15  C    0.024632
    16  C   -0.117848
    17  C   -0.594008
    18  S    0.577619
    19  C   -0.617423
    20  C    0.800061
    21  O   -0.581830
    22  C   -0.141382
    23  N   -0.807031
    24  N    0.120874
    25  N   -0.317152
    26  C    0.030666
    27  C   -0.104807
    28  C   -0.234253
    29  C   -0.202159
    30  C   -0.118626
    31  C    0.393717
    32  H    0.197929
    33  H    0.194050
    34  H    0.172630
    35  H    0.253773
    36  H    0.228461
    37  H    0.210509
    38  H    0.260594
    39  H    0.229629
    40  H    0.217217
    41  H    0.188623
    42  H    0.229936
    43  H    0.224294
    44  H    0.251809
    45  H    0.271541
    46  H    0.241358
    47  H    0.241357
    48  H    0.245806
    49  H    0.208802
    50  H    0.211869
    51  H    0.231769
 Sum of Mulliken atomic charges =   0.00000
 Mulliken charges with hydrogens summed into heavy atoms:
              1
     1  C    0.380048
     2  N   -0.651723
     3  C    0.481844
     4  C   -0.308278
     5  C    0.310165
     6  N   -0.254961
     7  C    0.041007
     8  C   -0.000341
     9  C    0.105816
    10  C    0.333167
    11  C   -0.001920
    12  C    0.012662
    13  N   -0.981055
    14  C    0.293916
    15  C    0.024632
    16  C    0.106446
    17  C   -0.342199
    18  S    0.577619
    19  C   -0.345883
    20  C    0.800061
    21  O   -0.581830
    22  C    0.341334
    23  N   -0.807031
    24  N    0.120874
    25  N   -0.317152
    26  C    0.030666
    27  C    0.140999
    28  C   -0.025451
    29  C    0.009710
    30  C    0.113143
    31  C    0.393717
 Sum of Mulliken charges with hydrogens summed into heavy atoms =   0.00000
 Electronic spatial extent (au):  <R**2>=          19697.2534
 Charge=              0.0000 electrons
 Dipole moment (field-independent basis, Debye):
    X=              0.2356    Y=              4.5425    Z=              0.5065  Tot=              4.5767
 Quadrupole moment (field-independent basis, Debye-Ang):
   XX=           -185.6421   YY=           -183.2533   ZZ=           -188.0380
   XY=             38.3724   XZ=             11.9986   YZ=            -15.8211
 Traceless Quadrupole moment (field-independent basis, Debye-Ang):
   XX=              0.0024   YY=              2.3912   ZZ=             -2.3935
   XY=             38.3724   XZ=             11.9986   YZ=            -15.8211
 Octapole moment (field-independent basis, Debye-Ang**2):
  XXX=             26.6714  YYY=             54.0767  ZZZ=              2.7899  XYY=            -78.5092
  XXY=           -165.4750  XXZ=             94.2608  XZZ=             27.7548  YZZ=             17.6480
  YYZ=             18.7672  XYZ=            -45.8325
 Hexadecapole moment (field-independent basis, Debye-Ang**3):
 XXXX=         -20466.1391 YYYY=          -5283.1022 ZZZZ=          -1506.4273 XXXY=           1516.6850
 XXXZ=            430.9708 YYYX=            495.8313 YYYZ=           -199.4030 ZZZX=             54.7287
 ZZZY=            -64.8856 XXYY=          -3668.9099 XXZZ=          -3650.0812 YYZZ=          -1213.0180
 XXYZ=           -424.8495 YYXZ=             88.7682 ZZXY=             78.6585
 N-N= 2.921095996320D+03 E-N=-9.783636504385D+03  KE= 1.680741442802D+03
 No NMR shielding tensors so no spin-rotation constants.
 Leave Link  601 at Fri Aug 26 20:17:03 2022, MaxMem=  209715200 cpu:       1.4
 (Enter /opt/gaussian/l701.exe)
 Compute integral first derivatives.
 ... and contract with generalized density number  0.
 Leave Link  701 at Fri Aug 26 20:17:03 2022, MaxMem=  209715200 cpu:       1.2
 (Enter /opt/gaussian/l702.exe)
 L702 exits ... SP integral derivatives will be done elsewhere.
 Leave Link  702 at Fri Aug 26 20:17:03 2022, MaxMem=  209715200 cpu:       0.2
 (Enter /opt/gaussian/l703.exe)
 Compute integral first derivatives, UseDBF=F ICtDFT=           0.
 Integral derivatives from FoFDir, PRISM(SPDF).
 Calling FoFJK, ICntrl=      2127 FMM=F ISym2X=0 I1Cent= 0 IOpClX= 0 NMat=1 NMatS=1 NMatT=0.
 FoFCou: FMM=F IPFlag=           0 FMFlag=      100000 FMFlg1=         800
         NFxFlg=           0 DoJE=F BraDBF=F KetDBF=F FulRan=T
         Omega=  0.000000  0.000000  1.000000  0.000000  0.000000 ICntrl=    2127 IOpCl=  0
         NMat0=    1 NMatS0=    1 NMatT0=    0 NMatD0=    1 NMtDS0=    0 NMtDT0=    0
         I1Cent=           0 NGrid=           0.
 Symmetry not used in FoFCou.
 Leave Link  703 at Fri Aug 26 20:17:31 2022, MaxMem=  209715200 cpu:     220.9
 (Enter /opt/gaussian/l716.exe)
 Dipole        = 9.26924300D-02 1.78716781D+00 1.99254456D-01
 ***** Axes restored to original set *****
 -------------------------------------------------------------------
 Center     Atomic                   Forces (Hartrees/Bohr)
 Number     Number              X              Y              Z
 -------------------------------------------------------------------
      1        6          -0.027183037    0.002533007   -0.004330664
      2        7           0.048212713    0.023629170    0.013572313
      3        6          -0.004408837   -0.034719467   -0.006491854
      4        6          -0.059742904   -0.000955762   -0.012452612
      5        6          -0.022348175    0.025398735   -0.000881350
      6        7           0.033978209   -0.006437256    0.005591433
      7        6           0.024087005    0.001761651    0.004482416
      8        6          -0.001722016    0.004600884    0.000996680
      9        6           0.007961346    0.007097382    0.005519077
     10        6          -0.026451023    0.003024398   -0.005919308
     11        6           0.013577805   -0.000322809    0.003578147
     12        6          -0.005167215   -0.005121382   -0.002458476
     13        7           0.013642257    0.018523067   -0.011193732
     14        6          -0.001393801   -0.016534631    0.042038702
     15        6           0.005632517   -0.005110617   -0.024085737
     16        6           0.008465528   -0.008079950   -0.008037979
     17        6           0.025698863   -0.024495681    0.077655905
     18       16           0.021715034   -0.017877586   -0.090909813
     19        6          -0.051164833    0.047338605    0.051625229
     20        6          -0.021259403    0.015738561   -0.006461855
     21        8           0.022910447   -0.026953602    0.009741691
     22        6           0.008077476   -0.021019146    0.018916891
     23        7           0.006097420    0.016923275   -0.049766518
     24        7          -0.003563828   -0.013143402    0.010860617
     25        7           0.012243118   -0.003717265   -0.028557451
     26        6          -0.013726132   -0.046342591    0.009161449
     27        6          -0.000812771    0.010764299    0.005665597
     28        6           0.006851865    0.010878239   -0.008147762
     29        6           0.002450749   -0.008228360   -0.009586646
     30        6          -0.004611181   -0.010885833    0.002424828
     31        6           0.002487118    0.038547317    0.026194737
     32        1           0.010138182    0.006297757    0.025156247
     33        1           0.015868423    0.010293110   -0.019617490
     34        1          -0.004786664   -0.027766429   -0.003185106
     35        1          -0.003046034   -0.017711224   -0.004003509
     36        1          -0.011793952    0.016153533    0.000560625
     37        1           0.013846364   -0.014699500   -0.003517187
     38        1          -0.006913471   -0.021729171   -0.010527978
     39        1          -0.014518806    0.015920218    0.006230910
     40        1           0.008072694    0.016913086    0.008976233
     41        1          -0.019088828   -0.010719526   -0.021255451
     42        1           0.021036668    0.024225223   -0.005031240
     43        1          -0.001115182    0.001419382   -0.016144294
     44        1          -0.012571764    0.011824502   -0.003978182
     45        1           0.013831696   -0.011343804    0.005842261
     46        1           0.000035565    0.005591377   -0.030210068
     47        1          -0.012609881    0.021518777    0.022029757
     48        1          -0.003548773   -0.019508642   -0.002298774
     49        1          -0.010148855   -0.010024359    0.014189744
     50        1          -0.006723009    0.008653742    0.016917123
     51        1           0.003501314    0.017878700    0.001122426
 -------------------------------------------------------------------
 Cartesian Forces:  Max     0.090909813 RMS     0.020493875
 Leave Link  716 at Fri Aug 26 20:17:31 2022, MaxMem=  209715200 cpu:       0.2
 (Enter /opt/gaussian/l103.exe)

 GradGradGradGradGradGradGradGradGradGradGradGradGradGradGradGradGradGrad
 Berny optimization.
 Internal  Forces:  Max     0.062172441 RMS     0.011670613
 Search for a local minimum.
 Step number   1 out of a maximum of  287
 All quantities printed in internal units (Hartrees-Bohrs-Radians)
 RMS Force = .11671D-01 SwitMx=.10000D-02 MixMth= 1
 Mixed Optimization -- RFO/linear search
 Second derivative matrix not updated -- first step.
 ITU=  0
     Eigenvalues ---    0.00231   0.00823   0.00894   0.01084   0.01136
     Eigenvalues ---    0.01184   0.01388   0.01407   0.01469   0.01516
     Eigenvalues ---    0.01566   0.01598   0.01611   0.01614   0.01702
     Eigenvalues ---    0.01710   0.01719   0.01744   0.01773   0.01779
     Eigenvalues ---    0.01859   0.01901   0.01908   0.01975   0.01979
     Eigenvalues ---    0.02048   0.02055   0.02056   0.02067   0.02089
     Eigenvalues ---    0.02106   0.02120   0.02127   0.02128   0.02152
     Eigenvalues ---    0.02160   0.02179   0.02184   0.02187   0.02245
     Eigenvalues ---    0.02281   0.02307   0.04696   0.04783   0.06485
     Eigenvalues ---    0.06574   0.07649   0.07776   0.10326   0.10759
     Eigenvalues ---    0.13479   0.13723   0.15997   0.15999   0.15999
     Eigenvalues ---    0.15999   0.16000   0.16000   0.16000   0.16000
     Eigenvalues ---    0.16000   0.16000   0.16000   0.16000   0.16000
     Eigenvalues ---    0.16000   0.16000   0.16000   0.21999   0.22000
     Eigenvalues ---    0.22077   0.22152   0.22508   0.22581   0.22953
     Eigenvalues ---    0.23361   0.23490   0.23634   0.23997   0.24079
     Eigenvalues ---    0.24456   0.24716   0.24842   0.24890   0.24963
     Eigenvalues ---    0.24964   0.24988   0.24994   0.24995   0.25000
     Eigenvalues ---    0.25000   0.25000   0.28478   0.30351   0.30460
     Eigenvalues ---    0.30597   0.30670   0.31248   0.31267   0.31476
     Eigenvalues ---    0.33415   0.33421   0.33447   0.33545   0.33599
     Eigenvalues ---    0.33608   0.33609   0.33751   0.33946   0.34587
     Eigenvalues ---    0.34702   0.34796   0.34906   0.34906   0.34962
     Eigenvalues ---    0.36079   0.37658   0.37938   0.38418   0.38783
     Eigenvalues ---    0.39311   0.39807   0.40032   0.40118   0.40792
     Eigenvalues ---    0.41485   0.41784   0.42049   0.42228   0.42765
     Eigenvalues ---    0.43081   0.43957   0.44382   0.44527   0.45847
     Eigenvalues ---    0.45959   0.46003   0.46193   0.46834   0.46945
     Eigenvalues ---    0.47458   0.48422   0.49064   0.52055   0.53918
     Eigenvalues ---    0.76898   0.86617
 RFO step:  Lambda=-8.36656888D-02 EMin= 2.30742301D-03
 Linear search not attempted -- first point.
 Maximum step size (   0.300) exceeded in Quadratic search.
    -- Step size scaled by   0.691
 Iteration  1 RMS(Cart)=  0.07393289 RMS(Int)=  0.00068088
 Iteration  2 RMS(Cart)=  0.00201348 RMS(Int)=  0.00005799
 Iteration  3 RMS(Cart)=  0.00000144 RMS(Int)=  0.00005799
 Iteration  4 RMS(Cart)=  0.00000000 RMS(Int)=  0.00005799
 Variable       Old X    -DE/DX   Delta X   Delta X   Delta X     New X
                                 (Linear)    (Quad)   (Total)
    R1        2.72500   0.00151   0.00000   0.00219   0.00219   2.72719
    R2        2.12206  -0.02782   0.00000  -0.04849  -0.04849   2.07356
    R3        2.12242  -0.02718   0.00000  -0.04740  -0.04740   2.07502
    R4        2.11813  -0.02834   0.00000  -0.04914  -0.04914   2.06899
    R5        2.64349  -0.04212   0.00000  -0.05345  -0.05348   2.59000
    R6        2.54249  -0.01146   0.00000  -0.01233  -0.01238   2.53012
    R7        2.66231  -0.03681   0.00000  -0.04816  -0.04815   2.61416
    R8        2.05828  -0.01825   0.00000  -0.02914  -0.02914   2.02915
    R9        2.74470  -0.02685   0.00000  -0.04024  -0.04020   2.70449
   R10        2.71393   0.02603   0.00000   0.03710   0.03710   2.75103
   R11        2.55914  -0.04651   0.00000  -0.05168  -0.05168   2.50747
   R12        2.06007  -0.01942   0.00000  -0.03109  -0.03109   2.02897
   R13        2.65154  -0.00815   0.00000  -0.01017  -0.01017   2.64137
   R14        2.65181  -0.01054   0.00000  -0.01323  -0.01322   2.63859
   R15        2.62643  -0.00866   0.00000  -0.01078  -0.01078   2.61565
   R16        2.07996  -0.02042   0.00000  -0.03361  -0.03361   2.04635
   R17        2.66657  -0.01844   0.00000  -0.02481  -0.02482   2.64175
   R18        2.08318  -0.02508   0.00000  -0.04146  -0.04146   2.04172
   R19        2.66917  -0.02019   0.00000  -0.02719  -0.02720   2.64197
   R20        2.68633   0.01125   0.00000   0.01536   0.01536   2.70170
   R21        2.62410  -0.00546   0.00000  -0.00670  -0.00670   2.61740
   R22        2.08274  -0.02242   0.00000  -0.03705  -0.03705   2.04569
   R23        2.08013  -0.02071   0.00000  -0.03410  -0.03410   2.04603
   R24        2.73241   0.01515   0.00000   0.02220   0.02220   2.75461
   R25        2.64305  -0.01787   0.00000  -0.02277  -0.02277   2.62028
   R26        2.81628   0.01433   0.00000   0.02369   0.02369   2.83997
   R27        2.13755  -0.03000   0.00000  -0.05338  -0.05338   2.08418
   R28        2.13968  -0.03198   0.00000  -0.05706  -0.05706   2.08262
   R29        2.71422   0.00527   0.00000   0.00411   0.00396   2.71818
   R30        2.60876  -0.01873   0.00000  -0.02337  -0.02344   2.58532
   R31        2.60093  -0.01921   0.00000  -0.02409  -0.02414   2.57680
   R32        2.06351  -0.01590   0.00000  -0.02557  -0.02557   2.03794
   R33        3.15655   0.05614   0.00000   0.08299   0.08311   3.23966
   R34        2.05828  -0.01732   0.00000  -0.02765  -0.02765   2.03063
   R35        3.15023   0.06217   0.00000   0.09119   0.09129   3.24152
   R36        2.06162  -0.01846   0.00000  -0.02962  -0.02962   2.03201
   R37        2.34533  -0.03588   0.00000  -0.02610  -0.02610   2.31923
   R38        2.91105  -0.01378   0.00000  -0.02585  -0.02585   2.88520
   R39        2.71816  -0.01017   0.00000  -0.01459  -0.01459   2.70357
   R40        2.13488  -0.03060   0.00000  -0.05426  -0.05426   2.08062
   R41        2.13348  -0.03291   0.00000  -0.05824  -0.05824   2.07523
   R42        2.59494  -0.01109   0.00000  -0.01203  -0.01206   2.58288
   R43        2.67622  -0.03348   0.00000  -0.04613  -0.04613   2.63009
   R44        2.37259  -0.00308   0.00000  -0.00132  -0.00134   2.37124
   R45        2.70680  -0.02613   0.00000  -0.03663  -0.03662   2.67018
   R46        2.63535  -0.01157   0.00000  -0.01526  -0.01524   2.62011
   R47        2.73825  -0.04596   0.00000  -0.07139  -0.07133   2.66692
   R48        2.62823  -0.01109   0.00000  -0.01316  -0.01317   2.61506
   R49        2.07752  -0.01996   0.00000  -0.03274  -0.03274   2.04478
   R50        2.65488  -0.00732   0.00000  -0.00819  -0.00821   2.64667
[...]
 ! D118  D(48,27,28,29)       -179.7709         -DE/DX =    0.0                 !
 ! D119  D(48,27,28,49)         -0.0333         -DE/DX =    0.0                 !
 ! D120  D(27,28,29,30)         -0.0573         -DE/DX =    0.0                 !
 ! D121  D(27,28,29,50)        179.5789         -DE/DX =    0.0                 !
 ! D122  D(49,28,29,30)       -179.7977         -DE/DX =    0.0                 !
 ! D123  D(49,28,29,50)         -0.1615         -DE/DX =    0.0                 !
 ! D124  D(28,29,30,31)         -0.1593         -DE/DX =    0.0                 !
 ! D125  D(28,29,30,51)        178.9774         -DE/DX =    0.0                 !
 ! D126  D(50,29,30,31)       -179.7938         -DE/DX =    0.0                 !
 ! D127  D(50,29,30,51)         -0.6571         -DE/DX =    0.0                 !
 ! D128  D(29,30,31,23)       -178.8665         -DE/DX =    0.0                 !
 ! D129  D(29,30,31,26)          0.2451         -DE/DX =    0.0                 !
 ! D130  D(51,30,31,23)          2.0028         -DE/DX =    0.0                 !
 ! D131  D(51,30,31,26)       -178.8857         -DE/DX =    0.0                 !
 --------------------------------------------------------------------------------
 GradGradGradGradGradGradGradGradGradGradGradGradGradGradGradGradGradGrad

 Largest change from initial coordinates is atom   50       1.120 Angstoms.
 Leave Link  103 at Fri Aug 26 20:57:22 2022, MaxMem=  209715200 cpu:       0.7
 (Enter /opt/gaussian/l202.exe)
 Stoichiometry    C23H20N6OS
 Framework group  C1[X(C23H20N6OS)]
 Deg. of freedom   147
 Full point group                 C1      NOp   1
 RotChk:  IX=0 Diff= 5.82D-16
 Largest Abelian subgroup         C1      NOp   1
 Largest concise Abelian subgroup C1      NOp   1
                         Standard orientation:                         
 ---------------------------------------------------------------------
 Center     Atomic      Atomic             Coordinates (Angstroms)
 Number     Number       Type             X           Y           Z
 ---------------------------------------------------------------------
      1          6           0       -8.247759   -2.449124    0.808853
      2          7           0       -7.200420   -1.495886    0.517120
      3          6           0       -5.884371   -1.720015    0.318520
      4          6           0       -5.284414   -0.502413    0.102161
      5          6           0       -6.352739    0.426007    0.193861
      6          7           0       -7.492479   -0.181537    0.440387
      7          6           0       -3.866624   -0.223811   -0.161688
      8          6           0       -3.070563   -1.124998   -0.870787
      9          6           0       -1.734310   -0.868817   -1.114747
     10          6           0       -1.151367    0.304631   -0.651756
     11          6           0       -1.930132    1.211965    0.051874
     12          6           0       -3.270352    0.950134    0.290915
     13          7           0        0.224441    0.602233   -0.945694
     14          6           0        0.528904    1.910600   -1.529090
     15          6           0        1.119574    2.919595   -0.571278
     16          6           0        1.619149    4.197077   -1.041438
     17          6           0        2.101477    4.984508   -0.068851
     18         16           0        1.980971    4.205409    1.534795
     19          6           0        1.240879    2.772194    0.759685
     20          6           0        1.195738   -0.333020   -0.693916
     21          8           0        0.966932   -1.383606   -0.114470
     22          6           0        2.606023   -0.013049   -1.176668
     23          7           0        3.509786   -1.100555   -0.960369
     24          7           0        3.828665   -1.924432   -1.998706
     25          7           0        4.605155   -2.839680   -1.590196
     26          6           0        4.830795   -2.664106   -0.234301
     27          6           0        5.608737   -3.399335    0.659374
     28          6           0        5.641557   -2.971739    1.963786
     29          6           0        4.910696   -1.834693    2.375867
     30          6           0        4.139571   -1.106464    1.502088
     31          6           0        4.115705   -1.546007    0.175909
     32          1           0       -8.627545   -2.294826    1.808331
     33          1           0       -9.054184   -2.329825    0.101664
     34          1           0       -7.847182   -3.448201    0.728997
     35          1           0       -5.467182   -2.700223    0.362476
     36          1           0       -6.321509    1.484283    0.070294
     37          1           0       -3.505233   -2.026302   -1.257330
     38          1           0       -1.144791   -1.581685   -1.652293
     39          1           0       -1.496971    2.118076    0.426011
     40          1           0       -3.846325    1.656387    0.856722
     41          1           0        1.194821    1.794967   -2.376099
     42          1           0       -0.396231    2.298610   -1.931615
     43          1           0        1.604032    4.486203   -2.073465
     44          1           0        2.521859    5.960725   -0.156365
     45          1           0        0.944357    1.941096    1.359360
     46          1           0        2.599132    0.170126   -2.240692
     47          1           0        2.977793    0.875364   -0.685167
     48          1           0        6.152172   -4.260527    0.326708
     49          1           0        6.224480   -3.504765    2.688614
     50          1           0        4.957498   -1.537298    3.405535
     51          1           0        3.576946   -0.255612    1.829321
 ---------------------------------------------------------------------
 Rotational constants (GHZ):      0.1800891      0.0645416      0.0525841
 Leave Link  202 at Fri Aug 26 20:57:22 2022, MaxMem=  209715200 cpu:       0.0
 (Enter /opt/gaussian/l601.exe)
 Copying SCF densities to generalized density rwf, IOpCl= 0 IROHF=0.

 **********************************************************************

            Population analysis using the SCF density.

 **********************************************************************

 Orbital symmetries:
       Occupied  (A) (A) (A) (A) (A) (A) (A) (A) (A) (A) (A) (A)
                 (A) (A) (A) (A) (A) (A) (A) (A) (A) (A) (A) (A)
                 (A) (A) (A) (A) (A) (A) (A) (A) (A) (A) (A) (A)
                 (A) (A) (A) (A) (A) (A) (A) (A) (A) (A) (A) (A)
                 (A) (A) (A) (A) (A) (A) (A) (A) (A) (A) (A) (A)
                 (A) (A) (A) (A) (A) (A) (A) (A) (A) (A) (A) (A)
                 (A) (A) (A) (A) (A) (A) (A) (A) (A) (A) (A) (A)
                 (A) (A) (A) (A) (A) (A) (A) (A) (A) (A) (A) (A)
                 (A) (A) (A) (A) (A) (A) (A) (A) (A) (A) (A) (A)
                 (A) (A) (A) (A)
       Virtual   (A) (A) (A) (A) (A) (A) (A) (A) (A) (A) (A) (A)
                 (A) (A) (A) (A) (A) (A) (A) (A) (A) (A) (A) (A)
                 (A) (A) (A) (A) (A) (A) (A) (A) (A) (A) (A) (A)
                 (A) (A) (A) (A) (A) (A) (A) (A) (A) (A) (A) (A)
                 (A) (A) (A) (A) (A) (A) (A) (A) (A) (A) (A) (A)
                 (A) (A) (A) (A) (A) (A) (A) (A) (A) (A) (A) (A)
                 (A) (A) (A) (A) (A) (A) (A) (A) (A) (A) (A) (A)
                 (A) (A) (A) (A) (A) (A) (A) (A) (A) (A) (A) (A)
                 (A) (A) (A) (A) (A) (A) (A) (A) (A) (A) (A) (A)
                 (A) (A) (A) (A) (A) (A) (A) (A) (A) (A) (A) (A)
                 (A) (A) (A) (A) (A) (A) (A) (A) (A) (A) (A) (A)
                 (A) (A) (A) (A) (A) (A) (A) (A) (A) (A) (A) (A)
                 (A) (A) (A) (A) (A) (A) (A) (A) (A) (A) (A) (A)
                 (A) (A) (A) (A) (A) (A) (A) (A) (A) (A) (A) (A)
                 (A) (A) (A) (A) (A) (A) (A) (A) (A) (A) (A) (A)
                 (A) (A) (A) (A) (A) (A) (A) (A) (A) (A) (A) (A)
                 (A) (A) (A) (A) (A) (A) (A) (A) (A) (A) (A) (A)
                 (A) (A) (A) (A) (A) (A) (A)
 The electronic state is 1-A.
 Alpha  occ. eigenvalues --  -91.98733 -20.54843 -15.66291 -15.65388 -15.64886
 Alpha  occ. eigenvalues --  -15.62074 -15.61113 -15.59660 -11.38746 -11.31069
 Alpha  occ. eigenvalues --  -11.31007 -11.29649 -11.29382 -11.29151 -11.29141
 Alpha  occ. eigenvalues --  -11.28251 -11.27978 -11.27822 -11.26729 -11.26445
 Alpha  occ. eigenvalues --  -11.25820 -11.25808 -11.25317 -11.25180 -11.25173
 Alpha  occ. eigenvalues --  -11.24675 -11.24330 -11.24281 -11.24128 -11.24022
 Alpha  occ. eigenvalues --  -11.23832  -9.00513  -6.68643  -6.68510  -6.68247
 Alpha  occ. eigenvalues --   -1.47409  -1.42115  -1.40351  -1.28563  -1.24835
 Alpha  occ. eigenvalues --   -1.19955  -1.17691  -1.17146  -1.14234  -1.09179
 Alpha  occ. eigenvalues --   -1.06408  -1.05632  -1.05224  -1.03110  -1.02772
 Alpha  occ. eigenvalues --   -1.01452  -1.00747  -0.95906  -0.94953  -0.88805
 Alpha  occ. eigenvalues --   -0.87779  -0.85206  -0.84889  -0.82679  -0.80430
 Alpha  occ. eigenvalues --   -0.80029  -0.78089  -0.77509  -0.75873  -0.73630
 Alpha  occ. eigenvalues --   -0.73409  -0.72430  -0.72204  -0.70704  -0.69126
 Alpha  occ. eigenvalues --   -0.66446  -0.66086  -0.65858  -0.65453  -0.64005
 Alpha  occ. eigenvalues --   -0.63866  -0.63196  -0.62263  -0.61688  -0.60964
 Alpha  occ. eigenvalues --   -0.60672  -0.60130  -0.59681  -0.59229  -0.57918
 Alpha  occ. eigenvalues --   -0.56930  -0.56189  -0.55594  -0.54486  -0.53563
 Alpha  occ. eigenvalues --   -0.53258  -0.52987  -0.52788  -0.52281  -0.51425
 Alpha  occ. eigenvalues --   -0.50514  -0.50128  -0.49363  -0.48179  -0.44872
 Alpha  occ. eigenvalues --   -0.44512  -0.42922  -0.42217  -0.42007  -0.37362
 Alpha  occ. eigenvalues --   -0.36549  -0.36059  -0.35469  -0.34559  -0.33616
 Alpha  occ. eigenvalues --   -0.31999  -0.29555
 Alpha virt. eigenvalues --    0.09938   0.10602   0.11649   0.13487   0.15879
 Alpha virt. eigenvalues --    0.16307   0.16594   0.17596   0.18807   0.20626
 Alpha virt. eigenvalues --    0.21608   0.23440   0.23498   0.23696   0.24564
 Alpha virt. eigenvalues --    0.24797   0.25171   0.25741   0.26811   0.27216
 Alpha virt. eigenvalues --    0.27870   0.28655   0.29338   0.29810   0.29931
 Alpha virt. eigenvalues --    0.31471   0.31906   0.32401   0.32524   0.32841
 Alpha virt. eigenvalues --    0.33566   0.33976   0.34837   0.36259   0.37002
 Alpha virt. eigenvalues --    0.37883   0.37905   0.39709   0.40850   0.41213
 Alpha virt. eigenvalues --    0.42127   0.42961   0.43482   0.44014   0.44735
 Alpha virt. eigenvalues --    0.45683   0.46652   0.47086   0.47397   0.48644
 Alpha virt. eigenvalues --    0.49396   0.50096   0.52188   0.52864   0.53585
 Alpha virt. eigenvalues --    0.54248   0.54321   0.55527   0.56000   0.58140
 Alpha virt. eigenvalues --    0.59178   0.59551   0.61532   0.62033   0.62611
 Alpha virt. eigenvalues --    0.64485   0.64707   0.71153   0.71561   0.72103
 Alpha virt. eigenvalues --    0.72987   0.73398   0.74192   0.74334   0.74798
 Alpha virt. eigenvalues --    0.75670   0.76567   0.77162   0.77649   0.78018
 Alpha virt. eigenvalues --    0.79071   0.79681   0.80019   0.80716   0.81625
 Alpha virt. eigenvalues --    0.81925   0.82361   0.82894   0.83479   0.83666
 Alpha virt. eigenvalues --    0.83764   0.84670   0.85819   0.85889   0.86116
 Alpha virt. eigenvalues --    0.86320   0.86630   0.87279   0.87678   0.88222
 Alpha virt. eigenvalues --    0.88495   0.89296   0.89930   0.90749   0.90944
 Alpha virt. eigenvalues --    0.92094   0.92388   0.93376   0.94136   0.94463
 Alpha virt. eigenvalues --    0.94662   0.95913   0.96519   0.97013   0.97789
 Alpha virt. eigenvalues --    0.98460   1.00097   1.00529   1.00710   1.01395
 Alpha virt. eigenvalues --    1.02537   1.03405   1.04712   1.05093   1.05531
 Alpha virt. eigenvalues --    1.06187   1.08093   1.08535   1.09767   1.10409
 Alpha virt. eigenvalues --    1.11190   1.11585   1.11631   1.12587   1.12924
 Alpha virt. eigenvalues --    1.13119   1.13814   1.14059   1.14529   1.15286
 Alpha virt. eigenvalues --    1.15714   1.16037   1.16902   1.17506   1.17850
 Alpha virt. eigenvalues --    1.18280   1.19254   1.19956   1.20553   1.21402
 Alpha virt. eigenvalues --    1.21733   1.22081   1.22725   1.23321   1.24148
 Alpha virt. eigenvalues --    1.25464   1.25899   1.26097   1.27835   1.28027
 Alpha virt. eigenvalues --    1.29188   1.29939   1.30133   1.30460   1.32153
 Alpha virt. eigenvalues --    1.32800   1.34516   1.35200   1.36185   1.37869
 Alpha virt. eigenvalues --    1.38386   1.39533   1.40032   1.42485   1.43939
 Alpha virt. eigenvalues --    1.44184   1.44649   1.44989   1.47254   1.47664
 Alpha virt. eigenvalues --    1.48972   1.49170   1.52581   1.53141   1.55729
 Alpha virt. eigenvalues --    1.56252   1.59697   1.60230   1.61703   1.62481
 Alpha virt. eigenvalues --    1.63519   1.65903   1.67159   1.68997   1.71512
 Alpha virt. eigenvalues --    1.74309   1.75567   1.76942   1.80542   1.84513
 Alpha virt. eigenvalues --    1.88154   1.89586   1.91214   1.95457   1.99807
 Alpha virt. eigenvalues --    2.04714   2.07637   2.16825   2.24508   2.25319
 Alpha virt. eigenvalues --    2.34595
          Condensed to atoms (all electrons):
 Mulliken atomic charges:
              1
     1  C   -0.171139
     2  N   -0.680547
     3  C    0.259380
     4  C   -0.324000
     5  C    0.088994
     6  N   -0.255619
     7  C    0.053227
     8  C   -0.217688
     9  C   -0.141977
    10  C    0.317638
    11  C   -0.210864
    12  C   -0.210950
    13  N   -0.983954
    14  C   -0.082975
    15  C    0.067576
    16  C   -0.103937
    17  C   -0.551912
    18  S    0.478654
    19  C   -0.603047
    20  C    0.786863
    21  O   -0.571269
    22  C   -0.131208
    23  N   -0.882728
    24  N    0.094310
    25  N   -0.335903
    26  C   -0.020129
    27  C   -0.079000
    28  C   -0.233523
    29  C   -0.205696
    30  C   -0.064382
    31  C    0.487724
    32  H    0.196075
    33  H    0.200682
    34  H    0.169861
    35  H    0.254477
    36  H    0.226296
    37  H    0.210225
    38  H    0.237452
    39  H    0.226378
    40  H    0.216200
    41  H    0.192049
    42  H    0.226413
    43  H    0.222383
    44  H    0.238526
    45  H    0.250692
    46  H    0.248255
    47  H    0.239631
    48  H    0.239884
    49  H    0.203629
    50  H    0.205176
    51  H    0.223800
 Sum of Mulliken atomic charges =   0.00000
 Mulliken charges with hydrogens summed into heavy atoms:
              1
     1  C    0.395479
     2  N   -0.680547
     3  C    0.513857
     4  C   -0.324000
     5  C    0.315290
     6  N   -0.255619
     7  C    0.053227
     8  C   -0.007463
     9  C    0.095475
    10  C    0.317638
    11  C    0.015514
    12  C    0.005250
    13  N   -0.983954
    14  C    0.335486
    15  C    0.067576
    16  C    0.118446
    17  C   -0.313386
    18  S    0.478654
    19  C   -0.352355
    20  C    0.786863
    21  O   -0.571269
    22  C    0.356677
    23  N   -0.882728
    24  N    0.094310
    25  N   -0.335903
    26  C   -0.020129
    27  C    0.160884
    28  C   -0.029894
    29  C   -0.000520
    30  C    0.159418
    31  C    0.487724
 Sum of Mulliken charges with hydrogens summed into heavy atoms =   0.00000
 Electronic spatial extent (au):  <R**2>=          19660.1249
 Charge=              0.0000 electrons
 Dipole moment (field-independent basis, Debye):
    X=             -1.2008    Y=              3.5553    Z=              0.7069  Tot=              3.8186
 Quadrupole moment (field-independent basis, Debye-Ang):
   XX=           -193.9224   YY=           -174.8833   ZZ=           -188.6527
   XY=             33.6032   XZ=             11.7441   YZ=            -18.9352
 Traceless Quadrupole moment (field-independent basis, Debye-Ang):
   XX=             -8.1029   YY=             10.9361   ZZ=             -2.8333
   XY=             33.6032   XZ=             11.7441   YZ=            -18.9352
 Octapole moment (field-independent basis, Debye-Ang**2):
  XXX=            -19.8398  YYY=             41.9503  ZZZ=             22.0368  XYY=            -67.0217
  XXY=           -171.4536  XXZ=            106.7906  XZZ=             -2.4361  YZZ=             16.9662
  YYZ=             -0.0169  XYZ=            -55.9701
 Hexadecapole moment (field-independent basis, Debye-Ang**3):
 XXXX=         -19967.3596 YYYY=          -5745.3275 ZZZZ=          -1546.6170 XXXY=           1366.5462
 XXXZ=            219.9211 YYYX=            448.5044 YYYZ=           -235.4913 ZZZX=            121.8342
 ZZZY=           -124.1268 XXYY=          -3539.7847 XXZZ=          -3590.4357 YYZZ=          -1353.9467
 XXYZ=           -454.4300 YYXZ=             62.9032 ZZXY=             89.4872
 N-N= 2.921883479963D+03 E-N=-9.786987190189D+03  KE= 1.682487753655D+03
 No NMR shielding tensors so no spin-rotation constants.
 Leave Link  601 at Fri Aug 26 20:57:22 2022, MaxMem=  209715200 cpu:       1.4
 (Enter /opt/gaussian/l9999.exe)
 1\1\GINC-LQCAPF-6\FOpt\RHF\6-31G\C23H20N6O1S1\LQCAPF-6\26-Aug-2022\0\\
 #p opt hf/6-31G\\Mol18.out\\0,1\C,12.6477386379,-8.3970578072,-1.89114
 29921\N,13.9001570561,-9.0479508219,-1.5773335071\C,15.112352056,-8.49
 27619648,-1.3675468868\C,16.0009340899,-9.5143530545,-1.130720034\C,15
 .2069649481,-10.6860282128,-1.2228075819\N,13.9530686187,-10.392562877
 2,-1.4883567369\C,17.4392254369,-9.4185319052,-0.8487640913\C,17.96887
 13308,-8.337567315,-0.1418957956\C,19.3228718417,-8.2411120128,0.11905
 58445\C,20.192637189,-9.2302054164,-0.3240770529\C,19.6812108202,-10.3
 126382105,-1.0252235129\C,18.3218659312,-10.4046049405,-1.2813646842\N
 ,21.5948133392,-9.1632374988,-0.0122550802\C,22.2161584166,-10.3450457
 491,0.5895182025\C,23.0578226383,-11.177438144,-0.3502104536\C,23.8613
 566491,-12.2804267619,0.1400299642\C,24.5418075849,-12.92649913,-0.818
 1926339\S,24.2470811256,-12.217981707,-2.4319889065\C,23.1548568216,-1
 1.015326539,-1.6814536196\C,22.2977564342,-8.012737079,-0.2647018256\O
 ,21.8154367222,-7.060715869,-0.8587255663\C,23.7365002198,-7.956948541
 6,0.2365336094\N,24.3347471997,-6.6762523829,0.017077682\N,24.41858374
 26,-5.7893244094,1.0490319589\N,24.9403968441,-4.709366106,0.638059740
 1\C,25.2212350986,-4.8329701354,-0.713251355\C,25.7968762716,-3.930818
 8081,-1.6072151674\C,25.9551236904,-4.346949664,-2.9061381829\C,25.544
 938238,-5.6366730747,-3.3125905125\C,24.9743568316,-6.53048322,-2.4385
 307825\C,24.8214225236,-6.1003249292,-1.1178890436\H,12.3332258663,-8.
 6519892977,-2.8926879938\H,11.8894484928,-8.7127065636,-1.1911209403\H
 ,12.7783198429,-7.3280864411,-1.8187347146\H,15.2654444627,-7.43884126
 07,-1.41854161\H,15.5062558447,-11.6999618937,-1.0865924822\H,17.31305
 62947,-7.574250415,0.2295279628\H,19.7032957768,-7.3965204915,0.654417
 8803\H,20.3366350506,-11.08088212,-1.3842026022\H,17.9532151418,-11.23
 9577358,-1.844919609\H,22.819148745,-10.0555663657,1.4420694584\H,21.4
 158622776,-10.9534428853,0.9867993433\H,23.9071497744,-12.5549253591,1
 .175140702\H,25.1967482348,-13.7618206863,-0.714894997\H,22.6634962904
 ,-10.2929788594,-2.293857548\H,23.7627210477,-8.1266493087,1.302489323
 6\H,24.3295951992,-8.7248032975,-0.240646679\H,26.0975018344,-2.956402
 788,-1.2789210873\H,26.3917618949,-3.6887240873,-3.6309666622\H,25.679
 7841263,-5.9210076498,-4.338173729\H,24.6524654539,-7.4997685837,-2.76
 17150118\\Version=EM64L-G09RevC.01\State=1-A\HF=-1681.0076584\RMSD=7.0
 89e-09\RMSF=3.740e-06\Dipole=-0.0951801,-1.4754106,-0.2667297\Quadrupo
 le=7.385681,-5.431057,-1.954624,-25.0427837,-4.4997294,-16.1455624\PG=
 C01 [X(C23H20N6O1S1)]\\@


 THE RED LIGHT IS ALWAYS LONGER THAN THE GREEN LIGHT.

                     -- PETER'S THEORY OF RELATIVITY
 Job cpu time:  0 days  5 hours 30 minutes 13.1 seconds.
 File lengths (MBytes):  RWF=     71 Int=      0 D2E=      0 Chk=     10 Scr=      1
 Normal termination of Gaussian 09 at Fri Aug 26 20:57:22 2022.
