 Entering Gaussian System, Link 0=g09
 Input=Mol10.gjf
 Output=Mol10.log
 Initial command:
 /opt/gaussian/l1.exe /home/scr/lqcapf-6/Gau-225225.inp -scrdir=/home/scr/lqcapf-6/
 Entering Link 1 = /opt/gaussian/l1.exe PID=    225227.
  
 Copyright (c) 1988,1990,1992,1993,1995,1998,2003,2009,2011,
            Gaussian, Inc.  All Rights Reserved.
  
 This is part of the Gaussian(R) 09 program.  It is based on
 the Gaussian(R) 03 system (copyright 2003, Gaussian, Inc.),
 the Gaussian(R) 98 system (copyright 1998, Gaussian, Inc.),
 the Gaussian(R) 94 system (copyright 1995, Gaussian, Inc.),
 the Gaussian 92(TM) system (copyright 1992, Gaussian, Inc.),
 the Gaussian 90(TM) system (copyright 1990, Gaussian, Inc.),
 the Gaussian 88(TM) system (copyright 1988, Gaussian, Inc.),
 the Gaussian 86(TM) system (copyright 1986, Carnegie Mellon
 University), and the Gaussian 82(TM) system (copyright 1983,
 Carnegie Mellon University). Gaussian is a federally registered
 trademark of Gaussian, Inc.
  
 This software contains proprietary and confidential information,
 including trade secrets, belonging to Gaussian, Inc.
  
 This software is provided under written license and may be
 used, copied, transmitted, or stored only in accord with that
 written license.
  
 The following legend is applicable only to US Government
 contracts under FAR:
  
                    RESTRICTED RIGHTS LEGEND
  
 Use, reproduction and disclosure by the US Government is
 subject to restrictions as set forth in subparagraphs (a)
 and (c) of the Commercial Computer Software - Restricted
 Rights clause in FAR 52.227-19.
  
 Gaussian, Inc.
 340 Quinnipiac St., Bldg. 40, Wallingford CT 06492
  
  
 ---------------------------------------------------------------
 Warning -- This program may not be used in any manner that
 competes with the business of Gaussian, Inc. or will provide
 assistance to any competitor of Gaussian, Inc.  The licensee
 of this program is prohibited from giving any competitor of
 Gaussian, Inc. access to this program.  By using this program,
 the user acknowledges that Gaussian, Inc. is engaged in the
 business of creating and licensing software in the field of
 computational chemistry and represents and warrants to the
 licensee that it is not a competitor of Gaussian, Inc. and that
 it will not use this program in any manner prohibited above.
 ---------------------------------------------------------------
  

 Cite this work as:
 Gaussian 09, Revision C.01,
 M. J. Frisch, G. W. Trucks, H. B. Schlegel, G. E. Scuseria, 
 M. A. Robb, J. R. Cheeseman, G. Scalmani, V. Barone, B. Mennucci, 
 G. A. Petersson, H. Nakatsuji, M. Caricato, X. Li, H. P. Hratchian, 
 A. F. Izmaylov, J. Bloino, G. Zheng, J. L. Sonnenberg, M. Hada, 
 M. Ehara, K. Toyota, R. Fukuda, J. Hasegawa, M. Ishida, T. Nakajima, 
 Y. Honda, O. Kitao, H. Nakai, T. Vreven, J. A. Montgomery, Jr., 
 J. E. Peralta, F. Ogliaro, M. Bearpark, J. J. Heyd, E. Brothers, 
 K. N. Kudin, V. N. Staroverov, T. Keith, R. Kobayashi, J. Normand, 
 K. Raghavachari, A. Rendell, J. C. Burant, S. S. Iyengar, J. Tomasi, 
 M. Cossi, N. Rega, J. M. Millam, M. Klene, J. E. Knox, J. B. Cross, 
 V. Bakken, C. Adamo, J. Jaramillo, R. Gomperts, R. E. Stratmann, 
 O. Yazyev, A. J. Austin, R. Cammi, C. Pomelli, J. W. Ochterski, 
 R. L. Martin, K. Morokuma, V. G. Zakrzewski, G. A. Voth, 
 P. Salvador, J. J. Dannenberg, S. Dapprich, A. D. Daniels, 
 O. Farkas, J. B. Foresman, J. V. Ortiz, J. Cioslowski, 
 and D. J. Fox, Gaussian, Inc., Wallingford CT, 2010.
 
 ******************************************
 Gaussian 09:  EM64L-G09RevC.01 23-Sep-2011
                26-Aug-2022 
 ******************************************
 %nprocshared=8
 Will use up to    8 processors via shared memory.
 %mem=1600MB
 ---------------
 #p opt hf/6-31G
 ---------------
 1/18=20,19=15,38=1/1,3;
 2/9=110,12=2,17=6,18=5,40=1/2;
 3/5=1,6=6,11=9,16=1,25=1,30=1,71=1/1,2,3;
 4//1;
 5/5=2,38=5/2;
 6/7=2,8=2,9=2,10=2,28=1/1;
 7//1,2,3,16;
 1/18=20,19=15/3(2);
 2/9=110/2;
 99//99;
 2/9=110/2;
 3/5=1,6=6,11=9,16=1,25=1,30=1,71=1/1,2,3;
 4/5=5,16=3/1;
 5/5=2,38=5/2;
 7//1,2,3,16;
 1/18=20,19=15/3(-5);
 2/9=110/2;
 6/7=2,8=2,9=2,10=2,19=2,28=1/1;
 99/9=1/99;
 Leave Link    1 at Fri Aug 26 15:01:11 2022, MaxMem=  209715200 cpu:       0.1
 (Enter /opt/gaussian/l101.exe)
 ---------
 Mol10.out
 ---------
 Charge =  0 Multiplicity = 1
 Symbolic Z-Matrix:
 N                     13.7579  -10.1192  -0.5099 
 C                     14.4528  -8.9362   -0.4237 
 O                     13.8983  -7.9277    0.0606 
 C                     15.8517  -8.901    -0.9309 
 C                     16.3043  -7.7343   -1.5557 
 C                     17.6028  -7.6477   -2.0458 
 C                     18.4954  -8.7312   -1.8921 
 C                     18.0359  -9.8958   -1.2342 
 C                     16.7278  -9.977    -0.7708 
 N                     19.8177  -8.6699   -2.4059 
 C                     20.429   -9.9129   -2.8231 
 C                     21.2345  -10.6499  -1.8089 
 C                     21.8799  -11.8876  -2.1467 
 C                     22.551   -12.4157  -1.067 
 S                     22.3989  -11.4495   0.286 
 C                     21.4597  -10.3121  -0.4893 
 C                     20.5798  -7.4966   -2.3069 
 O                     20.0888  -6.4328   -1.8996 
 C                     22.0482  -7.5851   -2.7636 
 N                     22.8333  -6.404    -2.526 
 N                     22.7126  -5.2459   -3.2575 
 N                     23.2625  -4.2687   -2.6953 
 C                     23.7787  -4.6794   -1.4226 
 C                     24.4729  -4.0161   -0.4117 
 C                     24.8338  -4.756     0.71 
 C                     24.5226  -6.1202    0.8296 
 C                     23.8378  -6.8123   -0.1642 
 C                     23.463   -6.0873   -1.2957 
 H                     14.1606  -10.9216  -0.9163 
 H                     12.8218  -10.1571  -0.1932 
 H                     15.6222  -6.8725   -1.6482 
 H                     17.9334  -6.715    -2.5325 
 H                     18.7146  -10.7478  -1.0674 
 H                     16.4036  -10.8927  -0.2527 
 H                     19.6067  -10.6033  -3.1817 
 H                     21.0894  -9.7048   -3.7175 
 H                     21.8294  -12.3343  -3.1416 
 H                     23.117   -13.3463  -1.0699 
 H                     21.0706  -9.4264    0.0139 
 H                     22.5482  -8.435    -2.2132 
 H                     22.0548  -7.7931   -3.8736 
 H                     24.7213  -2.949    -0.5028 
 H                     25.3766  -4.2607    1.5295 
 H                     24.829   -6.6574    1.7409 
 H                     23.6001  -7.8788   -0.0593 
 
 NAtoms=     45 NQM=        0 NQMF=       0 NMMI=     45 NMMIF=      0
                NMic=       0 NMicF=      0.
                    Isotopes and Nuclear Properties:
 (Nuclear quadrupole moments (NQMom) in fm**2, nuclear magnetic moments (NMagM)
  in nuclear magnetons)

  Atom         1           2           3           4           5           6           7           8           9          10
 IAtWgt=          14          12          16          12          12          12          12          12          12          14
 AtmWgt=  14.0030740  12.0000000  15.9949146  12.0000000  12.0000000  12.0000000  12.0000000  12.0000000  12.0000000  14.0030740
 NucSpn=           2           0           0           0           0           0           0           0           0           2
 AtZEff=   0.0000000   0.0000000   0.0000000   0.0000000   0.0000000   0.0000000   0.0000000   0.0000000   0.0000000   0.0000000
 NQMom=    2.0440000   0.0000000   0.0000000   0.0000000   0.0000000   0.0000000   0.0000000   0.0000000   0.0000000   2.0440000
 NMagM=    0.4037610   0.0000000   0.0000000   0.0000000   0.0000000   0.0000000   0.0000000   0.0000000   0.0000000   0.4037610

  Atom        11          12          13          14          15          16          17          18          19          20
 IAtWgt=          12          12          12          12          32          12          12          16          12          14
 AtmWgt=  12.0000000  12.0000000  12.0000000  12.0000000  31.9720718  12.0000000  12.0000000  15.9949146  12.0000000  14.0030740
 NucSpn=           0           0           0           0           0           0           0           0           0           2
 AtZEff=   0.0000000   0.0000000   0.0000000   0.0000000   0.0000000   0.0000000   0.0000000   0.0000000   0.0000000   0.0000000
 NQMom=    0.0000000   0.0000000   0.0000000   0.0000000   0.0000000   0.0000000   0.0000000   0.0000000   0.0000000   2.0440000
 NMagM=    0.0000000   0.0000000   0.0000000   0.0000000   0.0000000   0.0000000   0.0000000   0.0000000   0.0000000   0.4037610

  Atom        21          22          23          24          25          26          27          28          29          30
 IAtWgt=          14          14          12          12          12          12          12          12           1           1
 AtmWgt=  14.0030740  14.0030740  12.0000000  12.0000000  12.0000000  12.0000000  12.0000000  12.0000000   1.0078250   1.0078250
 NucSpn=           2           2           0           0           0           0           0           0           1           1
 AtZEff=   0.0000000   0.0000000   0.0000000   0.0000000   0.0000000   0.0000000   0.0000000   0.0000000   0.0000000   0.0000000
 NQMom=    2.0440000   2.0440000   0.0000000   0.0000000   0.0000000   0.0000000   0.0000000   0.0000000   0.0000000   0.0000000
 NMagM=    0.4037610   0.4037610   0.0000000   0.0000000   0.0000000   0.0000000   0.0000000   0.0000000   2.7928460   2.7928460

  Atom        31          32          33          34          35          36          37          38          39          40
 IAtWgt=           1           1           1           1           1           1           1           1           1           1
 AtmWgt=   1.0078250   1.0078250   1.0078250   1.0078250   1.0078250   1.0078250   1.0078250   1.0078250   1.0078250   1.0078250
 NucSpn=           1           1           1           1           1           1           1           1           1           1
 AtZEff=   0.0000000   0.0000000   0.0000000   0.0000000   0.0000000   0.0000000   0.0000000   0.0000000   0.0000000   0.0000000
 NQMom=    0.0000000   0.0000000   0.0000000   0.0000000   0.0000000   0.0000000   0.0000000   0.0000000   0.0000000   0.0000000
 NMagM=    2.7928460   2.7928460   2.7928460   2.7928460   2.7928460   2.7928460   2.7928460   2.7928460   2.7928460   2.7928460

  Atom        41          42          43          44          45
 IAtWgt=           1           1           1           1           1
 AtmWgt=   1.0078250   1.0078250   1.0078250   1.0078250   1.0078250
 NucSpn=           1           1           1           1           1
 AtZEff=   0.0000000   0.0000000   0.0000000   0.0000000   0.0000000
 NQMom=    0.0000000   0.0000000   0.0000000   0.0000000   0.0000000
 NMagM=    2.7928460   2.7928460   2.7928460   2.7928460   2.7928460
 Leave Link  101 at Fri Aug 26 15:01:11 2022, MaxMem=  209715200 cpu:       0.8
 (Enter /opt/gaussian/l103.exe)

 GradGradGradGradGradGradGradGradGradGradGradGradGradGradGradGradGradGrad
 Berny optimization.
 Initialization pass.
                           ----------------------------
                           !    Initial Parameters    !
                           ! (Angstroms and Degrees)  !
 --------------------------                            --------------------------
 ! Name  Definition              Value          Derivative Info.                !
 --------------------------------------------------------------------------------
 ! R1    R(1,2)                  1.3747         estimate D2E/DX2                !
 ! R2    R(1,29)                 0.9855         estimate D2E/DX2                !
 ! R3    R(1,30)                 0.9889         estimate D2E/DX2                !
 ! R4    R(2,3)                  1.2486         estimate D2E/DX2                !
 ! R5    R(2,4)                  1.4884         estimate D2E/DX2                !
 ! R6    R(4,5)                  1.3987         estimate D2E/DX2                !
 ! R7    R(4,9)                  1.3968         estimate D2E/DX2                !
 ! R8    R(5,6)                  1.3906         estimate D2E/DX2                !
 ! R9    R(5,31)                 1.103          estimate D2E/DX2                !
 ! R10   R(6,7)                  1.4122         estimate D2E/DX2                !
 ! R11   R(6,32)                 1.1028         estimate D2E/DX2                !
 ! R12   R(7,8)                  1.4143         estimate D2E/DX2                !
 ! R13   R(7,10)                 1.4199         estimate D2E/DX2                !
 ! R14   R(8,9)                  1.3901         estimate D2E/DX2                !
 ! R15   R(8,33)                 1.102          estimate D2E/DX2                !
 ! R16   R(9,34)                 1.1009         estimate D2E/DX2                !
 ! R17   R(10,11)                1.4466         estimate D2E/DX2                !
 ! R18   R(10,17)                1.4026         estimate D2E/DX2                !
 ! R19   R(11,12)                1.4902         estimate D2E/DX2                !
 ! R20   R(11,35)                1.132          estimate D2E/DX2                !
 ! R21   R(11,36)                1.1311         estimate D2E/DX2                !
 ! R22   R(12,13)                1.4362         estimate D2E/DX2                !
 ! R23   R(12,16)                1.3806         estimate D2E/DX2                !
 ! R24   R(13,14)                1.3766         estimate D2E/DX2                !
 ! R25   R(13,37)                1.0917         estimate D2E/DX2                !
 ! R26   R(14,15)                1.6695         estimate D2E/DX2                !
 ! R27   R(14,38)                1.0892         estimate D2E/DX2                !
 ! R28   R(15,16)                1.6664         estimate D2E/DX2                !
 ! R29   R(16,39)                1.0904         estimate D2E/DX2                !
 ! R30   R(17,18)                1.2404         estimate D2E/DX2                !
 ! R31   R(17,19)                1.5403         estimate D2E/DX2                !
 ! R32   R(19,20)                1.438          estimate D2E/DX2                !
 ! R33   R(19,40)                1.1293         estimate D2E/DX2                !
 ! R34   R(19,41)                1.1293         estimate D2E/DX2                !
 ! R35   R(20,21)                1.3751         estimate D2E/DX2                !
 ! R36   R(20,28)                1.4179         estimate D2E/DX2                !
 ! R37   R(21,22)                1.2543         estimate D2E/DX2                !
 ! R38   R(22,23)                1.4335         estimate D2E/DX2                !
 ! R39   R(23,24)                1.3942         estimate D2E/DX2                !
 ! R40   R(23,28)                1.4484         estimate D2E/DX2                !
 ! R41   R(24,25)                1.3914         estimate D2E/DX2                !
 ! R42   R(24,42)                1.0994         estimate D2E/DX2                !
 ! R43   R(25,26)                1.4043         estimate D2E/DX2                !
 ! R44   R(25,43)                1.1007         estimate D2E/DX2                !
 ! R45   R(26,27)                1.3913         estimate D2E/DX2                !
 ! R46   R(26,44)                1.1013         estimate D2E/DX2                !
 ! R47   R(27,28)                1.3951         estimate D2E/DX2                !
 ! R48   R(27,45)                1.0977         estimate D2E/DX2                !
 ! A1    A(2,1,29)             121.3307         estimate D2E/DX2                !
 ! A2    A(2,1,30)             119.4312         estimate D2E/DX2                !
 ! A3    A(29,1,30)            119.1865         estimate D2E/DX2                !
 ! A4    A(1,2,3)              119.6625         estimate D2E/DX2                !
 ! A5    A(1,2,4)              118.2989         estimate D2E/DX2                !
 ! A6    A(3,2,4)              122.0354         estimate D2E/DX2                !
 ! A7    A(2,4,5)              118.4285         estimate D2E/DX2                !
 ! A8    A(2,4,9)              122.1563         estimate D2E/DX2                !
 ! A9    A(5,4,9)              119.3935         estimate D2E/DX2                !
 ! A10   A(4,5,6)              120.7654         estimate D2E/DX2                !
 ! A11   A(4,5,31)             119.281          estimate D2E/DX2                !
 ! A12   A(6,5,31)             119.9503         estimate D2E/DX2                !
 ! A13   A(5,6,7)              120.2687         estimate D2E/DX2                !
 ! A14   A(5,6,32)             119.2189         estimate D2E/DX2                !
 ! A15   A(7,6,32)             120.495          estimate D2E/DX2                !
 ! A16   A(6,7,8)              118.493          estimate D2E/DX2                !
 ! A17   A(6,7,10)             121.0706         estimate D2E/DX2                !
 ! A18   A(8,7,10)             120.4259         estimate D2E/DX2                !
 ! A19   A(7,8,9)              120.5898         estimate D2E/DX2                !
 ! A20   A(7,8,33)             120.4614         estimate D2E/DX2                !
 ! A21   A(9,8,33)             118.9424         estimate D2E/DX2                !
 ! A22   A(4,9,8)              120.4652         estimate D2E/DX2                !
 ! A23   A(4,9,34)             120.6622         estimate D2E/DX2                !
 ! A24   A(8,9,34)             118.8529         estimate D2E/DX2                !
 ! A25   A(7,10,11)            117.4365         estimate D2E/DX2                !
 ! A26   A(7,10,17)            121.1022         estimate D2E/DX2                !
 ! A27   A(11,10,17)           120.6321         estimate D2E/DX2                !
 ! A28   A(10,11,12)           117.1994         estimate D2E/DX2                !
 ! A29   A(10,11,35)           107.9652         estimate D2E/DX2                !
 ! A30   A(10,11,36)           108.462          estimate D2E/DX2                !
 ! A31   A(12,11,35)           107.8557         estimate D2E/DX2                !
 ! A32   A(12,11,36)           108.274          estimate D2E/DX2                !
 ! A33   A(35,11,36)           106.6089         estimate D2E/DX2                !
 ! A34   A(11,12,13)           120.6015         estimate D2E/DX2                !
 ! A35   A(11,12,16)           128.1459         estimate D2E/DX2                !
 ! A36   A(13,12,16)           111.2458         estimate D2E/DX2                !
 ! A37   A(12,13,14)           111.4208         estimate D2E/DX2                !
 ! A38   A(12,13,37)           123.1051         estimate D2E/DX2                !
 ! A39   A(14,13,37)           125.474          estimate D2E/DX2                !
 ! A40   A(13,14,15)           111.6662         estimate D2E/DX2                !
 ! A41   A(13,14,38)           125.3805         estimate D2E/DX2                !
 ! A42   A(15,14,38)           122.9533         estimate D2E/DX2                !
 ! A43   A(14,15,16)            93.9744         estimate D2E/DX2                !
 ! A44   A(12,16,15)           111.6922         estimate D2E/DX2                !
 ! A45   A(12,16,39)           125.5622         estimate D2E/DX2                !
 ! A46   A(15,16,39)           122.7386         estimate D2E/DX2                !
 ! A47   A(10,17,18)           121.703          estimate D2E/DX2                !
 ! A48   A(10,17,19)           116.6791         estimate D2E/DX2                !
 ! A49   A(18,17,19)           121.5996         estimate D2E/DX2                !
 ! A50   A(17,19,20)           115.1059         estimate D2E/DX2                !
 ! A51   A(17,19,40)           108.7124         estimate D2E/DX2                !
 ! A52   A(17,19,41)           107.9129         estimate D2E/DX2                !
 ! A53   A(20,19,40)           107.2108         estimate D2E/DX2                !
 ! A54   A(20,19,41)           108.0885         estimate D2E/DX2                !
 ! A55   A(40,19,41)           109.7455         estimate D2E/DX2                !
 ! A56   A(19,20,21)           123.7744         estimate D2E/DX2                !
 ! A57   A(19,20,28)           124.7007         estimate D2E/DX2                !
 ! A58   A(21,20,28)           108.207          estimate D2E/DX2                !
 ! A59   A(20,21,22)           112.2848         estimate D2E/DX2                !
 ! A60   A(21,22,23)           109.4263         estimate D2E/DX2                !
 ! A61   A(22,23,24)           133.3725         estimate D2E/DX2                !
 ! A62   A(22,23,28)           106.1279         estimate D2E/DX2                !
 ! A63   A(24,23,28)           120.4937         estimate D2E/DX2                !
 ! A64   A(23,24,25)           117.4322         estimate D2E/DX2                !
 ! A65   A(23,24,42)           120.9435         estimate D2E/DX2                !
 ! A66   A(25,24,42)           121.6243         estimate D2E/DX2                !
 ! A67   A(24,25,26)           121.8539         estimate D2E/DX2                !
 ! A68   A(24,25,43)           119.2648         estimate D2E/DX2                !
 ! A69   A(26,25,43)           118.8812         estimate D2E/DX2                !
 ! A70   A(25,26,27)           122.1057         estimate D2E/DX2                !
 ! A71   A(25,26,44)           118.8585         estimate D2E/DX2                !
 ! A72   A(27,26,44)           119.0357         estimate D2E/DX2                !
 ! A73   A(26,27,28)           116.9399         estimate D2E/DX2                !
 ! A74   A(26,27,45)           121.4432         estimate D2E/DX2                !
 ! A75   A(28,27,45)           121.6163         estimate D2E/DX2                !
 ! A76   A(20,28,23)           103.7617         estimate D2E/DX2                !
 ! A77   A(20,28,27)           134.9883         estimate D2E/DX2                !
 ! A78   A(23,28,27)           121.173          estimate D2E/DX2                !
 ! D1    D(29,1,2,3)           177.8414         estimate D2E/DX2                !
 ! D2    D(29,1,2,4)            -1.5188         estimate D2E/DX2                !
 ! D3    D(30,1,2,3)             0.4763         estimate D2E/DX2                !
 ! D4    D(30,1,2,4)          -178.8838         estimate D2E/DX2                !
 ! D5    D(1,2,4,5)            144.1569         estimate D2E/DX2                !
 ! D6    D(1,2,4,9)            -37.5492         estimate D2E/DX2                !
 ! D7    D(3,2,4,5)            -35.1872         estimate D2E/DX2                !
 ! D8    D(3,2,4,9)            143.1067         estimate D2E/DX2                !
 ! D9    D(2,4,5,6)            179.9068         estimate D2E/DX2                !
 ! D10   D(2,4,5,31)             0.5622         estimate D2E/DX2                !
 ! D11   D(9,4,5,6)              1.5646         estimate D2E/DX2                !
 ! D12   D(9,4,5,31)          -177.78           estimate D2E/DX2                !
 ! D13   D(2,4,9,8)           -178.6692         estimate D2E/DX2                !
 ! D14   D(2,4,9,34)            -0.3006         estimate D2E/DX2                !
 ! D15   D(5,4,9,8)             -0.3913         estimate D2E/DX2                !
 ! D16   D(5,4,9,34)           177.9773         estimate D2E/DX2                !
 ! D17   D(4,5,6,7)             -1.4114         estimate D2E/DX2                !
 ! D18   D(4,5,6,32)          -179.9036         estimate D2E/DX2                !
 ! D19   D(31,5,6,7)           177.9288         estimate D2E/DX2                !
 ! D20   D(31,5,6,32)           -0.5634         estimate D2E/DX2                !
 ! D21   D(5,6,7,8)              0.0902         estimate D2E/DX2                !
 ! D22   D(5,6,7,10)           178.9175         estimate D2E/DX2                !
 ! D23   D(32,6,7,8)           178.563          estimate D2E/DX2                !
 ! D24   D(32,6,7,10)           -2.6097         estimate D2E/DX2                !
 ! D25   D(6,7,8,9)              1.0721         estimate D2E/DX2                !
 ! D26   D(6,7,8,33)          -177.998          estimate D2E/DX2                !
 ! D27   D(10,7,8,9)          -177.7631         estimate D2E/DX2                !
 ! D28   D(10,7,8,33)            3.1668         estimate D2E/DX2                !
 ! D29   D(6,7,10,11)         -149.8176         estimate D2E/DX2                !
 ! D30   D(6,7,10,17)           40.5464         estimate D2E/DX2                !
 ! D31   D(8,7,10,11)           28.9871         estimate D2E/DX2                !
 ! D32   D(8,7,10,17)         -140.6489         estimate D2E/DX2                !
 ! D33   D(7,8,9,4)             -0.9268         estimate D2E/DX2                !
 ! D34   D(7,8,9,34)          -179.3246         estimate D2E/DX2                !
 ! D35   D(33,8,9,4)           178.1573         estimate D2E/DX2                !
 ! D36   D(33,8,9,34)           -0.2405         estimate D2E/DX2                !
 ! D37   D(7,10,11,12)         -91.8251         estimate D2E/DX2                !
 ! D38   D(7,10,11,35)          30.1161         estimate D2E/DX2                !
 ! D39   D(7,10,11,36)         145.2697         estimate D2E/DX2                !
 ! D40   D(17,10,11,12)         77.8622         estimate D2E/DX2                !
 ! D41   D(17,10,11,35)       -160.1966         estimate D2E/DX2                !
 ! D42   D(17,10,11,36)        -45.043          estimate D2E/DX2                !
 ! D43   D(7,10,17,18)          -7.725          estimate D2E/DX2                !
 ! D44   D(7,10,17,19)         173.8081         estimate D2E/DX2                !
 ! D45   D(11,10,17,18)       -177.0312         estimate D2E/DX2                !
 ! D46   D(11,10,17,19)          4.5018         estimate D2E/DX2                !
 ! D47   D(10,11,12,13)       -179.6419         estimate D2E/DX2                !
 ! D48   D(10,11,12,16)          1.3934         estimate D2E/DX2                !
 ! D49   D(35,11,12,13)         58.3602         estimate D2E/DX2                !
 ! D50   D(35,11,12,16)       -120.6046         estimate D2E/DX2                !
 ! D51   D(36,11,12,13)        -56.6404         estimate D2E/DX2                !
 ! D52   D(36,11,12,16)        124.3949         estimate D2E/DX2                !
 ! D53   D(11,12,13,14)       -178.9627         estimate D2E/DX2                !
 ! D54   D(11,12,13,37)          0.9777         estimate D2E/DX2                !
 ! D55   D(16,12,13,14)          0.1638         estimate D2E/DX2                !
 ! D56   D(16,12,13,37)       -179.8958         estimate D2E/DX2                !
 ! D57   D(11,12,16,15)        178.7727         estimate D2E/DX2                !
 ! D58   D(11,12,16,39)         -0.2792         estimate D2E/DX2                !
 ! D59   D(13,12,16,15)         -0.2712         estimate D2E/DX2                !
 ! D60   D(13,12,16,39)       -179.3231         estimate D2E/DX2                !
 ! D61   D(12,13,14,15)          0.015          estimate D2E/DX2                !
 ! D62   D(12,13,14,38)        179.9761         estimate D2E/DX2                !
 ! D63   D(37,13,14,15)       -179.9236         estimate D2E/DX2                !
 ! D64   D(37,13,14,38)          0.0374         estimate D2E/DX2                !
 ! D65   D(13,14,15,16)         -0.1473         estimate D2E/DX2                !
 ! D66   D(38,14,15,16)        179.8905         estimate D2E/DX2                !
 ! D67   D(14,15,16,12)          0.2439         estimate D2E/DX2                !
 ! D68   D(14,15,16,39)        179.327          estimate D2E/DX2                !
 ! D69   D(10,17,19,20)       -174.1453         estimate D2E/DX2                !
 ! D70   D(10,17,19,40)        -53.8998         estimate D2E/DX2                !
 ! D71   D(10,17,19,41)         65.0707         estimate D2E/DX2                !
 ! D72   D(18,17,19,20)          7.3861         estimate D2E/DX2                !
 ! D73   D(18,17,19,40)        127.6316         estimate D2E/DX2                !
 ! D74   D(18,17,19,41)       -113.3979         estimate D2E/DX2                !
 ! D75   D(17,19,20,21)        -73.7827         estimate D2E/DX2                !
 ! D76   D(17,19,20,28)         83.19           estimate D2E/DX2                !
 ! D77   D(40,19,20,21)        165.1505         estimate D2E/DX2                !
 ! D78   D(40,19,20,28)        -37.8768         estimate D2E/DX2                !
 ! D79   D(41,19,20,21)         46.9054         estimate D2E/DX2                !
 ! D80   D(41,19,20,28)       -156.1219         estimate D2E/DX2                !
 ! D81   D(19,20,21,22)        164.8654         estimate D2E/DX2                !
 ! D82   D(28,20,21,22)          4.6536         estimate D2E/DX2                !
 ! D83   D(19,20,28,23)       -163.9645         estimate D2E/DX2                !
 ! D84   D(19,20,28,27)         19.3498         estimate D2E/DX2                !
 ! D85   D(21,20,28,23)         -3.9809         estimate D2E/DX2                !
 ! D86   D(21,20,28,27)        179.3333         estimate D2E/DX2                !
 ! D87   D(20,21,22,23)         -3.1404         estimate D2E/DX2                !
 ! D88   D(21,22,23,24)        179.5434         estimate D2E/DX2                !
 ! D89   D(21,22,23,28)          0.4505         estimate D2E/DX2                !
 ! D90   D(22,23,24,25)       -179.4175         estimate D2E/DX2                !
 ! D91   D(22,23,24,42)          0.6676         estimate D2E/DX2                !
 ! D92   D(28,23,24,25)         -0.4288         estimate D2E/DX2                !
 ! D93   D(28,23,24,42)        179.6563         estimate D2E/DX2                !
 ! D94   D(22,23,28,20)          2.2144         estimate D2E/DX2                !
 ! D95   D(22,23,28,27)        179.4753         estimate D2E/DX2                !
 ! D96   D(24,23,28,20)       -177.0203         estimate D2E/DX2                !
 ! D97   D(24,23,28,27)          0.2406         estimate D2E/DX2                !
 ! D98   D(23,24,25,26)          0.2847         estimate D2E/DX2                !
 ! D99   D(23,24,25,43)       -179.5761         estimate D2E/DX2                !
 ! D100  D(42,24,25,26)       -179.8009         estimate D2E/DX2                !
 ! D101  D(42,24,25,43)          0.3383         estimate D2E/DX2                !
 ! D102  D(24,25,26,27)          0.067          estimate D2E/DX2                !
 ! D103  D(24,25,26,44)       -179.7836         estimate D2E/DX2                !
 ! D104  D(43,25,26,27)        179.9283         estimate D2E/DX2                !
 ! D105  D(43,25,26,44)          0.0777         estimate D2E/DX2                !
 ! D106  D(25,26,27,28)         -0.2619         estimate D2E/DX2                !
 ! D107  D(25,26,27,45)       -179.9943         estimate D2E/DX2                !
 ! D108  D(44,26,27,28)        179.5884         estimate D2E/DX2                !
 ! D109  D(44,26,27,45)         -0.144          estimate D2E/DX2                !
 ! D110  D(26,27,28,20)        176.3468         estimate D2E/DX2                !
 ! D111  D(26,27,28,23)          0.1098         estimate D2E/DX2                !
 ! D112  D(45,27,28,20)         -3.9213         estimate D2E/DX2                !
 ! D113  D(45,27,28,23)        179.8417         estimate D2E/DX2                !
 --------------------------------------------------------------------------------
 Trust Radius=3.00D-01 FncErr=1.00D-07 GrdErr=1.00D-07
 Number of steps in this run=    249 maximum allowed number of steps=    270.
 GradGradGradGradGradGradGradGradGradGradGradGradGradGradGradGradGradGrad

 Leave Link  103 at Fri Aug 26 15:01:11 2022, MaxMem=  209715200 cpu:       0.1
 (Enter /opt/gaussian/l202.exe)
                          Input orientation:                          
 ---------------------------------------------------------------------
 Center     Atomic      Atomic             Coordinates (Angstroms)
 Number     Number       Type             X           Y           Z
 ---------------------------------------------------------------------
      1          7           0       13.757900  -10.119200   -0.509900
      2          6           0       14.452800   -8.936200   -0.423700
      3          8           0       13.898300   -7.927700    0.060600
      4          6           0       15.851700   -8.901000   -0.930900
      5          6           0       16.304300   -7.734300   -1.555700
      6          6           0       17.602800   -7.647700   -2.045800
      7          6           0       18.495400   -8.731200   -1.892100
      8          6           0       18.035900   -9.895800   -1.234200
      9          6           0       16.727800   -9.977000   -0.770800
     10          7           0       19.817700   -8.669900   -2.405900
     11          6           0       20.429000   -9.912900   -2.823100
     12          6           0       21.234500  -10.649900   -1.808900
     13          6           0       21.879900  -11.887600   -2.146700
     14          6           0       22.551000  -12.415700   -1.067000
     15         16           0       22.398900  -11.449500    0.286000
     16          6           0       21.459700  -10.312100   -0.489300
     17          6           0       20.579800   -7.496600   -2.306900
     18          8           0       20.088800   -6.432800   -1.899600
     19          6           0       22.048200   -7.585100   -2.763600
     20          7           0       22.833300   -6.404000   -2.526000
     21          7           0       22.712600   -5.245900   -3.257500
     22          7           0       23.262500   -4.268700   -2.695300
     23          6           0       23.778700   -4.679400   -1.422600
     24          6           0       24.472900   -4.016100   -0.411700
     25          6           0       24.833800   -4.756000    0.710000
     26          6           0       24.522600   -6.120200    0.829600
     27          6           0       23.837800   -6.812300   -0.164200
     28          6           0       23.463000   -6.087300   -1.295700
     29          1           0       14.160600  -10.921600   -0.916300
     30          1           0       12.821800  -10.157100   -0.193200
     31          1           0       15.622200   -6.872500   -1.648200
     32          1           0       17.933400   -6.715000   -2.532500
     33          1           0       18.714600  -10.747800   -1.067400
     34          1           0       16.403600  -10.892700   -0.252700
     35          1           0       19.606700  -10.603300   -3.181700
     36          1           0       21.089400   -9.704800   -3.717500
     37          1           0       21.829400  -12.334300   -3.141600
     38          1           0       23.117000  -13.346300   -1.069900
     39          1           0       21.070600   -9.426400    0.013900
     40          1           0       22.548200   -8.435000   -2.213200
     41          1           0       22.054800   -7.793100   -3.873600
     42          1           0       24.721300   -2.949000   -0.502800
     43          1           0       25.376600   -4.260700    1.529500
     44          1           0       24.829000   -6.657400    1.740900
     45          1           0       23.600100   -7.878800   -0.059300
 ---------------------------------------------------------------------
                    Distance matrix (angstroms):
                    1          2          3          4          5
     1  N    0.000000
     2  C    1.374702   0.000000
     3  O    2.268888   1.248635   0.000000
     4  C    2.458709   1.488426   2.397114   0.000000
     5  C    3.642197   2.480734   2.904938   1.398718   0.000000
     6  C    4.821883   3.770138   4.270672   2.424895   1.390611
     7  C    5.126493   4.305907   5.058851   2.818135   2.430616
     8  C    4.344629   3.796887   4.761266   2.419163   2.788168
     9  C    2.984727   2.525741   3.591229   1.396767   2.413529
    10  N    6.512792   5.725573   6.455523   4.237710   3.733921
    11  C    7.063783   6.513527   7.409911   5.055298   4.833813
    12  C    7.607141   7.130708   8.045199   5.727484   5.733385
    13  C    8.471909   8.175653   9.179266   6.836457   6.977571
    14  C    9.105102   8.837511   9.812382   7.566522   7.821483
    15  S    8.778954   8.364261   9.204025   7.130324   7.371480
    16  C    7.704243   7.141012   7.947485   5.799645   5.861775
    17  C    7.526324   6.569552   7.101644   5.120610   4.347494
    18  O    7.456615   6.341119   6.663287   4.998340   4.016791
    19  C    8.957115   8.061681   8.632170   6.594467   5.871428
    20  N   10.011506   9.003582   9.425836   7.584332   6.733426
    21  N   10.558646   9.480139   9.792534   8.114479   7.081989
    22  N   11.372851  10.225289  10.424563   8.915788   7.856565
    23  C   11.438570  10.300027  10.505886   8.994499   8.075691
    24  C   12.331614  11.162882  11.284762   9.922545   9.047639
    25  C   12.366391  11.248311  11.404673  10.027547   9.314292
    26  C   11.561359  10.530978  10.804359   9.274520   8.708354
    27  C   10.614117   9.625825  10.004415   8.290253   7.716215
    28  C   10.538627   9.490012   9.834130   8.122923   7.350319
    29  H    0.985482   2.066361   3.160154   2.634930   3.893991
    30  H    0.988948   2.050339   2.488673   3.361887   4.455802
    31  H    3.913106   2.669411   2.646748   2.163793   1.102958
    32  H    5.754502   4.636307   4.947407   3.417191   2.155708
    33  H    5.027407   4.675381   5.694040   3.409619   3.889623
    34  H    2.768426   2.768168   3.894343   2.175182   3.418064
    35  H    6.448359   6.078525   7.089230   4.697228   4.666999
    36  H    8.013196   7.448780   8.315290   5.987047   5.608336
    37  H    8.773917   8.564362   9.621567   7.239312   7.362188
    38  H    9.915671   9.743455  10.752845   8.518486   8.839877
    39  H    7.364097   6.650343   7.327358   5.329691   5.295702
    40  H    9.110825   8.305962   8.958141   6.834074   6.317402
    41  H    9.250069   8.426084   9.056740   6.954522   6.200352
    42  H   13.099922  11.886754  11.926534  10.690153   9.739280
    43  H   13.171005  12.041790  12.139025  10.877025  10.192693
    44  H   11.816066  10.841769  11.131814   9.631416   9.203141
    45  H   10.104026   9.215421   9.702664   7.863986   7.449080
                    6          7          8          9         10
     6  C    0.000000
     7  C    1.412208   0.000000
     8  C    2.429038   1.414308   0.000000
     9  C    2.795870   2.435927   1.390129   0.000000
    10  N    2.465836   1.419939   2.459781   3.732230   0.000000
    11  C    3.704421   2.449895   2.872599   4.232603   1.446649
    12  C    4.717899   3.345295   3.336164   4.673413   2.506817
    13  C    6.023331   4.634924   4.424507   5.664594   3.830594
    14  C    6.940933   5.541139   5.173392   6.320178   4.826448
    15  S    6.549317   5.231691   4.874501   5.953693   4.651354
    16  C    4.939372   3.640627   3.528539   4.752096   3.011036
    17  C    2.992246   2.457849   3.657632   4.832173   1.402580
    18  O    2.770840   2.796716   4.080383   5.013169   2.309643
    19  C    4.503414   3.833464   4.876161   6.164340   2.505967
    20  N    5.397732   4.963372   6.072599   7.288634   3.773933
    21  N    5.774679   5.638830   6.898321   8.024015   4.563929
    22  N    6.623571   6.579079   7.817699   8.887671   5.596513
    23  C    6.880474   6.674636   7.760546   8.843336   5.707932
    24  C    7.940849   7.755918   8.756846   9.779972   6.877905
    25  C    8.260976   7.921392   8.741219   9.754940   7.084399
    26  C    7.647536   7.110001   7.784067   8.842799   6.253440
    27  C    6.566090   5.933722   6.656945   7.806112   4.963577
    28  C    6.110601   5.658882   6.630375   7.795396   4.603323
    29  H    4.882923   4.953840   4.021353   2.739335   6.268320
    30  H    5.708518   6.091731   5.323420   3.952581   7.486683
    31  H    2.163746   3.430675   3.890718   3.410294   4.626767
    32  H    1.102770   2.188840   3.437089   3.898423   2.718133
    33  H    3.435693   2.189716   1.101980   2.151622   2.706673
    34  H    3.896577   3.425689   2.149780   1.100927   4.607948
    35  H    3.747193   2.530378   2.600139   3.806935   2.093901
    36  H    4.379797   3.317954   3.940447   5.270739   2.099651
    37  H    6.405400   5.065485   4.896437   6.099498   4.244528
    38  H    7.989545   6.582883   6.144145   7.229351   5.876988
    39  H    4.408149   3.278383   3.314739   4.447339   2.827982
    40  H    5.010474   4.076276   4.842853   6.191554   2.747352
    41  H    4.814800   4.180395   5.247794   6.540162   2.815588
    42  H    8.667853   8.609635   9.668896  10.647096   7.771472
    43  H    9.202527   8.890648   9.658067  10.619285   8.113556
    44  H    8.218136   7.590377   8.092259   9.108118   6.808762
    45  H    6.321961   5.490328   6.033987   7.220608   4.520942
                   11         12         13         14         15
    11  C    0.000000
    12  C    1.490168   0.000000
    13  C    2.542060   1.436159   0.000000
    14  C    3.721663   2.324142   1.376596   0.000000
    15  S    3.988502   2.526617   2.525732   1.669517   0.000000
    16  C    2.582310   1.380640   2.325025   2.439222   1.666393
    17  C    2.475421   3.258824   4.582227   5.442474   5.065340
    18  O    3.616585   4.370902   5.746646   6.523093   5.939755
    19  C    2.836195   3.311580   4.349758   5.144507   4.935244
    20  N    4.263954   4.593263   5.578773   6.192650   5.792505
    21  N    5.213868   5.786747   6.785237   7.498696   7.151185
    22  N    6.316807   6.754125   7.762743   8.338537   7.822905
    23  C    6.369569   6.501465   7.489186   7.841176   7.117402
    24  C    7.545875   7.513102   8.467254   8.641551   7.748787
    25  C    7.647135   7.351046   8.230795   8.187790   7.135226
    26  C    6.669659   6.188010   7.007505   6.864227   5.762555
    27  C    5.320093   4.920303   5.789849   5.819707   4.876140
    28  C    5.115987   5.103617   6.072387   6.397866   5.690982
    29  H    6.629193   7.135168   7.876207   8.523723   8.342289
    30  H    8.052670   8.580610   9.426557  10.026073   9.675783
    31  H    5.807732   6.767015   8.034833   8.892307   8.403197
    32  H    4.066821   5.186935   6.517630   7.481170   7.092258
    33  H    2.592047   2.628555   3.533151   4.183283   3.987247
    34  H    4.875532   5.081172   5.879364   6.385385   6.045151
    35  H    1.132000   2.129902   2.808574   4.052857   4.531818
    36  H    1.131099   2.134718   2.803020   4.063300   4.559252
    37  H    2.815269   2.228721   1.091750   2.198021   3.585477
    38  H    4.699712   3.370534   2.194931   1.089211   2.439669
    39  H    2.949051   2.201458   3.373524   3.506543   2.435437
    40  H    2.654652   2.606731   3.517313   4.142433   3.918610
    41  H    2.870597   3.619003   4.447213   5.430621   5.548868
    42  H    8.503149   8.553802   9.522318   9.728666   8.847273
    43  H    8.681661   8.314071   9.160293   9.012761   7.879837
    44  H    7.126596   6.439066   7.153015   6.799383   5.566538
    45  H    4.672476   4.041801   4.835991   4.764403   3.783122
                   16         17         18         19         20
    16  C    0.000000
    17  C    3.464814   0.000000
    18  O    4.349400   1.240421   0.000000
    19  C    3.599347   1.540326   2.431777   0.000000
    20  N    4.616077   2.513969   2.815224   1.437996   0.000000
    21  N    5.907544   3.243166   3.183858   2.481375   1.375084
    22  N    6.681258   4.215101   3.922861   3.532379   2.184578
    23  C    6.162477   4.353339   4.113065   3.638132   2.255109
    24  C    6.980330   5.555348   5.222511   4.914099   3.586171
    25  C    6.610077   5.891442   5.668924   5.275346   4.146034
    26  C    5.356573   5.222814   5.215825   4.602138   3.767536
    27  C    4.243778   3.959040   4.148570   3.249118   2.598813
    28  C    4.744726   3.364743   3.445184   2.529781   1.417907
    29  H    7.336939   7.407464   7.500651   8.761220   9.910377
    30  H    8.644363   8.469507   8.342152   9.917086  10.943393
    31  H    6.873886   5.039959   4.495226   6.560899   7.279422
    32  H    5.435861   2.768615   2.264056   4.212133   4.909764
    33  H    2.838945   3.947864   4.604368   4.898230   6.161153
    34  H    5.094823   5.761413   6.015288   7.007592   8.164396
    35  H    3.281375   3.371021   4.389678   3.904518   5.336198
    36  H    3.305633   2.669388   3.874525   2.514429   3.918691
    37  H    3.355692   5.065725   6.276938   4.769241   6.046093
    38  H    3.505725   6.495117   7.593081   6.099375   7.099031
    39  H    1.090446   3.057961   3.686062   3.472837   4.323552
    40  H    2.771312   2.182653   3.186816   1.129279   2.074629
    41  H    4.260633   2.172116   3.100363   1.129339   2.086070
    42  H    8.053164   6.409950   5.962212   5.809484   4.426614
    43  H    7.485793   6.942500   6.666151   6.368720   5.244920
    44  H    5.448193   5.928292   5.981069   5.374383   4.717358
    45  H    3.269122   3.784177   4.219816   3.131755   2.974496
                   21         22         23         24         25
    21  N    0.000000
    22  N    1.254344   0.000000
    23  C    2.196440   1.433493   0.000000
    24  C    3.565058   2.596864   1.394202   0.000000
    25  C    4.525544   3.781866   2.380564   1.391370   0.000000
    26  C    4.554656   4.176221   2.775193   2.443467   1.404347
    27  C    3.645297   3.634190   2.477161   2.878080   2.446347
    28  C    2.262678   2.303559   1.448431   2.468040   2.770250
    29  H   10.527654  11.413610  11.477336  12.421114  12.432887
    30  H   11.460268  12.245080  12.311388  13.172234  13.201356
    31  H    7.450466   8.139433   8.449206   9.382049   9.741368
    32  H    5.052191   5.866020   6.288329   7.385588   7.871913
    33  H    7.145029   8.081596   7.911811   8.882778   8.746738
    34  H    8.984356   9.843179   9.714209  10.603137  10.471588
    35  H    6.193068   7.329981   7.456045   8.645462   8.755502
    36  H    4.767407   5.942932   6.144391   7.398493   7.623248
    37  H    7.144151   8.204076   8.084072   9.145102   9.016201
    38  H    8.400334   9.223119   8.699276   9.451155   8.939167
    39  H    5.556510   6.224633   5.650783   6.405320   6.038118
    40  H    3.359754   4.254492   4.030349   5.145537   5.225333
    41  H    2.701945   3.907470   4.321384   5.665482   6.160861
    42  H    4.110839   2.945634   2.174583   1.099411   2.179172
    43  H    5.566227   4.724237   3.382823   2.155171   1.100697
    44  H    5.608519   5.276332   3.875996   3.425925   2.162892
    45  H    4.236544   4.482777   3.482333   3.975728   3.444665
                   26         27         28         29         30
    26  C    0.000000
    27  C    1.391256   0.000000
    28  C    2.375023   1.395132   0.000000
    29  H   11.553037  10.540408  10.490426   0.000000
    30  H   12.419799  11.512636  11.446131   1.702856   0.000000
    31  H    9.269443   8.348770   7.887898   4.366596   4.554982
    32  H    7.421257   6.362409   5.700891   5.877211   6.591573
    33  H    7.664604   6.523121   6.657303   4.559819   5.986505
    34  H    9.479783   8.480851   8.603188   2.339284   3.657040
    35  H    7.768834   6.432666   6.230755   5.907060   7.427321
    36  H    6.731444   5.342864   4.958367   7.572027   8.998804
    37  H    7.851038   6.587189   6.715728   8.109141   9.724717
    38  H    7.602653   6.635737   7.270748   9.280079  10.813452
    39  H    4.848982   3.810857   4.311406   7.130848   8.283690
    40  H    4.302928   2.914554   2.681485   8.844035  10.082107
    41  H    5.568548   4.230923   3.396815   8.991748  10.216757
    42  H    3.445473   3.977475   3.472886  13.238645  13.915842
    43  H    2.162618   3.427417   3.870412  13.272083  13.977061
    44  H    1.101332   2.153109   3.378152  11.792323  12.655493
    45  H    2.175735   1.097692   2.181044   9.954760  11.017274
                   31         32         33         34         35
    31  H    0.000000
    32  H    2.479604   0.000000
    33  H    4.991815   4.361223   0.000000
    34  H    4.326663   4.999095   2.454680   0.000000
    35  H    5.669809   4.282554   2.299345   4.350016   0.000000
    36  H    6.495706   4.505937   3.708174   5.947493   1.814603
    37  H    8.401835   6.864864   4.064636   6.313736   2.817510
    38  H    9.920511   8.543012   5.112077   7.194283   4.930107
    39  H    6.242599   4.865991   2.909647   4.899184   3.706745
    40  H    7.122507   4.935254   4.621514   6.902171   3.780468
    41  H    6.868643   4.466183   5.268961   7.392868   3.790665
    42  H    9.974939   8.023592   9.860046  11.504306   9.587698
    43  H   10.586198   8.827494   9.654460  11.299309   9.783441
    44  H    9.813126   8.112618   7.874250   9.638442   8.189904
    45  H    8.196593   6.291473   5.754610   7.804525   5.754957
                   36         37         38         39         40
    36  H    0.000000
    37  H    2.791690   0.000000
    38  H    4.937760   2.640833   0.000000
    39  H    3.741819   4.357619   4.552800   0.000000
    40  H    2.450185   4.072240   5.074597   2.850640   0.000000
    41  H    2.147315   4.605337   6.310866   4.330009   1.847270
    42  H    8.316600  10.169081  10.535617   7.453274   6.143617
    43  H    8.691911   9.979219   9.716522   6.893703   6.279525
    44  H    7.284599   8.066201   7.454725   4.977495   4.898655
    45  H    4.797949   5.699775   5.581062   2.966276   2.460719
                   41         42         43         44         45
    41  H    0.000000
    42  H    6.475942   0.000000
    43  H    7.259869   2.506036   0.000000
    44  H    6.364637   4.335668   2.467535   0.000000
    45  H    4.116331   5.075107   4.332538   2.498546   0.000000
 Stoichiometry    C20H17N5O2S
 Framework group  C1[X(C20H17N5O2S)]
 Deg. of freedom   129
 Full point group                 C1      NOp   1
 Largest Abelian subgroup         C1      NOp   1
 Largest concise Abelian subgroup C1      NOp   1
                         Standard orientation:                         
 ---------------------------------------------------------------------
 Center     Atomic      Atomic             Coordinates (Angstroms)
 Number     Number       Type             X           Y           Z
 ---------------------------------------------------------------------
      1          7           0        6.896631   -0.780509    0.696547
      2          6           0        5.799645   -1.590905    0.868844
      3          8           0        5.928540   -2.691097    1.445084
      4          6           0        4.488057   -1.124466    0.341982
      5          6           0        3.609268   -2.073037   -0.191266
      6          6           0        2.370637   -1.691211   -0.695055
      7          6           0        1.969362   -0.338040   -0.647763
      8          6           0        2.854237    0.608699   -0.081240
      9          6           0        4.099197    0.215969    0.396564
     10          7           0        0.718193    0.074246   -1.177689
     11          6           0        0.628742    1.417372   -1.707599
     12          6           0        0.187640    2.490546   -0.772544
     13          6           0        0.065984    3.848630   -1.223496
     14          6           0       -0.330966    4.683442   -0.203429
     15         16           0       -0.542653    3.850350    1.227805
     16          6           0       -0.129327    2.377710    0.566473
     17          6           0       -0.436790   -0.700177   -0.994620
     18          8           0       -0.389082   -1.833024   -0.491604
     19          6           0       -1.763779   -0.089032   -1.482684
     20          7           0       -2.940743   -0.850139   -1.161270
     21          7           0       -3.289359   -2.021502   -1.791534
     22          7           0       -4.165331   -2.659217   -1.159575
     23          6           0       -4.461764   -1.976013    0.065277
     24          6           0       -5.342071   -2.232142    1.115638
     25          6           0       -5.370398   -1.319310    2.165327
     26          6           0       -4.553742   -0.176882    2.176286
     27          6           0       -3.670682    0.110760    1.140400
     28          6           0       -3.623933   -0.794584    0.079948
     29          1           0        6.829215    0.078198    0.217745
     30          1           0        7.779487   -1.081358    1.025292
     31          1           0        3.903230   -3.136066   -0.199725
     32          1           0        1.697097   -2.460541   -1.108066
     33          1           0        2.560820    1.667621    0.002126
     34          1           0        4.760767    0.974787    0.842165
     35          1           0        1.648196    1.703341   -2.108047
     36          1           0       -0.075122    1.406992   -2.592953
     37          1           0        0.269268    4.156187   -2.251116
     38          1           0       -0.492812    5.756770   -0.293728
     39          1           0       -0.105112    1.455854    1.148426
     40          1           0       -1.887042    0.930888   -1.013815
     41          1           0       -1.707355    0.011784   -2.606099
     42          1           0       -5.985420   -3.123639    1.109423
     43          1           0       -6.049216   -1.495716    3.013632
     44          1           0       -4.613649    0.511136    3.034177
     45          1           0       -3.037207    1.006999    1.160228
 ---------------------------------------------------------------------
 Rotational constants (GHZ):      0.2185614      0.0953046      0.0767185
 Leave Link  202 at Fri Aug 26 15:01:11 2022, MaxMem=  209715200 cpu:       0.0
 (Enter /opt/gaussian/l301.exe)
 Standard basis: 6-31G (6D, 7F)
 Ernie: Thresh=  0.10000D-02 Tol=  0.10000D-05 Strict=F.
 There are   290 symmetry adapted basis functions of A   symmetry.
 Integral buffers will be    131072 words long.
 Raffenetti 1 integral format.
 Two-electron integral symmetry is turned on.
   290 basis functions,   708 primitive gaussians,   290 cartesian basis functions
   102 alpha electrons      102 beta electrons
       nuclear repulsion energy      2584.2344283350 Hartrees.



 Warning!  S  atom   15 may be hypervalent but has no d functions.



 IExCor=    0 DFT=F Ex=HF Corr=None ExCW=0 ScaHFX=  1.000000
 ScaDFX=  1.000000  1.000000  1.000000  1.000000 ScalE2=  1.000000  1.000000
 IRadAn=      0 IRanWt=     -1 IRanGd=            0 ICorTp=0
 NAtoms=   45 NActive=   45 NUniq=   45 SFac= 1.00D+00 NAtFMM=   60 NAOKFM=F Big=F
 Leave Link  301 at Fri Aug 26 15:01:11 2022, MaxMem=  209715200 cpu:       0.2
 (Enter /opt/gaussian/l302.exe)
 NPDir=0 NMtPBC=     1 NCelOv=     1 NCel=       1 NClECP=     1 NCelD=      1
         NCelK=      1 NCelE2=     1 NClLst=     1 CellRange=     0.0.
 One-electron integrals computed using PRISM.
 NBasis=   290 RedAO= T  NBF=   290
 NBsUse=   290 1.00D-06 NBFU=   290
 Leave Link  302 at Fri Aug 26 15:01:11 2022, MaxMem=  209715200 cpu:       1.6
 (Enter /opt/gaussian/l303.exe)
 DipDrv:  MaxL=1.
 Leave Link  303 at Fri Aug 26 15:01:11 2022, MaxMem=  209715200 cpu:       0.4
 (Enter /opt/gaussian/l401.exe)
 Harris functional with IExCor=  205 diagonalized for initial guess.
 ExpMin= 1.17D-01 ExpMax= 2.19D+04 ExpMxC= 3.30D+03 IAcc=1 IRadAn=         1 AccDes= 0.00D+00
 HarFok:  IExCor=  205 AccDes= 0.00D+00 IRadAn=         1 IDoV= 1
 ScaDFX=  1.000000  1.000000  1.000000  1.000000
 FoFCou: FMM=F IPFlag=           0 FMFlag=      100000 FMFlg1=           0
         NFxFlg=           0 DoJE=T BraDBF=F KetDBF=T FulRan=T
         Omega=  0.000000  0.000000  1.000000  0.000000  0.000000 ICntrl=     500 IOpCl=  0
         NMat0=    1 NMatS0=    1 NMatT0=    0 NMatD0=    1 NMtDS0=    0 NMtDT0=    0
         I1Cent=           4 NGrid=           0.
 Petite list used in FoFCou.
 Harris En= -1587.11999214523    
 Initial guess orbital symmetries:
       Occupied  (A) (A) (A) (A) (A) (A) (A) (A) (A) (A) (A) (A)
                 (A) (A) (A) (A) (A) (A) (A) (A) (A) (A) (A) (A)
                 (A) (A) (A) (A) (A) (A) (A) (A) (A) (A) (A) (A)
                 (A) (A) (A) (A) (A) (A) (A) (A) (A) (A) (A) (A)
                 (A) (A) (A) (A) (A) (A) (A) (A) (A) (A) (A) (A)
                 (A) (A) (A) (A) (A) (A) (A) (A) (A) (A) (A) (A)
                 (A) (A) (A) (A) (A) (A) (A) (A) (A) (A) (A) (A)
                 (A) (A) (A) (A) (A) (A) (A) (A) (A) (A) (A) (A)
                 (A) (A) (A) (A) (A) (A)
       Virtual   (A) (A) (A) (A) (A) (A) (A) (A) (A) (A) (A) (A)
                 (A) (A) (A) (A) (A) (A) (A) (A) (A) (A) (A) (A)
                 (A) (A) (A) (A) (A) (A) (A) (A) (A) (A) (A) (A)
                 (A) (A) (A) (A) (A) (A) (A) (A) (A) (A) (A) (A)
                 (A) (A) (A) (A) (A) (A) (A) (A) (A) (A) (A) (A)
                 (A) (A) (A) (A) (A) (A) (A) (A) (A) (A) (A) (A)
                 (A) (A) (A) (A) (A) (A) (A) (A) (A) (A) (A) (A)
                 (A) (A) (A) (A) (A) (A) (A) (A) (A) (A) (A) (A)
                 (A) (A) (A) (A) (A) (A) (A) (A) (A) (A) (A) (A)
                 (A) (A) (A) (A) (A) (A) (A) (A) (A) (A) (A) (A)
                 (A) (A) (A) (A) (A) (A) (A) (A) (A) (A) (A) (A)
                 (A) (A) (A) (A) (A) (A) (A) (A) (A) (A) (A) (A)
                 (A) (A) (A) (A) (A) (A) (A) (A) (A) (A) (A) (A)
                 (A) (A) (A) (A) (A) (A) (A) (A) (A) (A) (A) (A)
                 (A) (A) (A) (A) (A) (A) (A) (A) (A) (A) (A) (A)
                 (A) (A) (A) (A) (A) (A) (A) (A)
 The electronic state of the initial guess is 1-A.
 Leave Link  401 at Fri Aug 26 15:01:12 2022, MaxMem=  209715200 cpu:       3.8
 (Enter /opt/gaussian/l502.exe)
 Closed shell SCF:
 Requested convergence on RMS density matrix=1.00D-08 within 128 cycles.
 Requested convergence on MAX density matrix=1.00D-06.
 Requested convergence on             energy=1.00D-06.
 No special actions if energy rises.
 Using DIIS extrapolation, IDIIS=  1040.
 Integral symmetry usage will be decided dynamically.
 IEnd=      275005 IEndB=      275005 NGot=   209715200 MDV=   209541226
 LenX=   209541226 LenY=   209456685
 Fock matrices will be formed incrementally for  20 cycles.
 Integral accuracy reduced to 1.0D-05 until final iterations.

 Cycle   1  Pass 0  IDiag  1:
 FoFCou: FMM=F IPFlag=           0 FMFlag=      100000 FMFlg1=           0
         NFxFlg=           0 DoJE=F BraDBF=F KetDBF=F FulRan=T
         Omega=  0.000000  0.000000  1.000000  0.000000  0.000000 ICntrl=       0 IOpCl=  0
         NMat0=    1 NMatS0=    1 NMatT0=    0 NMatD0=    1 NMtDS0=    0 NMtDT0=    0
         I1Cent=           0 NGrid=           0.
 Symmetry not used in FoFCou.
 E= -1585.22268584463    
 DIIS: error= 4.89D-02 at cycle   1 NSaved=   1.
 NSaved= 1 IEnMin= 1 EnMin= -1585.22268584463     IErMin= 1 ErrMin= 4.89D-02
 ErrMax= 4.89D-02 EMaxC= 1.00D-01 BMatC= 1.05D+00 BMatP= 1.05D+00
 IDIUse=3 WtCom= 5.11D-01 WtEn= 4.89D-01
 Coeff-Com:  0.100D+01
 Coeff-En:   0.100D+01
 Coeff:      0.100D+01
 Gap=     0.510 Goal=   None    Shift=    0.000
 GapD=    0.510 DampG=2.000 DampE=0.500 DampFc=1.0000 IDamp=-1.
 RMSDP=6.56D-03 MaxDP=1.66D-01              OVMax= 1.99D-01

 Cycle   2  Pass 0  IDiag  1:
 RMSU=  4.62D-03    CP:  9.80D-01
 E= -1585.89517112735     Delta-E=       -0.672485282720 Rises=F Damp=F
 DIIS: error= 1.88D-02 at cycle   2 NSaved=   2.
 NSaved= 2 IEnMin= 2 EnMin= -1585.89517112735     IErMin= 2 ErrMin= 1.88D-02
 ErrMax= 1.88D-02 EMaxC= 1.00D-01 BMatC= 2.32D-01 BMatP= 1.05D+00
 IDIUse=3 WtCom= 8.12D-01 WtEn= 1.88D-01
 Coeff-Com:  0.278D+00 0.722D+00
 Coeff-En:   0.000D+00 0.100D+01
 Coeff:      0.226D+00 0.774D+00
 Gap=     0.476 Goal=   None    Shift=    0.000
 RMSDP=3.03D-03 MaxDP=8.40D-02 DE=-6.72D-01 OVMax= 9.33D-02

 Cycle   3  Pass 0  IDiag  1:
 RMSU=  1.78D-03    CP:  9.77D-01  7.40D-01
 E= -1586.08626172915     Delta-E=       -0.191090601797 Rises=F Damp=F
 DIIS: error= 8.01D-03 at cycle   3 NSaved=   3.
 NSaved= 3 IEnMin= 3 EnMin= -1586.08626172915     IErMin= 3 ErrMin= 8.01D-03
 ErrMax= 8.01D-03 EMaxC= 1.00D-01 BMatC= 2.81D-02 BMatP= 2.32D-01
 IDIUse=3 WtCom= 9.20D-01 WtEn= 8.01D-02
 Coeff-Com:  0.443D-02 0.243D+00 0.753D+00
 Coeff-En:   0.000D+00 0.000D+00 0.100D+01
 Coeff:      0.408D-02 0.224D+00 0.772D+00
 Gap=     0.426 Goal=   None    Shift=    0.000
 RMSDP=8.39D-04 MaxDP=2.91D-02 DE=-1.91D-01 OVMax= 3.39D-02

 Cycle   4  Pass 0  IDiag  1:
 RMSU=  3.69D-04    CP:  9.78D-01  8.31D-01  8.90D-01
 E= -1586.11174647282     Delta-E=       -0.025484743663 Rises=F Damp=F
 DIIS: error= 3.11D-03 at cycle   4 NSaved=   4.
 NSaved= 4 IEnMin= 4 EnMin= -1586.11174647282     IErMin= 4 ErrMin= 3.11D-03
 ErrMax= 3.11D-03 EMaxC= 1.00D-01 BMatC= 2.54D-03 BMatP= 2.81D-02
 IDIUse=3 WtCom= 9.69D-01 WtEn= 3.11D-02
 Coeff-Com: -0.150D-01 0.228D-01 0.275D+00 0.717D+00
 Coeff-En:   0.000D+00 0.000D+00 0.000D+00 0.100D+01
 Coeff:     -0.145D-01 0.221D-01 0.266D+00 0.726D+00
 Gap=     0.418 Goal=   None    Shift=    0.000
 RMSDP=2.87D-04 MaxDP=9.07D-03 DE=-2.55D-02 OVMax= 1.16D-02

 Cycle   5  Pass 0  IDiag  1:
 RMSU=  1.48D-04    CP:  9.77D-01  8.24D-01  9.52D-01  7.95D-01
 E= -1586.11435468780     Delta-E=       -0.002608214985 Rises=F Damp=F
 DIIS: error= 8.63D-04 at cycle   5 NSaved=   5.
 NSaved= 5 IEnMin= 5 EnMin= -1586.11435468780     IErMin= 5 ErrMin= 8.63D-04
 ErrMax= 8.63D-04 EMaxC= 1.00D-01 BMatC= 1.36D-04 BMatP= 2.54D-03
 IDIUse=3 WtCom= 9.91D-01 WtEn= 8.63D-03
 Coeff-Com: -0.133D-02-0.179D-01-0.279D-01 0.655D-01 0.982D+00
 Coeff-En:   0.000D+00 0.000D+00 0.000D+00 0.000D+00 0.100D+01
 Coeff:     -0.132D-02-0.177D-01-0.277D-01 0.649D-01 0.982D+00
 Gap=     0.418 Goal=   None    Shift=    0.000
 RMSDP=1.19D-04 MaxDP=4.94D-03 DE=-2.61D-03 OVMax= 5.04D-03

 Cycle   6  Pass 0  IDiag  1:
 RMSU=  5.64D-05    CP:  9.77D-01  8.23D-01  9.78D-01  8.77D-01  1.18D+00
 E= -1586.11474366301     Delta-E=       -0.000388975214 Rises=F Damp=F
 DIIS: error= 4.40D-04 at cycle   6 NSaved=   6.
 NSaved= 6 IEnMin= 6 EnMin= -1586.11474366301     IErMin= 6 ErrMin= 4.40D-04
 ErrMax= 4.40D-04 EMaxC= 1.00D-01 BMatC= 3.51D-05 BMatP= 1.36D-04
 IDIUse=3 WtCom= 9.96D-01 WtEn= 4.40D-03
 Coeff-Com:  0.283D-02-0.903D-02-0.590D-01-0.156D+00 0.166D+00 0.105D+01
 Coeff-En:   0.000D+00 0.000D+00 0.000D+00 0.000D+00 0.000D+00 0.100D+01
 Coeff:      0.282D-02-0.899D-02-0.588D-01-0.155D+00 0.165D+00 0.105D+01
 Gap=     0.419 Goal=   None    Shift=    0.000
 RMSDP=7.42D-05 MaxDP=2.74D-03 DE=-3.89D-04 OVMax= 5.91D-03

 Cycle   7  Pass 0  IDiag  1:
 RMSU=  2.12D-05    CP:  9.77D-01  8.21D-01  9.90D-01  8.99D-01  1.44D+00
                    CP:  1.24D+00
 E= -1586.11486360126     Delta-E=       -0.000119938245 Rises=F Damp=F
 DIIS: error= 2.41D-04 at cycle   7 NSaved=   7.
 NSaved= 7 IEnMin= 7 EnMin= -1586.11486360126     IErMin= 7 ErrMin= 2.41D-04
 ErrMax= 2.41D-04 EMaxC= 1.00D-01 BMatC= 4.46D-06 BMatP= 3.51D-05
 IDIUse=3 WtCom= 9.98D-01 WtEn= 2.41D-03
 Coeff-Com:  0.401D-03 0.115D-02 0.362D-03-0.269D-01-0.100D+00 0.919D-01
 Coeff-Com:  0.103D+01
 Coeff-En:   0.000D+00 0.000D+00 0.000D+00 0.000D+00 0.000D+00 0.000D+00
 Coeff-En:   0.100D+01
 Coeff:      0.400D-03 0.115D-02 0.361D-03-0.268D-01-0.100D+00 0.917D-01
 Coeff:      0.103D+01
 Gap=     0.419 Goal=   None    Shift=    0.000
 RMSDP=2.48D-05 MaxDP=9.15D-04 DE=-1.20D-04 OVMax= 1.64D-03

 Cycle   8  Pass 0  IDiag  1:
 RMSU=  7.25D-06    CP:  9.77D-01  8.20D-01  9.93D-01  9.04D-01  1.50D+00
                    CP:  1.42D+00  1.29D+00
 E= -1586.11487851544     Delta-E=       -0.000014914183 Rises=F Damp=F
 DIIS: error= 5.87D-05 at cycle   8 NSaved=   8.
 NSaved= 8 IEnMin= 8 EnMin= -1586.11487851544     IErMin= 8 ErrMin= 5.87D-05
 ErrMax= 5.87D-05 EMaxC= 1.00D-01 BMatC= 8.95D-07 BMatP= 4.46D-06
 IDIUse=1 WtCom= 1.00D+00 WtEn= 0.00D+00
 Coeff-Com: -0.527D-03 0.227D-02 0.142D-01 0.266D-01-0.523D-01-0.218D+00
 Coeff-Com:  0.204D+00 0.102D+01
 Coeff:     -0.527D-03 0.227D-02 0.142D-01 0.266D-01-0.523D-01-0.218D+00
 Coeff:      0.204D+00 0.102D+01
 Gap=     0.419 Goal=   None    Shift=    0.000
 RMSDP=1.10D-05 MaxDP=4.03D-04 DE=-1.49D-05 OVMax= 7.46D-04

 Cycle   9  Pass 0  IDiag  1:
 RMSU=  3.30D-06    CP:  9.77D-01  8.19D-01  9.93D-01  9.03D-01  1.52D+00
                    CP:  1.47D+00  1.53D+00  1.19D+00
 E= -1586.11488141610     Delta-E=       -0.000002900655 Rises=F Damp=F
 DIIS: error= 2.14D-05 at cycle   9 NSaved=   9.
 NSaved= 9 IEnMin= 9 EnMin= -1586.11488141610     IErMin= 9 ErrMin= 2.14D-05
 ErrMax= 2.14D-05 EMaxC= 1.00D-01 BMatC= 1.12D-07 BMatP= 8.95D-07
 IDIUse=1 WtCom= 1.00D+00 WtEn= 0.00D+00
 Coeff-Com: -0.150D-03 0.379D-03 0.328D-02 0.772D-02-0.282D-03-0.581D-01
 Coeff-Com: -0.466D-01 0.212D+00 0.882D+00
 Coeff:     -0.150D-03 0.379D-03 0.328D-02 0.772D-02-0.282D-03-0.581D-01
 Coeff:     -0.466D-01 0.212D+00 0.882D+00
 Gap=     0.419 Goal=   None    Shift=    0.000
 RMSDP=2.62D-06 MaxDP=6.14D-05 DE=-2.90D-06 OVMax= 2.32D-04

 Initial convergence to 1.0D-05 achieved.  Increase integral accuracy.
 Cycle  10  Pass 1  IDiag  1:
 E= -1586.11488419367     Delta-E=       -0.000002777572 Rises=F Damp=F
 DIIS: error= 5.51D-05 at cycle   1 NSaved=   1.
 NSaved= 1 IEnMin= 1 EnMin= -1586.11488419367     IErMin= 1 ErrMin= 5.51D-05
 ErrMax= 5.51D-05 EMaxC= 1.00D-01 BMatC= 9.71D-07 BMatP= 9.71D-07
 IDIUse=1 WtCom= 1.00D+00 WtEn= 0.00D+00
 Coeff-Com:  0.100D+01
 Coeff:      0.100D+01
 Gap=     0.419 Goal=   None    Shift=    0.000
 RMSDP=2.62D-06 MaxDP=6.14D-05 DE=-2.78D-06 OVMax= 1.22D-04

 Cycle  11  Pass 1  IDiag  1:
 RMSU=  3.13D-05    CP:  1.00D+00
 E= -1586.11488517853     Delta-E=       -0.000000984859 Rises=F Damp=F
 DIIS: error= 8.47D-06 at cycle   2 NSaved=   2.
 NSaved= 2 IEnMin= 2 EnMin= -1586.11488517853     IErMin= 2 ErrMin= 8.47D-06
 ErrMax= 8.47D-06 EMaxC= 1.00D-01 BMatC= 1.34D-08 BMatP= 9.71D-07
 IDIUse=1 WtCom= 1.00D+00 WtEn= 0.00D+00
 Coeff-Com: -0.363D-01 0.104D+01
 Coeff:     -0.363D-01 0.104D+01
 Gap=     0.419 Goal=   None    Shift=    0.000
 RMSDP=2.56D-06 MaxDP=5.52D-05 DE=-9.85D-07 OVMax= 8.10D-05

 Cycle  12  Pass 1  IDiag  1:
 RMSU=  7.27D-07    CP:  1.00D+00  1.05D+00
 E= -1586.11488521401     Delta-E=       -0.000000035483 Rises=F Damp=F
 DIIS: error= 6.12D-06 at cycle   3 NSaved=   3.
 NSaved= 3 IEnMin= 3 EnMin= -1586.11488521401     IErMin= 3 ErrMin= 6.12D-06
 ErrMax= 6.12D-06 EMaxC= 1.00D-01 BMatC= 6.73D-09 BMatP= 1.34D-08
 IDIUse=1 WtCom= 1.00D+00 WtEn= 0.00D+00
 Coeff-Com: -0.214D-01 0.367D+00 0.655D+00
 Coeff:     -0.214D-01 0.367D+00 0.655D+00
 Gap=     0.419 Goal=   None    Shift=    0.000
 RMSDP=4.28D-07 MaxDP=1.10D-05 DE=-3.55D-08 OVMax= 3.31D-05

 Cycle  13  Pass 1  IDiag  1:
 RMSU=  2.95D-07    CP:  1.00D+00  1.05D+00  1.06D+00
 E= -1586.11488522582     Delta-E=       -0.000000011805 Rises=F Damp=F
 DIIS: error= 4.01D-06 at cycle   4 NSaved=   4.
 NSaved= 4 IEnMin= 4 EnMin= -1586.11488522582     IErMin= 4 ErrMin= 4.01D-06
 ErrMax= 4.01D-06 EMaxC= 1.00D-01 BMatC= 1.76D-09 BMatP= 6.73D-09
 IDIUse=1 WtCom= 1.00D+00 WtEn= 0.00D+00
 Coeff-Com:  0.241D-01-0.595D+00-0.314D+00 0.189D+01
 Coeff:      0.241D-01-0.595D+00-0.314D+00 0.189D+01
 Gap=     0.419 Goal=   None    Shift=    0.000
 RMSDP=6.87D-07 MaxDP=1.27D-05 DE=-1.18D-08 OVMax= 8.34D-05

 Cycle  14  Pass 1  IDiag  1:
 RMSU=  2.40D-07    CP:  1.00D+00  1.06D+00  1.50D+00  1.90D+00
 E= -1586.11488523802     Delta-E=       -0.000000012198 Rises=F Damp=F
 DIIS: error= 1.09D-06 at cycle   5 NSaved=   5.
 NSaved= 5 IEnMin= 5 EnMin= -1586.11488523802     IErMin= 5 ErrMin= 1.09D-06
 ErrMax= 1.09D-06 EMaxC= 1.00D-01 BMatC= 1.79D-10 BMatP= 1.76D-09
 IDIUse=1 WtCom= 1.00D+00 WtEn= 0.00D+00
 Coeff-Com:  0.675D-02-0.146D+00-0.160D+00 0.329D+00 0.970D+00
 Coeff:      0.675D-02-0.146D+00-0.160D+00 0.329D+00 0.970D+00
 Gap=     0.419 Goal=   None    Shift=    0.000
 RMSDP=1.81D-07 MaxDP=3.69D-06 DE=-1.22D-08 OVMax= 2.26D-05

 Cycle  15  Pass 1  IDiag  1:
 RMSU=  5.25D-08    CP:  1.00D+00  1.06D+00  1.57D+00  2.16D+00  1.29D+00
 E= -1586.11488523878     Delta-E=       -0.000000000759 Rises=F Damp=F
 DIIS: error= 3.46D-07 at cycle   6 NSaved=   6.
 NSaved= 6 IEnMin= 6 EnMin= -1586.11488523878     IErMin= 6 ErrMin= 3.46D-07
 ErrMax= 3.46D-07 EMaxC= 1.00D-01 BMatC= 3.09D-11 BMatP= 1.79D-10
 IDIUse=1 WtCom= 1.00D+00 WtEn= 0.00D+00
 Coeff-Com: -0.261D-02 0.699D-01 0.835D-02-0.233D+00 0.259D+00 0.898D+00
 Coeff:     -0.261D-02 0.699D-01 0.835D-02-0.233D+00 0.259D+00 0.898D+00
 Gap=     0.419 Goal=   None    Shift=    0.000
 RMSDP=5.08D-08 MaxDP=7.99D-07 DE=-7.59D-10 OVMax= 4.63D-06

 Cycle  16  Pass 1  IDiag  1:
 RMSU=  2.12D-08    CP:  1.00D+00  1.06D+00  1.58D+00  2.20D+00  1.40D+00
                    CP:  1.02D+00
 E= -1586.11488523883     Delta-E=       -0.000000000052 Rises=F Damp=F
 DIIS: error= 1.00D-07 at cycle   7 NSaved=   7.
 NSaved= 7 IEnMin= 7 EnMin= -1586.11488523883     IErMin= 7 ErrMin= 1.00D-07
 ErrMax= 1.00D-07 EMaxC= 1.00D-01 BMatC= 3.87D-12 BMatP= 3.09D-11
 IDIUse=1 WtCom= 1.00D+00 WtEn= 0.00D+00
 Coeff-Com: -0.855D-03 0.185D-01 0.139D-01-0.393D-01-0.113D+00-0.515D-01
 Coeff-Com:  0.117D+01
 Coeff:     -0.855D-03 0.185D-01 0.139D-01-0.393D-01-0.113D+00-0.515D-01
 Coeff:      0.117D+01
 Gap=     0.419 Goal=   None    Shift=    0.000
 RMSDP=2.33D-08 MaxDP=4.20D-07 DE=-5.18D-11 OVMax= 2.35D-06

 Cycle  17  Pass 1  IDiag  1:
 RMSU=  7.92D-09    CP:  1.00D+00  1.06D+00  1.58D+00  2.21D+00  1.43D+00
                    CP:  1.18D+00  1.37D+00
 E= -1586.11488523891     Delta-E=       -0.000000000084 Rises=F Damp=F
 DIIS: error= 7.26D-08 at cycle   8 NSaved=   8.
 NSaved= 8 IEnMin= 8 EnMin= -1586.11488523891     IErMin= 8 ErrMin= 7.26D-08
 ErrMax= 7.26D-08 EMaxC= 1.00D-01 BMatC= 1.12D-12 BMatP= 3.87D-12
 IDIUse=1 WtCom= 1.00D+00 WtEn= 0.00D+00
 Coeff-Com:  0.351D-03-0.107D-01 0.123D-02 0.466D-01-0.927D-01-0.249D+00
 Coeff-Com:  0.388D+00 0.915D+00
 Coeff:      0.351D-03-0.107D-01 0.123D-02 0.466D-01-0.927D-01-0.249D+00
 Coeff:      0.388D+00 0.915D+00
 Gap=     0.419 Goal=   None    Shift=    0.000
 RMSDP=8.97D-09 MaxDP=2.32D-07 DE=-8.37D-11 OVMax= 9.33D-07

 SCF Done:  E(RHF) =  -1586.11488524     A.U. after   17 cycles
             Convg  =    0.8973D-08             -V/T =  2.0000
 KE= 1.586108935839D+03 PE=-8.891315923553D+03 EE= 3.134857674140D+03
 Leave Link  502 at Fri Aug 26 15:02:12 2022, MaxMem=  209715200 cpu:     458.6
 (Enter /opt/gaussian/l601.exe)
 Copying SCF densities to generalized density rwf, IOpCl= 0 IROHF=0.

 **********************************************************************

            Population analysis using the SCF density.

 **********************************************************************

 Orbital symmetries:
       Occupied  (A) (A) (A) (A) (A) (A) (A) (A) (A) (A) (A) (A)
                 (A) (A) (A) (A) (A) (A) (A) (A) (A) (A) (A) (A)
                 (A) (A) (A) (A) (A) (A) (A) (A) (A) (A) (A) (A)
                 (A) (A) (A) (A) (A) (A) (A) (A) (A) (A) (A) (A)
                 (A) (A) (A) (A) (A) (A) (A) (A) (A) (A) (A) (A)
                 (A) (A) (A) (A) (A) (A) (A) (A) (A) (A) (A) (A)
                 (A) (A) (A) (A) (A) (A) (A) (A) (A) (A) (A) (A)
                 (A) (A) (A) (A) (A) (A) (A) (A) (A) (A) (A) (A)
                 (A) (A) (A) (A) (A) (A)
       Virtual   (A) (A) (A) (A) (A) (A) (A) (A) (A) (A) (A) (A)
                 (A) (A) (A) (A) (A) (A) (A) (A) (A) (A) (A) (A)
                 (A) (A) (A) (A) (A) (A) (A) (A) (A) (A) (A) (A)
                 (A) (A) (A) (A) (A) (A) (A) (A) (A) (A) (A) (A)
                 (A) (A) (A) (A) (A) (A) (A) (A) (A) (A) (A) (A)
                 (A) (A) (A) (A) (A) (A) (A) (A) (A) (A) (A) (A)
                 (A) (A) (A) (A) (A) (A) (A) (A) (A) (A) (A) (A)
                 (A) (A) (A) (A) (A) (A) (A) (A) (A) (A) (A) (A)
                 (A) (A) (A) (A) (A) (A) (A) (A) (A) (A) (A) (A)
                 (A) (A) (A) (A) (A) (A) (A) (A) (A) (A) (A) (A)
                 (A) (A) (A) (A) (A) (A) (A) (A) (A) (A) (A) (A)
                 (A) (A) (A) (A) (A) (A) (A) (A) (A) (A) (A) (A)
                 (A) (A) (A) (A) (A) (A) (A) (A) (A) (A) (A) (A)
                 (A) (A) (A) (A) (A) (A) (A) (A) (A) (A) (A) (A)
                 (A) (A) (A) (A) (A) (A) (A) (A) (A) (A) (A) (A)
                 (A) (A) (A) (A) (A) (A) (A) (A)
 The electronic state is 1-A.
 Alpha  occ. eigenvalues --  -92.00246 -20.56341 -20.52709 -15.67433 -15.66037
 Alpha  occ. eigenvalues --  -15.63695 -15.62560 -15.58620 -11.40447 -11.37541
 Alpha  occ. eigenvalues --  -11.33293 -11.32383 -11.31680 -11.31036 -11.29882
 Alpha  occ. eigenvalues --  -11.29456 -11.28511 -11.28501 -11.27506 -11.27115
 Alpha  occ. eigenvalues --  -11.26761 -11.26740 -11.26562 -11.26474 -11.26410
 Alpha  occ. eigenvalues --  -11.25911 -11.25415 -11.25266  -9.02632  -6.70785
 Alpha  occ. eigenvalues --   -6.70612  -6.70330  -1.46693  -1.41960  -1.38182
 Alpha  occ. eigenvalues --   -1.29879  -1.24851  -1.23469  -1.21584  -1.17391
 Alpha  occ. eigenvalues --   -1.17068  -1.07888  -1.06042  -1.05254  -1.03987
 Alpha  occ. eigenvalues --   -1.03645  -1.02325  -1.01446  -0.95638  -0.90567
 Alpha  occ. eigenvalues --   -0.88740  -0.85172  -0.84975  -0.83505  -0.80238
 Alpha  occ. eigenvalues --   -0.79722  -0.78074  -0.76786  -0.75035  -0.73791
 Alpha  occ. eigenvalues --   -0.72460  -0.72270  -0.71163  -0.70021  -0.67977
 Alpha  occ. eigenvalues --   -0.65812  -0.65746  -0.64867  -0.63834  -0.63277
 Alpha  occ. eigenvalues --   -0.62532  -0.62250  -0.60713  -0.60443  -0.59994
 Alpha  occ. eigenvalues --   -0.59658  -0.58773  -0.57797  -0.56705  -0.56353
 Alpha  occ. eigenvalues --   -0.55284  -0.55012  -0.54031  -0.53962  -0.53477
 Alpha  occ. eigenvalues --   -0.51334  -0.51066  -0.50616  -0.49952  -0.49908
 Alpha  occ. eigenvalues --   -0.45967  -0.43184  -0.42937  -0.42208  -0.41687
 Alpha  occ. eigenvalues --   -0.40273  -0.37233  -0.35987  -0.35124  -0.34077
 Alpha  occ. eigenvalues --   -0.32999  -0.32827
 Alpha virt. eigenvalues --    0.09032   0.09272   0.10210   0.12333   0.14088
 Alpha virt. eigenvalues --    0.15030   0.16587   0.18192   0.19494   0.20698
 Alpha virt. eigenvalues --    0.21556   0.22186   0.22432   0.22771   0.23427
 Alpha virt. eigenvalues --    0.24681   0.25354   0.26262   0.27603   0.27702
 Alpha virt. eigenvalues --    0.28322   0.28893   0.30163   0.30897   0.31147
 Alpha virt. eigenvalues --    0.32159   0.32688   0.32934   0.34364   0.35118
 Alpha virt. eigenvalues --    0.36493   0.36688   0.38599   0.39139   0.40867
 Alpha virt. eigenvalues --    0.41228   0.41935   0.42933   0.43580   0.44831
 Alpha virt. eigenvalues --    0.45588   0.46409   0.47244   0.47708   0.48115
 Alpha virt. eigenvalues --    0.49940   0.50633   0.51275   0.52840   0.53280
 Alpha virt. eigenvalues --    0.54069   0.55176   0.56481   0.56702   0.58638
 Alpha virt. eigenvalues --    0.61307   0.62754   0.63261   0.65268   0.70150
 Alpha virt. eigenvalues --    0.71260   0.71503   0.72844   0.73753   0.74317
 Alpha virt. eigenvalues --    0.74510   0.75322   0.76302   0.76562   0.77321
 Alpha virt. eigenvalues --    0.78024   0.79100   0.79588   0.80391   0.80909
 Alpha virt. eigenvalues --    0.81524   0.82522   0.82590   0.82938   0.83284
 Alpha virt. eigenvalues --    0.83814   0.84541   0.85039   0.85498   0.85756
 Alpha virt. eigenvalues --    0.86391   0.86613   0.87115   0.87557   0.88354
 Alpha virt. eigenvalues --    0.88975   0.89348   0.89713   0.90478   0.90980
 Alpha virt. eigenvalues --    0.92458   0.93539   0.93734   0.94643   0.94970
 Alpha virt. eigenvalues --    0.95703   0.96925   0.97656   0.98038   0.99306
 Alpha virt. eigenvalues --    0.99967   1.00409   1.01623   1.02763   1.03801
 Alpha virt. eigenvalues --    1.05938   1.06437   1.07693   1.08159   1.08994
 Alpha virt. eigenvalues --    1.09943   1.10032   1.10284   1.10986   1.11422
 Alpha virt. eigenvalues --    1.12023   1.12265   1.12991   1.13663   1.14255
 Alpha virt. eigenvalues --    1.15395   1.16146   1.16341   1.17533   1.19010
 Alpha virt. eigenvalues --    1.19509   1.20891   1.21301   1.22357   1.22585
 Alpha virt. eigenvalues --    1.23115   1.24282   1.25652   1.25949   1.26905
 Alpha virt. eigenvalues --    1.27930   1.28589   1.29415   1.30917   1.31403
 Alpha virt. eigenvalues --    1.32310   1.32850   1.33165   1.36567   1.37536
 Alpha virt. eigenvalues --    1.38315   1.38635   1.40214   1.41690   1.42036
 Alpha virt. eigenvalues --    1.42884   1.43811   1.45833   1.47108   1.48565
 Alpha virt. eigenvalues --    1.49286   1.50058   1.51663   1.53984   1.56526
 Alpha virt. eigenvalues --    1.57541   1.58209   1.59161   1.62613   1.63850
 Alpha virt. eigenvalues --    1.66258   1.67156   1.69392   1.70180   1.72574
 Alpha virt. eigenvalues --    1.72846   1.76066   1.80036   1.85367   1.87837
 Alpha virt. eigenvalues --    1.96450   2.01011   2.03368   2.15759   2.22587
 Alpha virt. eigenvalues --    2.25659   2.28936   2.31293
          Condensed to atoms (all electrons):
              1          2          3          4          5          6
     1  N    7.467057   0.149144  -0.137501  -0.184640   0.001703  -0.000057
     2  C    0.149144   4.410303   0.608485   0.165222  -0.018019   0.006586
     3  O   -0.137501   0.608485   8.255665  -0.131640   0.009124   0.000653
     4  C   -0.184640   0.165222  -0.131640   5.510609   0.465774  -0.057660
     5  C    0.001703  -0.018019   0.009124   0.465774   5.003041   0.471703
     6  C   -0.000057   0.006586   0.000653  -0.057660   0.471703   5.006752
     7  C   -0.000018  -0.000722  -0.000020  -0.026980  -0.041515   0.523953
     8  C    0.000499   0.004136  -0.000026  -0.049540  -0.046035  -0.025614
     9  C    0.002665  -0.027074   0.000208   0.464550  -0.025217  -0.048383
    10  N    0.000000  -0.000008   0.000000  -0.000383   0.005293  -0.037437
    11  C    0.000000   0.000000   0.000000   0.000030  -0.000092   0.000674
    12  C    0.000000   0.000000   0.000000  -0.000004   0.000005  -0.000095
    13  C    0.000000   0.000000   0.000000   0.000000   0.000000   0.000001
    14  C    0.000000   0.000000   0.000000   0.000000   0.000000   0.000000
    15  S    0.000000   0.000000   0.000000   0.000000   0.000000  -0.000001
    16  C    0.000000   0.000000   0.000000  -0.000001   0.000000   0.000009
    17  C    0.000000   0.000000   0.000000   0.000009  -0.000168  -0.007883
    18  O    0.000000   0.000000   0.000000   0.000002  -0.000377  -0.021518
    19  C    0.000000   0.000000   0.000000   0.000000  -0.000004  -0.000340
    20  N    0.000000   0.000000   0.000000   0.000000   0.000000   0.000003
    21  N    0.000000   0.000000   0.000000   0.000000   0.000000   0.000000
    22  N    0.000000   0.000000   0.000000   0.000000   0.000000   0.000000
    23  C    0.000000   0.000000   0.000000   0.000000   0.000000   0.000000
    24  C    0.000000   0.000000   0.000000   0.000000   0.000000   0.000000
    25  C    0.000000   0.000000   0.000000   0.000000   0.000000   0.000000
    26  C    0.000000   0.000000   0.000000   0.000000   0.000000   0.000000
    27  C    0.000000   0.000000   0.000000   0.000000   0.000000   0.000000
    28  C    0.000000   0.000000   0.000000   0.000000   0.000000   0.000001
    29  H    0.313462  -0.013606   0.002465   0.004175  -0.000116  -0.000013
    30  H    0.319303  -0.016161   0.003463   0.005751  -0.000064   0.000001
    31  H    0.000072   0.000654   0.002450  -0.026556   0.367380  -0.015270
    32  H    0.000001  -0.000073  -0.000001   0.002153  -0.015885   0.365943
    33  H    0.000002  -0.000066   0.000000   0.001803   0.000181   0.001674
    34  H    0.001339   0.000741  -0.000067  -0.028131   0.001779   0.000366
    35  H    0.000000   0.000000   0.000000  -0.000011  -0.000054   0.000669
    36  H    0.000000   0.000000   0.000000   0.000000   0.000000   0.000041
    37  H    0.000000   0.000000   0.000000   0.000000   0.000000   0.000000
    38  H    0.000000   0.000000   0.000000   0.000000   0.000000   0.000000
[...]
    32  H   -0.000040  -0.000010   0.000001   0.000000   0.000000   0.000000
    33  H    0.000010   0.000000   0.000000   0.000000   0.000000   0.000000
    34  H    0.000000   0.000000   0.000000   0.000000   0.000000   0.000000
    35  H    0.000191  -0.000005   0.000000   0.000000   0.000000   0.000000
    36  H   -0.000553  -0.000107  -0.000028   0.000000   0.000000   0.000000
    37  H    0.000000   0.000000   0.000000   0.000000   0.000000   0.000000
    38  H    0.000000   0.000000   0.000000   0.000000   0.000000   0.000000
    39  H   -0.000181   0.000003   0.000000   0.000000   0.000000   0.000000
    40  H    0.397989  -0.043314   0.001415  -0.000138   0.000086  -0.000005
    41  H    0.390992  -0.037857   0.008922   0.000015  -0.000190  -0.000003
    42  H    0.000001  -0.000109  -0.000085   0.001097  -0.020239   0.361682
    43  H    0.000000  -0.000006   0.000002  -0.000066   0.002798  -0.020006
    44  H    0.000001  -0.000101   0.000001  -0.000004   0.000468   0.002340
    45  H   -0.000077  -0.002974  -0.000005  -0.000101   0.000813   0.000167
             25         26         27         28         29         30
     1  N    0.000000   0.000000   0.000000   0.000000   0.314585   0.318753
     2  C    0.000000   0.000000   0.000000   0.000000  -0.010880  -0.017420
     3  O    0.000000   0.000000   0.000000   0.000000   0.002200   0.003906
     4  C    0.000000   0.000000   0.000000   0.000000   0.001357   0.006450
     5  C    0.000000   0.000000   0.000000   0.000000  -0.000186  -0.000062
     6  C    0.000000   0.000000   0.000000   0.000001  -0.000008   0.000001
     7  C    0.000000   0.000000  -0.000001   0.000001   0.000002   0.000000
     8  C    0.000000   0.000000   0.000000   0.000000  -0.000073   0.000000
     9  C    0.000000   0.000000   0.000000   0.000000   0.002796  -0.000172
    10  N    0.000000   0.000000   0.000029   0.000267   0.000000   0.000000
    11  C    0.000000   0.000000  -0.000001  -0.000028   0.000000   0.000000
    12  C    0.000000   0.000000  -0.000014   0.000010   0.000000   0.000000
    13  C    0.000000   0.000000   0.000001   0.000000   0.000000   0.000000
    14  C    0.000000   0.000000   0.000000   0.000000   0.000000   0.000000
    15  S    0.000000   0.000000  -0.000016   0.000001   0.000000   0.000000
    16  C    0.000000   0.000000  -0.000168   0.000007   0.000000   0.000000
    17  C   -0.000001   0.000033   0.001512   0.004037   0.000000   0.000000
    18  O    0.000002   0.000010   0.001250   0.004254   0.000000   0.000000
    19  C   -0.000010  -0.000063  -0.003213  -0.048969   0.000000   0.000000
    20  N   -0.000278   0.004919  -0.051897  -0.200298   0.000000   0.000000
    21  N   -0.000141  -0.000234   0.003527  -0.077904   0.000000   0.000000
    22  N    0.003291  -0.000525   0.011943  -0.058020   0.000000   0.000000
    23  C   -0.059156  -0.037231  -0.021498   0.337465   0.000000   0.000000
    24  C    0.547254  -0.053512  -0.043408  -0.080362   0.000000   0.000000
    25  C    5.024220   0.478565  -0.056569  -0.035951   0.000000   0.000000
    26  C    0.478565   4.980887   0.529947  -0.032472   0.000000   0.000000
    27  C   -0.056569   0.529947   4.961583   0.381875   0.000000   0.000000
    28  C   -0.035951  -0.032472   0.381875   5.338078   0.000000   0.000000
    29  H    0.000000   0.000000   0.000000   0.000000   0.323465  -0.014297
    30  H    0.000000   0.000000   0.000000   0.000000  -0.014297   0.310926
    31  H    0.000000   0.000000   0.000000   0.000000  -0.000015   0.000004
    32  H    0.000000   0.000000   0.000000   0.000001   0.000000   0.000000
    33  H    0.000000   0.000000   0.000000   0.000000  -0.000002   0.000000
    34  H    0.000000   0.000000   0.000000   0.000000   0.002517   0.000057
    35  H    0.000000   0.000000   0.000000   0.000000   0.000000   0.000000
    36  H    0.000000   0.000000   0.000000  -0.000011   0.000000   0.000000
    37  H    0.000000   0.000000   0.000000   0.000000   0.000000   0.000000
    38  H    0.000000   0.000000   0.000000   0.000000   0.000000   0.000000
    39  H    0.000000   0.000000   0.000011  -0.000003   0.000000   0.000000
    40  H   -0.000001  -0.000021  -0.000308   0.001148   0.000000   0.000000
    41  H    0.000000   0.000001   0.000043   0.003867   0.000000   0.000000
    42  H   -0.020496   0.002058   0.000024   0.003153   0.000000   0.000000
    43  H    0.374883  -0.026215   0.002613   0.000373   0.000000   0.000000
    44  H   -0.024228   0.373799  -0.022772   0.002794   0.000000   0.000000
    45  H    0.002028  -0.015432   0.371277  -0.032177   0.000000   0.000000
             31         32         33         34         35         36
     1  N    0.000233   0.000001   0.000004   0.000685   0.000000   0.000000
     2  C   -0.000356  -0.000077  -0.000068   0.000399   0.000000   0.000000
     3  O    0.004025   0.000000   0.000000  -0.000024   0.000000   0.000000
     4  C   -0.024717   0.002183   0.001835  -0.028293  -0.000015  -0.000001
     5  C    0.369959  -0.015588   0.000140   0.002020  -0.000079  -0.000002
     6  C   -0.017354   0.369895   0.002157   0.000432   0.000687   0.000078
     7  C    0.001486  -0.024558  -0.028207   0.001309   0.005373   0.002439
     8  C    0.000355   0.002472   0.369758  -0.013246  -0.000542   0.000447
     9  C    0.001904   0.000071  -0.015656   0.363724  -0.000255   0.000009
    10  N   -0.000097  -0.005740  -0.002384  -0.000127  -0.044045  -0.051864
    11  C    0.000001  -0.000016  -0.001124   0.000010   0.423431   0.430705
    12  C    0.000000  -0.000009   0.002641  -0.000001  -0.059424  -0.073306
    13  C    0.000000   0.000000   0.000017   0.000000   0.000030   0.000163
    14  C    0.000000   0.000000  -0.000088   0.000000   0.000117   0.000304
    15  S    0.000000   0.000000  -0.000349   0.000000   0.000008  -0.000065
    16  C    0.000000   0.000001   0.003865   0.000000  -0.001111   0.000740
    17  C   -0.000001   0.001888   0.000073   0.000000   0.001589  -0.001453
    18  O   -0.000009   0.004013   0.000007   0.000000  -0.000057   0.000080
    19  C    0.000000  -0.000040   0.000010   0.000000   0.000191  -0.000553
    20  N    0.000000  -0.000010   0.000000   0.000000  -0.000005  -0.000107
    21  N    0.000000   0.000001   0.000000   0.000000   0.000000  -0.000028
    22  N    0.000000   0.000000   0.000000   0.000000   0.000000   0.000000
    23  C    0.000000   0.000000   0.000000   0.000000   0.000000   0.000000
    24  C    0.000000   0.000000   0.000000   0.000000   0.000000   0.000000
    25  C    0.000000   0.000000   0.000000   0.000000   0.000000   0.000000
    26  C    0.000000   0.000000   0.000000   0.000000   0.000000   0.000000
    27  C    0.000000   0.000000   0.000000   0.000000   0.000000   0.000000
    28  C    0.000000   0.000001   0.000000   0.000000   0.000000  -0.000011
    29  H   -0.000015   0.000000  -0.000002   0.002517   0.000000   0.000000
    30  H    0.000004   0.000000   0.000000   0.000057   0.000000   0.000000
    31  H    0.394675   0.000075   0.000006  -0.000114   0.000000   0.000000
    32  H    0.000075   0.413852  -0.000095   0.000007   0.000019   0.000014
    33  H    0.000006  -0.000095   0.437023   0.000300  -0.001407   0.000165
    34  H   -0.000114   0.000007   0.000300   0.457201  -0.000003   0.000000
    35  H    0.000000   0.000019  -0.001407  -0.000003   0.474155  -0.023900
    36  H    0.000000   0.000014   0.000165   0.000000  -0.023900   0.519564
    37  H    0.000000   0.000000   0.000001   0.000000   0.000100   0.000214
    38  H    0.000000   0.000000   0.000000   0.000000   0.000000   0.000000
    39  H    0.000000   0.000000  -0.000183   0.000000  -0.000034  -0.000041
    40  H    0.000000  -0.000001  -0.000002   0.000000   0.000161  -0.002215
    41  H    0.000000  -0.000009  -0.000001   0.000000   0.000063   0.001638
    42  H    0.000000   0.000000   0.000000   0.000000   0.000000   0.000000
    43  H    0.000000   0.000000   0.000000   0.000000   0.000000   0.000000
    44  H    0.000000   0.000000   0.000000   0.000000   0.000000   0.000000
    45  H    0.000000   0.000000   0.000000   0.000000   0.000000  -0.000002
             37         38         39         40         41         42
     1  N    0.000000   0.000000   0.000000   0.000000   0.000000   0.000000
     2  C    0.000000   0.000000   0.000000   0.000000   0.000000   0.000000
     3  O    0.000000   0.000000   0.000000   0.000000   0.000000   0.000000
     4  C    0.000000   0.000000  -0.000002   0.000000   0.000000   0.000000
     5  C    0.000000   0.000000  -0.000002   0.000000   0.000000   0.000000
     6  C    0.000000   0.000000  -0.000003  -0.000012   0.000049   0.000000
     7  C   -0.000002   0.000000   0.000472  -0.000168  -0.000189   0.000000
     8  C    0.000000   0.000000   0.000593   0.000016  -0.000007   0.000000
     9  C    0.000000   0.000000   0.000025   0.000000   0.000000   0.000000
    10  N    0.000029   0.000001  -0.000173   0.004248   0.004676   0.000000
    11  C   -0.000958  -0.000067  -0.000155  -0.003006  -0.003641   0.000000
    12  C   -0.031325   0.000240  -0.014859   0.005248   0.000179   0.000000
    13  C    0.377306  -0.010642   0.001247   0.000056  -0.000032   0.000000
    14  C   -0.021622   0.381806   0.001868  -0.000115  -0.000003   0.000000
    15  S    0.002320  -0.016709  -0.013579  -0.000313   0.000001   0.000000
    16  C    0.005925   0.002773   0.384339   0.002634   0.000095   0.000000
    17  C   -0.000001   0.000000   0.000716  -0.048856  -0.040987   0.000000
    18  O    0.000000   0.000000   0.000179   0.001367   0.001300   0.000000
    19  C    0.000000   0.000000  -0.000181   0.397989   0.390992   0.000001
    20  N    0.000000   0.000000   0.000003  -0.043314  -0.037857  -0.000109
    21  N    0.000000   0.000000   0.000000   0.001415   0.008922  -0.000085
    22  N    0.000000   0.000000   0.000000  -0.000138   0.000015   0.001097
    23  C    0.000000   0.000000   0.000000   0.000086  -0.000190  -0.020239
    24  C    0.000000   0.000000   0.000000  -0.000005  -0.000003   0.361682
    25  C    0.000000   0.000000   0.000000  -0.000001   0.000000  -0.020496
    26  C    0.000000   0.000000   0.000000  -0.000021   0.000001   0.002058
    27  C    0.000000   0.000000   0.000011  -0.000308   0.000043   0.000024
    28  C    0.000000   0.000000  -0.000003   0.001148   0.003867   0.003153
    29  H    0.000000   0.000000   0.000000   0.000000   0.000000   0.000000
    30  H    0.000000   0.000000   0.000000   0.000000   0.000000   0.000000
    31  H    0.000000   0.000000   0.000000   0.000000   0.000000   0.000000
    32  H    0.000000   0.000000   0.000000  -0.000001  -0.000009   0.000000
    33  H    0.000001   0.000000  -0.000183  -0.000002  -0.000001   0.000000
    34  H    0.000000   0.000000   0.000000   0.000000   0.000000   0.000000
    35  H    0.000100   0.000000  -0.000034   0.000161   0.000063   0.000000
    36  H    0.000214   0.000000  -0.000041  -0.002215   0.001638   0.000000
    37  H    0.443760   0.000801  -0.000069   0.000002   0.000000   0.000000
    38  H    0.000801   0.401528  -0.000012   0.000000   0.000000   0.000000
    39  H   -0.000069  -0.000012   0.387924  -0.000069   0.000004   0.000000
    40  H    0.000002   0.000000  -0.000069   0.459650  -0.016019   0.000000
    41  H    0.000000   0.000000   0.000004  -0.016019   0.436950   0.000000
    42  H    0.000000   0.000000   0.000000   0.000000   0.000000   0.431610
    43  H    0.000000   0.000000   0.000000   0.000000   0.000000  -0.000103
    44  H    0.000000   0.000000   0.000000   0.000000   0.000000  -0.000088
    45  H    0.000000   0.000000   0.000153   0.000340   0.000017   0.000008
             43         44         45
     1  N    0.000000   0.000000   0.000000
     2  C    0.000000   0.000000   0.000000
     3  O    0.000000   0.000000   0.000000
     4  C    0.000000   0.000000   0.000000
     5  C    0.000000   0.000000   0.000000
     6  C    0.000000   0.000000   0.000000
     7  C    0.000000   0.000000   0.000000
     8  C    0.000000   0.000000   0.000000
     9  C    0.000000   0.000000   0.000000
    10  N    0.000000   0.000000  -0.000012
    11  C    0.000000   0.000000  -0.000006
    12  C    0.000000   0.000000   0.000045
    13  C    0.000000   0.000000  -0.000002
    14  C    0.000000   0.000000  -0.000003
    15  S    0.000000   0.000000   0.000095
    16  C    0.000000   0.000000   0.000617
    17  C    0.000000   0.000000   0.000113
    18  O    0.000000   0.000000   0.000364
    19  C    0.000000   0.000001  -0.000077
    20  N   -0.000006  -0.000101  -0.002974
    21  N    0.000002   0.000001  -0.000005
    22  N   -0.000066  -0.000004  -0.000101
    23  C    0.002798   0.000468   0.000813
    24  C   -0.020006   0.002340   0.000167
    25  C    0.374883  -0.024228   0.002028
    26  C   -0.026215   0.373799  -0.015432
    27  C    0.002613  -0.022772   0.371277
    28  C    0.000373   0.002794  -0.032177
    29  H    0.000000   0.000000   0.000000
    30  H    0.000000   0.000000   0.000000
    31  H    0.000000   0.000000   0.000000
    32  H    0.000000   0.000000   0.000000
    33  H    0.000000   0.000000   0.000000
    34  H    0.000000   0.000000   0.000000
    35  H    0.000000   0.000000   0.000000
    36  H    0.000000   0.000000  -0.000002
    37  H    0.000000   0.000000   0.000000
    38  H    0.000000   0.000000   0.000000
    39  H    0.000000   0.000000   0.000153
    40  H    0.000000   0.000000   0.000340
    41  H    0.000000   0.000000   0.000017
    42  H   -0.000103  -0.000088   0.000008
    43  H    0.461007  -0.000269  -0.000099
    44  H   -0.000269   0.462080  -0.000172
    45  H   -0.000099  -0.000172   0.452261
 Mulliken atomic charges:
              1
     1  N   -0.943736
     2  C    0.758862
     3  O   -0.605632
     4  C   -0.130155
     5  C   -0.180854
     6  C   -0.152220
     7  C    0.347449
     8  C   -0.229752
     9  C   -0.172125
    10  N   -0.990555
    11  C   -0.087504
    12  C    0.064466
    13  C   -0.103793
    14  C   -0.551987
    15  S    0.483063
    16  C   -0.602348
    17  C    0.787299
    18  O   -0.563063
    19  C   -0.130505
    20  N   -0.885537
    21  N    0.094774
    22  N   -0.333006
    23  C   -0.020520
    24  C   -0.077866
    25  C   -0.233411
    26  C   -0.204515
    27  C   -0.065769
    28  C    0.488861
    29  H    0.378538
    30  H    0.391852
    31  H    0.269938
    32  H    0.251649
    33  H    0.231562
    34  H    0.213145
    35  H    0.224954
    36  H    0.196985
    37  H    0.223520
    38  H    0.240281
    39  H    0.251834
    40  H    0.240203
    41  H    0.250127
    42  H    0.241486
    43  H    0.205088
    44  H    0.206152
    45  H    0.222763
 Sum of Mulliken atomic charges =   0.00000
 Mulliken charges with hydrogens summed into heavy atoms:
              1
     1  N   -0.173345
     2  C    0.758862
     3  O   -0.605632
     4  C   -0.130155
     5  C    0.089084
     6  C    0.099428
     7  C    0.347449
     8  C    0.001809
     9  C    0.041020
    10  N   -0.990555
    11  C    0.334435
    12  C    0.064466
    13  C    0.119728
    14  C   -0.311706
    15  S    0.483063
    16  C   -0.350514
    17  C    0.787299
    18  O   -0.563063
    19  C    0.359825
    20  N   -0.885537
    21  N    0.094774
    22  N   -0.333006
    23  C   -0.020520
    24  C    0.163621
    25  C   -0.028324
    26  C    0.001637
    27  C    0.156994
    28  C    0.488861
 Sum of Mulliken charges with hydrogens summed into heavy atoms =   0.00000
 Electronic spatial extent (au):  <R**2>=          14211.9040
 Charge=              0.0000 electrons
 Dipole moment (field-independent basis, Debye):
    X=              1.9652    Y=             10.0093    Z=             -0.4401  Tot=             10.2099
 Quadrupole moment (field-independent basis, Debye-Ang):
   XX=           -165.4419   YY=           -184.7413   ZZ=           -169.6040
   XY=             18.4574   XZ=            -17.7590   YZ=             -9.8342
 Traceless Quadrupole moment (field-independent basis, Debye-Ang):
   XX=              7.8205   YY=            -11.4789   ZZ=              3.6584
   XY=             18.4574   XZ=            -17.7590   YZ=             -9.8342
 Octapole moment (field-independent basis, Debye-Ang**2):
  XXX=            148.0376  YYY=            124.0837  ZZZ=             18.3269  XYY=            -76.3294
  XXY=            127.2334  XXZ=             96.6315  XZZ=             13.0461  YZZ=             24.9350
  YYZ=            -38.4053  XYZ=             60.6078
 Hexadecapole moment (field-independent basis, Debye-Ang**3):
 XXXX=         -11048.4638 YYYY=          -5189.7043 ZZZZ=          -1390.3005 XXXY=            906.2749
 XXXZ=           -190.2569 YYYX=            199.0698 YYYZ=           -126.8111 ZZZX=           -127.9079
 ZZZY=            -91.8080 XXYY=          -3608.1202 XXZZ=          -2388.1670 YYZZ=          -1191.6912
 XXYZ=            -93.0202 YYXZ=           -165.5291 ZZXY=            -64.3963
 N-N= 2.571571527484D+03 E-N=-8.867352567474D+03  KE= 1.587379241748D+03
 No NMR shielding tensors so no spin-rotation constants.
 Leave Link  601 at Fri Aug 26 15:21:26 2022, MaxMem=  209715200 cpu:       1.2
 (Enter /opt/gaussian/l9999.exe)
 1\1\GINC-LQCAPF-6\FOpt\RHF\6-31G\C20H17N5O2S1\LQCAPF-6\26-Aug-2022\0\\
 #p opt hf/6-31G\\Mol10.out\\0,1\N,13.744531411,-9.9850486823,-0.427137
 9622\C,14.3747803781,-8.8013462414,-0.6236757642\O,13.7676007532,-7.73
 70787826,-0.5232567676\C,15.8198347878,-8.8345298464,-0.982438945\C,16
 .370065177,-7.7023980945,-1.5756010306\C,17.70184978,-7.6670587741,-1.
 9413038916\C,18.5204678478,-8.7660110926,-1.6966254294\C,17.9835550891
 ,-9.8911054772,-1.0826304995\C,16.642853024,-9.9244299937,-0.733828989
 6\N,19.8913838415,-8.7692707623,-2.1164418625\C,20.3970180044,-9.96704
 18056,-2.7932520369\C,21.2406520196,-10.8805311118,-1.9347751898\C,21.
 9449604636,-12.010691555,-2.5082319696\C,22.6411160145,-12.7281686761,
 -1.614125522\S,22.4868399915,-12.0600045128,0.0358868971\C,21.42663220
 17,-10.7704517487,-0.6074493119\C,20.6910073014,-7.6742366741,-1.88282
 76085\O,20.3248785016,-6.7236372136,-1.2118598364\C,22.0831353411,-7.6
 894133773,-2.5034282681\N,22.7842763774,-6.4633936056,-2.28257965\N,22
 .8418049795,-5.5353277955,-3.2811715699\N,23.4696468026,-4.5132162256,
 -2.8727530415\C,23.8550603418,-4.7184714131,-1.5573549318\C,24.5647986
 544,-3.8983915778,-0.681231395\C,24.803554453,-4.38430293,0.580745281\
 C,24.3419325482,-5.6622062123,0.9681102706\C,23.6392853188,-6.47541452
 86,0.1113906603\C,23.4046419252,-5.9746787118,-1.1716478271\H,14.15802
 14272,-10.8617590853,-0.6199075487\H,12.7872898212,-9.9607766058,-0.16
 71802743\H,15.7395072377,-6.8544846956,-1.7486918879\H,18.1067363836,-
 6.786270113,-2.3907457054\H,18.6058394075,-10.7340843696,-0.8608120895
 \H,16.2679611621,-10.796928711,-0.235150956\H,19.5383334951,-10.510523
 4849,-3.1616580575\H,20.963245823,-9.6820747738,-3.6712865114\H,21.913
 0759701,-12.2507621406,-3.5523779392\H,23.2378557876,-13.5956714343,-1
 .7835884845\H,21.0186257857,-10.0415430603,0.056424738\H,22.6587481445
 ,-8.5168319234,-2.1118796299\H,22.0075691076,-7.8085711833,-3.573992\H
 ,24.9021825647,-2.9310442905,-0.9942219514\H,25.3436228513,-3.79020915
 51,1.2910439142\H,24.5432588166,-6.0023786223,1.9653700492\H,23.280862
 8845,-7.4361289287,0.4216505259\\Version=EM64L-G09RevC.01\State=1-A\HF
 =-1586.1632242\RMSD=2.522e-09\RMSF=1.698e-05\Dipole=0.8511596,-3.92229
 34,-0.1625319\Quadrupole=-6.2760364,3.829324,2.4467124,14.7759784,9.23
 00089,11.8142191\PG=C01 [X(C20H17N5O2S1)]\\@


 NATURE GIVES TO EVERY TIME AND SEASON SOME BEAUTY OF ITS OWN.

                                                    --DICKENS
 Job cpu time:  0 days  2 hours 31 minutes 35.4 seconds.
 File lengths (MBytes):  RWF=     59 Int=      0 D2E=      0 Chk=      8 Scr=      1
 Normal termination of Gaussian 09 at Fri Aug 26 15:21:26 2022.
