 Entering Gaussian System, Link 0=g09
 Input=Mol14.gjf
 Output=Mol14.log
 Initial command:
 /opt/gaussian/l1.exe /home/scr/lqcapf-6/Gau-240539.inp -scrdir=/home/scr/lqcapf-6/
 Entering Link 1 = /opt/gaussian/l1.exe PID=    240541.
  
 Copyright (c) 1988,1990,1992,1993,1995,1998,2003,2009,2011,
            Gaussian, Inc.  All Rights Reserved.
  
 This is part of the Gaussian(R) 09 program.  It is based on
 the Gaussian(R) 03 system (copyright 2003, Gaussian, Inc.),
 the Gaussian(R) 98 system (copyright 1998, Gaussian, Inc.),
 the Gaussian(R) 94 system (copyright 1995, Gaussian, Inc.),
 the Gaussian 92(TM) system (copyright 1992, Gaussian, Inc.),
 the Gaussian 90(TM) system (copyright 1990, Gaussian, Inc.),
 the Gaussian 88(TM) system (copyright 1988, Gaussian, Inc.),
 the Gaussian 86(TM) system (copyright 1986, Carnegie Mellon
 University), and the Gaussian 82(TM) system (copyright 1983,
 Carnegie Mellon University). Gaussian is a federally registered
 trademark of Gaussian, Inc.
  
 This software contains proprietary and confidential information,
 including trade secrets, belonging to Gaussian, Inc.
  
 This software is provided under written license and may be
 used, copied, transmitted, or stored only in accord with that
 written license.
  
 The following legend is applicable only to US Government
 contracts under FAR:
  
                    RESTRICTED RIGHTS LEGEND
  
 Use, reproduction and disclosure by the US Government is
 subject to restrictions as set forth in subparagraphs (a)
 and (c) of the Commercial Computer Software - Restricted
 Rights clause in FAR 52.227-19.
  
 Gaussian, Inc.
 340 Quinnipiac St., Bldg. 40, Wallingford CT 06492
  
  
 ---------------------------------------------------------------
 Warning -- This program may not be used in any manner that
 competes with the business of Gaussian, Inc. or will provide
 assistance to any competitor of Gaussian, Inc.  The licensee
 of this program is prohibited from giving any competitor of
 Gaussian, Inc. access to this program.  By using this program,
 the user acknowledges that Gaussian, Inc. is engaged in the
 business of creating and licensing software in the field of
 computational chemistry and represents and warrants to the
 licensee that it is not a competitor of Gaussian, Inc. and that
 it will not use this program in any manner prohibited above.
 ---------------------------------------------------------------
  

 Cite this work as:
 Gaussian 09, Revision C.01,
 M. J. Frisch, G. W. Trucks, H. B. Schlegel, G. E. Scuseria, 
 M. A. Robb, J. R. Cheeseman, G. Scalmani, V. Barone, B. Mennucci, 
 G. A. Petersson, H. Nakatsuji, M. Caricato, X. Li, H. P. Hratchian, 
 A. F. Izmaylov, J. Bloino, G. Zheng, J. L. Sonnenberg, M. Hada, 
 M. Ehara, K. Toyota, R. Fukuda, J. Hasegawa, M. Ishida, T. Nakajima, 
 Y. Honda, O. Kitao, H. Nakai, T. Vreven, J. A. Montgomery, Jr., 
 J. E. Peralta, F. Ogliaro, M. Bearpark, J. J. Heyd, E. Brothers, 
 K. N. Kudin, V. N. Staroverov, T. Keith, R. Kobayashi, J. Normand, 
 K. Raghavachari, A. Rendell, J. C. Burant, S. S. Iyengar, J. Tomasi, 
 M. Cossi, N. Rega, J. M. Millam, M. Klene, J. E. Knox, J. B. Cross, 
 V. Bakken, C. Adamo, J. Jaramillo, R. Gomperts, R. E. Stratmann, 
 O. Yazyev, A. J. Austin, R. Cammi, C. Pomelli, J. W. Ochterski, 
 R. L. Martin, K. Morokuma, V. G. Zakrzewski, G. A. Voth, 
 P. Salvador, J. J. Dannenberg, S. Dapprich, A. D. Daniels, 
 O. Farkas, J. B. Foresman, J. V. Ortiz, J. Cioslowski, 
 and D. J. Fox, Gaussian, Inc., Wallingford CT, 2010.
 
 ******************************************
 Gaussian 09:  EM64L-G09RevC.01 23-Sep-2011
                26-Aug-2022 
 ******************************************
 %nprocshared=8
 Will use up to    8 processors via shared memory.
 %mem=1600MB
 ---------------
 #p opt hf/6-31G
 ---------------
 1/18=20,19=15,38=1/1,3;
 2/9=110,12=2,17=6,18=5,40=1/2;
 3/5=1,6=6,11=9,16=1,25=1,30=1,71=1/1,2,3;
 4//1;
 5/5=2,38=5/2;
 6/7=2,8=2,9=2,10=2,28=1/1;
 7//1,2,3,16;
 1/18=20,19=15/3(2);
 2/9=110/2;
 99//99;
 2/9=110/2;
 3/5=1,6=6,11=9,16=1,25=1,30=1,71=1/1,2,3;
 4/5=5,16=3/1;
 5/5=2,38=5/2;
 7//1,2,3,16;
 1/18=20,19=15/3(-5);
 2/9=110/2;
 6/7=2,8=2,9=2,10=2,19=2,28=1/1;
 99/9=1/99;
 Leave Link    1 at Fri Aug 26 18:02:39 2022, MaxMem=  209715200 cpu:       0.1
 (Enter /opt/gaussian/l101.exe)
 ---------
 Mol14.out
 ---------
 Charge =  0 Multiplicity = 1
 Symbolic Z-Matrix:
 O                     21.1682  -7.003    -1.8883 
 C                     21.517   -7.7342   -0.9514 
 C                     22.7563  -7.3746   -0.0991 
 N                     23.0852  -5.9743   -0.093 
 N                     22.2151  -4.9828    0.2888 
 N                     22.6273  -3.8416   -0.0292 
 C                     23.8606  -3.9626   -0.7479 
 C                     24.7439  -3.0341   -1.2986 
 C                     25.8924  -3.5259   -1.9106 
 C                     26.1623  -4.9035   -1.9807 
 C                     25.3031  -5.854    -1.4419 
 C                     24.1466  -5.381    -0.8191 
 N                     20.8251  -8.9041   -0.5929 
 C                     21.5769  -10.0286  -0.0683 
 C                     21.5393  -11.2697  -0.8906 
 C                     21.4988  -12.5725  -0.2889 
 C                     21.5419  -13.5665  -1.2416 
 S                     21.6111  -12.9363  -2.7861 
 C                     21.5997  -11.3531  -2.2678 
 C                     19.4267  -9.0532   -0.7614 
 C                     18.75    -10.1132  -0.1072 
 C                     17.3703  -10.2439  -0.1967 
 C                     16.6056  -9.339    -0.9423 
 C                     17.2674  -8.3004   -1.6062 
 C                     18.6491  -8.1568   -1.5294 
 C                     15.1562  -9.4834   -1.0281 
 C                     14.5677  -10.7498  -1.1773 
 C                     13.1683  -10.8386  -1.2531 
 N                     12.3465  -9.7748   -1.1851 
 C                     12.9213  -8.5639   -1.0391 
 C                     14.3108  -8.367    -0.9616 
 H                     22.5736  -7.6842    0.9721 
 H                     23.6443  -7.9338   -0.5117 
 H                     24.5348  -1.9558   -1.2453 
 H                     26.6125  -2.8194   -2.3511 
 H                     27.0849  -5.2408   -2.4794 
 H                     25.5249  -6.9277   -1.5078 
 H                     22.6661  -9.7442    0.0316 
 H                     21.2024  -10.2596   0.9733 
 H                     21.4367  -12.7291   0.7893 
 H                     21.5302  -14.6357  -1.0393 
 H                     21.6206  -10.5058  -2.953 
 H                     19.3011  -10.8688   0.4738 
 H                     16.8725  -11.0682   0.3377 
 H                     16.689   -7.5863   -2.2134 
 H                     19.1099  -7.3225   -2.083 
 H                     15.1893  -11.6521  -1.2428 
 H                     12.6736  -11.8193  -1.3767 
 H                     12.2256  -7.7081   -0.9798 
 H                     14.7236  -7.3563   -0.8426 
 
 NAtoms=     50 NQM=        0 NQMF=       0 NMMI=     50 NMMIF=      0
                NMic=       0 NMicF=      0.
                    Isotopes and Nuclear Properties:
 (Nuclear quadrupole moments (NQMom) in fm**2, nuclear magnetic moments (NMagM)
  in nuclear magnetons)

  Atom         1           2           3           4           5           6           7           8           9          10
 IAtWgt=          16          12          12          14          14          14          12          12          12          12
 AtmWgt=  15.9949146  12.0000000  12.0000000  14.0030740  14.0030740  14.0030740  12.0000000  12.0000000  12.0000000  12.0000000
 NucSpn=           0           0           0           2           2           2           0           0           0           0
 AtZEff=   0.0000000   0.0000000   0.0000000   0.0000000   0.0000000   0.0000000   0.0000000   0.0000000   0.0000000   0.0000000
 NQMom=    0.0000000   0.0000000   0.0000000   2.0440000   2.0440000   2.0440000   0.0000000   0.0000000   0.0000000   0.0000000
 NMagM=    0.0000000   0.0000000   0.0000000   0.4037610   0.4037610   0.4037610   0.0000000   0.0000000   0.0000000   0.0000000

  Atom        11          12          13          14          15          16          17          18          19          20
 IAtWgt=          12          12          14          12          12          12          12          32          12          12
 AtmWgt=  12.0000000  12.0000000  14.0030740  12.0000000  12.0000000  12.0000000  12.0000000  31.9720718  12.0000000  12.0000000
 NucSpn=           0           0           2           0           0           0           0           0           0           0
 AtZEff=   0.0000000   0.0000000   0.0000000   0.0000000   0.0000000   0.0000000   0.0000000   0.0000000   0.0000000   0.0000000
 NQMom=    0.0000000   0.0000000   2.0440000   0.0000000   0.0000000   0.0000000   0.0000000   0.0000000   0.0000000   0.0000000
 NMagM=    0.0000000   0.0000000   0.4037610   0.0000000   0.0000000   0.0000000   0.0000000   0.0000000   0.0000000   0.0000000

  Atom        21          22          23          24          25          26          27          28          29          30
 IAtWgt=          12          12          12          12          12          12          12          12          14          12
 AtmWgt=  12.0000000  12.0000000  12.0000000  12.0000000  12.0000000  12.0000000  12.0000000  12.0000000  14.0030740  12.0000000
 NucSpn=           0           0           0           0           0           0           0           0           2           0
 AtZEff=   0.0000000   0.0000000   0.0000000   0.0000000   0.0000000   0.0000000   0.0000000   0.0000000   0.0000000   0.0000000
 NQMom=    0.0000000   0.0000000   0.0000000   0.0000000   0.0000000   0.0000000   0.0000000   0.0000000   2.0440000   0.0000000
 NMagM=    0.0000000   0.0000000   0.0000000   0.0000000   0.0000000   0.0000000   0.0000000   0.0000000   0.4037610   0.0000000

  Atom        31          32          33          34          35          36          37          38          39          40
 IAtWgt=          12           1           1           1           1           1           1           1           1           1
 AtmWgt=  12.0000000   1.0078250   1.0078250   1.0078250   1.0078250   1.0078250   1.0078250   1.0078250   1.0078250   1.0078250
 NucSpn=           0           1           1           1           1           1           1           1           1           1
 AtZEff=   0.0000000   0.0000000   0.0000000   0.0000000   0.0000000   0.0000000   0.0000000   0.0000000   0.0000000   0.0000000
 NQMom=    0.0000000   0.0000000   0.0000000   0.0000000   0.0000000   0.0000000   0.0000000   0.0000000   0.0000000   0.0000000
 NMagM=    0.0000000   2.7928460   2.7928460   2.7928460   2.7928460   2.7928460   2.7928460   2.7928460   2.7928460   2.7928460

  Atom        41          42          43          44          45          46          47          48          49          50
 IAtWgt=           1           1           1           1           1           1           1           1           1           1
 AtmWgt=   1.0078250   1.0078250   1.0078250   1.0078250   1.0078250   1.0078250   1.0078250   1.0078250   1.0078250   1.0078250
 NucSpn=           1           1           1           1           1           1           1           1           1           1
 AtZEff=   0.0000000   0.0000000   0.0000000   0.0000000   0.0000000   0.0000000   0.0000000   0.0000000   0.0000000   0.0000000
 NQMom=    0.0000000   0.0000000   0.0000000   0.0000000   0.0000000   0.0000000   0.0000000   0.0000000   0.0000000   0.0000000
 NMagM=    2.7928460   2.7928460   2.7928460   2.7928460   2.7928460   2.7928460   2.7928460   2.7928460   2.7928460   2.7928460
 Leave Link  101 at Fri Aug 26 18:02:39 2022, MaxMem=  209715200 cpu:       0.8
 (Enter /opt/gaussian/l103.exe)

 GradGradGradGradGradGradGradGradGradGradGradGradGradGradGradGradGradGrad
 Berny optimization.
 Initialization pass.
                           ----------------------------
                           !    Initial Parameters    !
                           ! (Angstroms and Degrees)  !
 --------------------------                            --------------------------
 ! Name  Definition              Value          Derivative Info.                !
 --------------------------------------------------------------------------------
 ! R1    R(1,2)                  1.2386         estimate D2E/DX2                !
 ! R2    R(2,3)                  1.5465         estimate D2E/DX2                !
 ! R3    R(2,13)                 1.4057         estimate D2E/DX2                !
 ! R4    R(3,4)                  1.4384         estimate D2E/DX2                !
 ! R5    R(3,32)                 1.1299         estimate D2E/DX2                !
 ! R6    R(3,33)                 1.1276         estimate D2E/DX2                !
 ! R7    R(4,5)                  1.3733         estimate D2E/DX2                !
 ! R8    R(4,12)                 1.4163         estimate D2E/DX2                !
 ! R9    R(5,6)                  1.2543         estimate D2E/DX2                !
 ! R10   R(6,7)                  1.4326         estimate D2E/DX2                !
 ! R11   R(7,8)                  1.3948         estimate D2E/DX2                !
 ! R12   R(7,12)                 1.4487         estimate D2E/DX2                !
 ! R13   R(8,9)                  1.3912         estimate D2E/DX2                !
 ! R14   R(8,34)                 1.0997         estimate D2E/DX2                !
 ! R15   R(9,10)                 1.4055         estimate D2E/DX2                !
 ! R16   R(9,35)                 1.1008         estimate D2E/DX2                !
 ! R17   R(10,11)                1.39           estimate D2E/DX2                !
 ! R18   R(10,36)                1.1017         estimate D2E/DX2                !
 ! R19   R(11,12)                1.3961         estimate D2E/DX2                !
 ! R20   R(11,37)                1.0983         estimate D2E/DX2                !
 ! R21   R(13,14)                1.4508         estimate D2E/DX2                !
 ! R22   R(13,20)                1.4164         estimate D2E/DX2                !
 ! R23   R(14,15)                1.4893         estimate D2E/DX2                !
 ! R24   R(14,38)                1.1301         estimate D2E/DX2                !
 ! R25   R(14,39)                1.1307         estimate D2E/DX2                !
 ! R26   R(15,16)                1.4356         estimate D2E/DX2                !
 ! R27   R(15,19)                1.381          estimate D2E/DX2                !
 ! R28   R(16,17)                1.3775         estimate D2E/DX2                !
 ! R29   R(16,40)                1.0913         estimate D2E/DX2                !
 ! R30   R(17,18)                1.6696         estimate D2E/DX2                !
 ! R31   R(17,41)                1.0882         estimate D2E/DX2                !
 ! R32   R(18,19)                1.6659         estimate D2E/DX2                !
 ! R33   R(19,42)                1.0899         estimate D2E/DX2                !
 ! R34   R(20,21)                1.4176         estimate D2E/DX2                !
 ! R35   R(20,25)                1.4135         estimate D2E/DX2                !
 ! R36   R(21,22)                1.3888         estimate D2E/DX2                !
 ! R37   R(21,43)                1.101          estimate D2E/DX2                !
 ! R38   R(22,23)                1.3998         estimate D2E/DX2                !
 ! R39   R(22,44)                1.1013         estimate D2E/DX2                !
 ! R40   R(23,24)                1.3991         estimate D2E/DX2                !
 ! R41   R(23,26)                1.4591         estimate D2E/DX2                !
 ! R42   R(24,25)                1.3913         estimate D2E/DX2                !
 ! R43   R(24,45)                1.1014         estimate D2E/DX2                !
 ! R44   R(25,46)                1.1022         estimate D2E/DX2                !
 ! R45   R(26,27)                1.4044         estimate D2E/DX2                !
 ! R46   R(26,31)                1.402          estimate D2E/DX2                !
 ! R47   R(27,28)                1.4043         estimate D2E/DX2                !
 ! R48   R(27,47)                1.0976         estimate D2E/DX2                !
 ! R49   R(28,29)                1.346          estimate D2E/DX2                !
 ! R50   R(28,48)                1.1053         estimate D2E/DX2                !
 ! R51   R(29,30)                1.3483         estimate D2E/DX2                !
 ! R52   R(30,31)                1.4055         estimate D2E/DX2                !
 ! R53   R(30,49)                1.1045         estimate D2E/DX2                !
 ! R54   R(31,50)                1.0982         estimate D2E/DX2                !
 ! A1    A(1,2,3)              120.3503         estimate D2E/DX2                !
 ! A2    A(1,2,13)             123.068          estimate D2E/DX2                !
 ! A3    A(3,2,13)             116.5782         estimate D2E/DX2                !
 ! A4    A(2,3,4)              114.3267         estimate D2E/DX2                !
 ! A5    A(2,3,32)             109.22           estimate D2E/DX2                !
 ! A6    A(2,3,33)             108.3072         estimate D2E/DX2                !
 ! A7    A(4,3,32)             107.4392         estimate D2E/DX2                !
 ! A8    A(4,3,33)             107.7137         estimate D2E/DX2                !
 ! A9    A(32,3,33)            109.7763         estimate D2E/DX2                !
 ! A10   A(3,4,5)              123.9979         estimate D2E/DX2                !
 ! A11   A(3,4,12)             125.2402         estimate D2E/DX2                !
 ! A12   A(5,4,12)             108.3558         estimate D2E/DX2                !
 ! A13   A(4,5,6)              112.2207         estimate D2E/DX2                !
 ! A14   A(5,6,7)              109.4665         estimate D2E/DX2                !
 ! A15   A(6,7,8)              133.3953         estimate D2E/DX2                !
 ! A16   A(6,7,12)             106.1001         estimate D2E/DX2                !
 ! A17   A(8,7,12)             120.4856         estimate D2E/DX2                !
 ! A18   A(7,8,9)              117.461          estimate D2E/DX2                !
 ! A19   A(7,8,34)             120.8755         estimate D2E/DX2                !
 ! A20   A(9,8,34)             121.6634         estimate D2E/DX2                !
 ! A21   A(8,9,10)             121.7992         estimate D2E/DX2                !
 ! A22   A(8,9,35)             119.2877         estimate D2E/DX2                !
 ! A23   A(10,9,35)            118.913          estimate D2E/DX2                !
 ! A24   A(9,10,11)            122.1547         estimate D2E/DX2                !
 ! A25   A(9,10,36)            118.9128         estimate D2E/DX2                !
 ! A26   A(11,10,36)           118.9325         estimate D2E/DX2                !
 ! A27   A(10,11,12)           116.9558         estimate D2E/DX2                !
 ! A28   A(10,11,37)           121.3592         estimate D2E/DX2                !
 ! A29   A(12,11,37)           121.6847         estimate D2E/DX2                !
 ! A30   A(4,12,7)             103.71           estimate D2E/DX2                !
 ! A31   A(4,12,11)            135.0398         estimate D2E/DX2                !
 ! A32   A(7,12,11)            121.1431         estimate D2E/DX2                !
 ! A33   A(2,13,14)            118.831          estimate D2E/DX2                !
 ! A34   A(2,13,20)            122.9045         estimate D2E/DX2                !
 ! A35   A(14,13,20)           118.2313         estimate D2E/DX2                !
 ! A36   A(13,14,15)           115.6698         estimate D2E/DX2                !
 ! A37   A(13,14,38)           109.6534         estimate D2E/DX2                !
 ! A38   A(13,14,39)           108.651          estimate D2E/DX2                !
 ! A39   A(15,14,38)           106.4307         estimate D2E/DX2                !
 ! A40   A(15,14,39)           109.2698         estimate D2E/DX2                !
 ! A41   A(38,14,39)           106.8093         estimate D2E/DX2                !
 ! A42   A(14,15,16)           121.7059         estimate D2E/DX2                !
 ! A43   A(14,15,19)           126.8581         estimate D2E/DX2                !
 ! A44   A(16,15,19)           111.3701         estimate D2E/DX2                !
 ! A45   A(15,16,17)           111.3512         estimate D2E/DX2                !
 ! A46   A(15,16,40)           123.0884         estimate D2E/DX2                !
 ! A47   A(17,16,40)           125.5597         estimate D2E/DX2                !
 ! A48   A(16,17,18)           111.6371         estimate D2E/DX2                !
 ! A49   A(16,17,41)           125.4552         estimate D2E/DX2                !
 ! A50   A(18,17,41)           122.9074         estimate D2E/DX2                !
 ! A51   A(17,18,19)            94.0498         estimate D2E/DX2                !
 ! A52   A(15,19,18)           111.5888         estimate D2E/DX2                !
 ! A53   A(15,19,42)           125.5089         estimate D2E/DX2                !
 ! A54   A(18,19,42)           122.8942         estimate D2E/DX2                !
 ! A55   A(13,20,21)           119.6776         estimate D2E/DX2                !
 ! A56   A(13,20,25)           122.7526         estimate D2E/DX2                !
 ! A57   A(21,20,25)           117.538          estimate D2E/DX2                !
 ! A58   A(20,21,22)           120.9897         estimate D2E/DX2                !
 ! A59   A(20,21,43)           121.1824         estimate D2E/DX2                !
 ! A60   A(22,21,43)           117.8202         estimate D2E/DX2                !
 ! A61   A(21,22,23)           121.0779         estimate D2E/DX2                !
 ! A62   A(21,22,44)           119.2244         estimate D2E/DX2                !
 ! A63   A(23,22,44)           119.6946         estimate D2E/DX2                !
 ! A64   A(22,23,24)           118.3087         estimate D2E/DX2                !
 ! A65   A(22,23,26)           120.6635         estimate D2E/DX2                !
 ! A66   A(24,23,26)           121.027          estimate D2E/DX2                !
 ! A67   A(23,24,25)           121.3456         estimate D2E/DX2                !
 ! A68   A(23,24,45)           119.6355         estimate D2E/DX2                !
 ! A69   A(25,24,45)           119.0146         estimate D2E/DX2                !
 ! A70   A(20,25,24)           120.7221         estimate D2E/DX2                !
 ! A71   A(20,25,46)           121.5288         estimate D2E/DX2                !
 ! A72   A(24,25,46)           117.7489         estimate D2E/DX2                !
 ! A73   A(23,26,27)           120.7797         estimate D2E/DX2                !
 ! A74   A(23,26,31)           121.1587         estimate D2E/DX2                !
 ! A75   A(27,26,31)           118.0614         estimate D2E/DX2                !
 ! A76   A(26,27,28)           118.7078         estimate D2E/DX2                !
 ! A77   A(26,27,47)           120.6832         estimate D2E/DX2                !
 ! A78   A(28,27,47)           120.6066         estimate D2E/DX2                !
 ! A79   A(27,28,29)           123.7618         estimate D2E/DX2                !
 ! A80   A(27,28,48)           120.5404         estimate D2E/DX2                !
 ! A81   A(29,28,48)           115.6978         estimate D2E/DX2                !
 ! A82   A(28,29,30)           117.0639         estimate D2E/DX2                !
 ! A83   A(29,30,31)           123.5888         estimate D2E/DX2                !
 ! A84   A(29,30,49)           115.6677         estimate D2E/DX2                !
 ! A85   A(31,30,49)           120.7434         estimate D2E/DX2                !
 ! A86   A(26,31,30)           118.8142         estimate D2E/DX2                !
 ! A87   A(26,31,50)           120.7529         estimate D2E/DX2                !
 ! A88   A(30,31,50)           120.4309         estimate D2E/DX2                !
 ! D1    D(1,2,3,4)             24.5488         estimate D2E/DX2                !
 ! D2    D(1,2,3,32)           144.9411         estimate D2E/DX2                !
 ! D3    D(1,2,3,33)           -95.5362         estimate D2E/DX2                !
 ! D4    D(13,2,3,4)          -154.8018         estimate D2E/DX2                !
 ! D5    D(13,2,3,32)          -34.4096         estimate D2E/DX2                !
 ! D6    D(13,2,3,33)           85.1132         estimate D2E/DX2                !
 ! D7    D(1,2,13,14)          146.7398         estimate D2E/DX2                !
 ! D8    D(1,2,13,20)          -31.1263         estimate D2E/DX2                !
 ! D9    D(3,2,13,14)          -33.9289         estimate D2E/DX2                !
 ! D10   D(3,2,13,20)          148.205          estimate D2E/DX2                !
 ! D11   D(2,3,4,5)             56.4986         estimate D2E/DX2                !
 ! D12   D(2,3,4,12)          -103.8174         estimate D2E/DX2                !
 ! D13   D(32,3,4,5)           -64.8801         estimate D2E/DX2                !
 ! D14   D(32,3,4,12)          134.8039         estimate D2E/DX2                !
 ! D15   D(33,3,4,5)           176.9144         estimate D2E/DX2                !
 ! D16   D(33,3,4,12)           16.5984         estimate D2E/DX2                !
 ! D17   D(3,4,5,6)           -167.1592         estimate D2E/DX2                !
 ! D18   D(12,4,5,6)            -4.0083         estimate D2E/DX2                !
 ! D19   D(3,4,12,7)           166.4711         estimate D2E/DX2                !
 ! D20   D(3,4,12,11)          -17.441          estimate D2E/DX2                !
 ! D21   D(5,4,12,7)             3.582          estimate D2E/DX2                !
 ! D22   D(5,4,12,11)          179.67           estimate D2E/DX2                !
 ! D23   D(4,5,6,7)              2.5437         estimate D2E/DX2                !
 ! D24   D(5,6,7,8)           -178.4987         estimate D2E/DX2                !
 ! D25   D(5,6,7,12)            -0.1393         estimate D2E/DX2                !
 ! D26   D(6,7,8,9)            178.2446         estimate D2E/DX2                !
 ! D27   D(6,7,8,34)            -1.6272         estimate D2E/DX2                !
 ! D28   D(12,7,8,9)             0.0738         estimate D2E/DX2                !
 ! D29   D(12,7,8,34)         -179.798          estimate D2E/DX2                !
 ! D30   D(6,7,12,4)            -2.1379         estimate D2E/DX2                !
 ! D31   D(6,7,12,11)         -178.9089         estimate D2E/DX2                !
 ! D32   D(8,7,12,4)           176.4788         estimate D2E/DX2                !
 ! D33   D(8,7,12,11)           -0.2922         estimate D2E/DX2                !
 ! D34   D(7,8,9,10)             0.1487         estimate D2E/DX2                !
 ! D35   D(7,8,9,35)          -179.7211         estimate D2E/DX2                !
 ! D36   D(34,8,9,10)         -179.9805         estimate D2E/DX2                !
 ! D37   D(34,8,9,35)            0.1497         estimate D2E/DX2                !
 ! D38   D(8,9,10,11)           -0.1675         estimate D2E/DX2                !
 ! D39   D(8,9,10,36)          179.8082         estimate D2E/DX2                !
 ! D40   D(35,9,10,11)         179.7028         estimate D2E/DX2                !
 ! D41   D(35,9,10,36)          -0.3215         estimate D2E/DX2                !
 ! D42   D(9,10,11,12)          -0.0491         estimate D2E/DX2                !
 ! D43   D(9,10,11,37)         179.7426         estimate D2E/DX2                !
 ! D44   D(36,10,11,12)        179.9752         estimate D2E/DX2                !
 ! D45   D(36,10,11,37)         -0.2331         estimate D2E/DX2                !
 ! D46   D(10,11,12,4)        -175.2873         estimate D2E/DX2                !
 ! D47   D(10,11,12,7)           0.2712         estimate D2E/DX2                !
 ! D48   D(37,11,12,4)           4.9217         estimate D2E/DX2                !
 ! D49   D(37,11,12,7)        -179.5198         estimate D2E/DX2                !
 ! D50   D(2,13,14,15)        -116.8237         estimate D2E/DX2                !
 ! D51   D(2,13,14,38)           3.5002         estimate D2E/DX2                !
 ! D52   D(2,13,14,39)         119.9004         estimate D2E/DX2                !
 ! D53   D(20,13,14,15)         61.1429         estimate D2E/DX2                !
 ! D54   D(20,13,14,38)       -178.5332         estimate D2E/DX2                !
 ! D55   D(20,13,14,39)        -62.133          estimate D2E/DX2                !
 ! D56   D(2,13,20,21)        -165.4457         estimate D2E/DX2                !
 ! D57   D(2,13,20,25)          12.4518         estimate D2E/DX2                !
 ! D58   D(14,13,20,21)         16.6761         estimate D2E/DX2                !
 ! D59   D(14,13,20,25)       -165.4265         estimate D2E/DX2                !
 ! D60   D(13,14,15,16)       -143.0312         estimate D2E/DX2                !
 ! D61   D(13,14,15,19)         40.1835         estimate D2E/DX2                !
 ! D62   D(38,14,15,16)         94.9106         estimate D2E/DX2                !
 ! D63   D(38,14,15,19)        -81.8746         estimate D2E/DX2                !
 ! D64   D(39,14,15,16)        -20.0813         estimate D2E/DX2                !
 ! D65   D(39,14,15,19)        163.1334         estimate D2E/DX2                !
 ! D66   D(14,15,16,17)       -176.7394         estimate D2E/DX2                !
 ! D67   D(14,15,16,40)          3.5427         estimate D2E/DX2                !
 ! D68   D(19,15,16,17)          0.4989         estimate D2E/DX2                !
 ! D69   D(19,15,16,40)       -179.219          estimate D2E/DX2                !
 ! D70   D(14,15,19,18)        176.8779         estimate D2E/DX2                !
 ! D71   D(14,15,19,42)         -4.1312         estimate D2E/DX2                !
 ! D72   D(16,15,19,18)         -0.1855         estimate D2E/DX2                !
 ! D73   D(16,15,19,42)        178.8054         estimate D2E/DX2                !
 ! D74   D(15,16,17,18)         -0.5933         estimate D2E/DX2                !
 ! D75   D(15,16,17,41)        179.5961         estimate D2E/DX2                !
 ! D76   D(40,16,17,18)        179.1162         estimate D2E/DX2                !
 ! D77   D(40,16,17,41)         -0.6944         estimate D2E/DX2                !
 ! D78   D(16,17,18,19)          0.4258         estimate D2E/DX2                !
 ! D79   D(41,17,18,19)       -179.7579         estimate D2E/DX2                !
 ! D80   D(17,18,19,15)         -0.1314         estimate D2E/DX2                !
 ! D81   D(17,18,19,42)       -179.1531         estimate D2E/DX2                !
 ! D82   D(13,20,21,22)        176.6075         estimate D2E/DX2                !
 ! D83   D(13,20,21,43)         -4.4326         estimate D2E/DX2                !
 ! D84   D(25,20,21,22)         -1.3984         estimate D2E/DX2                !
 ! D85   D(25,20,21,43)        177.5615         estimate D2E/DX2                !
 ! D86   D(13,20,25,24)       -176.4033         estimate D2E/DX2                !
 ! D87   D(13,20,25,46)          3.3995         estimate D2E/DX2                !
 ! D88   D(21,20,25,24)          1.5366         estimate D2E/DX2                !
 ! D89   D(21,20,25,46)       -178.6606         estimate D2E/DX2                !
 ! D90   D(20,21,22,23)          0.4243         estimate D2E/DX2                !
 ! D91   D(20,21,22,44)       -178.9353         estimate D2E/DX2                !
 ! D92   D(43,21,22,23)       -178.5696         estimate D2E/DX2                !
 ! D93   D(43,21,22,44)          2.0708         estimate D2E/DX2                !
 ! D94   D(21,22,23,24)          0.4467         estimate D2E/DX2                !
 ! D95   D(21,22,23,26)       -179.8829         estimate D2E/DX2                !
 ! D96   D(44,22,23,24)        179.8033         estimate D2E/DX2                !
 ! D97   D(44,22,23,26)         -0.5263         estimate D2E/DX2                !
 ! D98   D(22,23,24,25)         -0.3038         estimate D2E/DX2                !
 ! D99   D(22,23,24,45)        178.9393         estimate D2E/DX2                !
 ! D100  D(26,23,24,25)       -179.973          estimate D2E/DX2                !
 ! D101  D(26,23,24,45)         -0.7298         estimate D2E/DX2                !
 ! D102  D(22,23,26,27)        -40.9223         estimate D2E/DX2                !
 ! D103  D(22,23,26,31)        138.9419         estimate D2E/DX2                !
 ! D104  D(24,23,26,27)        138.7391         estimate D2E/DX2                !
 ! D105  D(24,23,26,31)        -41.3967         estimate D2E/DX2                !
 ! D106  D(23,24,25,20)         -0.7126         estimate D2E/DX2                !
 ! D107  D(23,24,25,46)        179.4773         estimate D2E/DX2                !
 ! D108  D(45,24,25,20)       -179.9603         estimate D2E/DX2                !
 ! D109  D(45,24,25,46)          0.2296         estimate D2E/DX2                !
 ! D110  D(23,26,27,28)        179.8961         estimate D2E/DX2                !
 ! D111  D(23,26,27,47)         -0.6636         estimate D2E/DX2                !
 ! D112  D(31,26,27,28)          0.0277         estimate D2E/DX2                !
 ! D113  D(31,26,27,47)        179.4681         estimate D2E/DX2                !
 ! D114  D(23,26,31,30)       -179.5176         estimate D2E/DX2                !
 ! D115  D(23,26,31,50)         -0.027          estimate D2E/DX2                !
 ! D116  D(27,26,31,30)          0.3502         estimate D2E/DX2                !
 ! D117  D(27,26,31,50)        179.8409         estimate D2E/DX2                !
 ! D118  D(26,27,28,29)         -0.3048         estimate D2E/DX2                !
 ! D119  D(26,27,28,48)        179.6299         estimate D2E/DX2                !
 ! D120  D(47,27,28,29)       -179.7457         estimate D2E/DX2                !
 ! D121  D(47,27,28,48)          0.1891         estimate D2E/DX2                !
 ! D122  D(27,28,29,30)          0.1681         estimate D2E/DX2                !
 ! D123  D(48,28,29,30)       -179.7695         estimate D2E/DX2                !
 ! D124  D(28,29,30,31)          0.2485         estimate D2E/DX2                !
 ! D125  D(28,29,30,49)       -179.6472         estimate D2E/DX2                !
 ! D126  D(29,30,31,26)         -0.5127         estimate D2E/DX2                !
 ! D127  D(29,30,31,50)        179.995          estimate D2E/DX2                !
 ! D128  D(49,30,31,26)        179.3779         estimate D2E/DX2                !
 ! D129  D(49,30,31,50)         -0.1144         estimate D2E/DX2                !
 --------------------------------------------------------------------------------
 Trust Radius=3.00D-01 FncErr=1.00D-07 GrdErr=1.00D-07
 Number of steps in this run=    281 maximum allowed number of steps=    300.
 GradGradGradGradGradGradGradGradGradGradGradGradGradGradGradGradGradGrad

 Leave Link  103 at Fri Aug 26 18:02:39 2022, MaxMem=  209715200 cpu:       0.1
 (Enter /opt/gaussian/l202.exe)
                          Input orientation:                          
 ---------------------------------------------------------------------
 Center     Atomic      Atomic             Coordinates (Angstroms)
 Number     Number       Type             X           Y           Z
 ---------------------------------------------------------------------
      1          8           0       21.168200   -7.003000   -1.888300
      2          6           0       21.517000   -7.734200   -0.951400
      3          6           0       22.756300   -7.374600   -0.099100
      4          7           0       23.085200   -5.974300   -0.093000
      5          7           0       22.215100   -4.982800    0.288800
      6          7           0       22.627300   -3.841600   -0.029200
      7          6           0       23.860600   -3.962600   -0.747900
      8          6           0       24.743900   -3.034100   -1.298600
      9          6           0       25.892400   -3.525900   -1.910600
     10          6           0       26.162300   -4.903500   -1.980700
     11          6           0       25.303100   -5.854000   -1.441900
     12          6           0       24.146600   -5.381000   -0.819100
     13          7           0       20.825100   -8.904100   -0.592900
     14          6           0       21.576900  -10.028600   -0.068300
     15          6           0       21.539300  -11.269700   -0.890600
     16          6           0       21.498800  -12.572500   -0.288900
     17          6           0       21.541900  -13.566500   -1.241600
     18         16           0       21.611100  -12.936300   -2.786100
     19          6           0       21.599700  -11.353100   -2.267800
     20          6           0       19.426700   -9.053200   -0.761400
     21          6           0       18.750000  -10.113200   -0.107200
     22          6           0       17.370300  -10.243900   -0.196700
     23          6           0       16.605600   -9.339000   -0.942300
     24          6           0       17.267400   -8.300400   -1.606200
     25          6           0       18.649100   -8.156800   -1.529400
     26          6           0       15.156200   -9.483400   -1.028100
     27          6           0       14.567700  -10.749800   -1.177300
     28          6           0       13.168300  -10.838600   -1.253100
     29          7           0       12.346500   -9.774800   -1.185100
     30          6           0       12.921300   -8.563900   -1.039100
     31          6           0       14.310800   -8.367000   -0.961600
     32          1           0       22.573600   -7.684200    0.972100
     33          1           0       23.644300   -7.933800   -0.511700
     34          1           0       24.534800   -1.955800   -1.245300
     35          1           0       26.612500   -2.819400   -2.351100
     36          1           0       27.084900   -5.240800   -2.479400
     37          1           0       25.524900   -6.927700   -1.507800
     38          1           0       22.666100   -9.744200    0.031600
     39          1           0       21.202400  -10.259600    0.973300
     40          1           0       21.436700  -12.729100    0.789300
     41          1           0       21.530200  -14.635700   -1.039300
     42          1           0       21.620600  -10.505800   -2.953000
     43          1           0       19.301100  -10.868800    0.473800
     44          1           0       16.872500  -11.068200    0.337700
     45          1           0       16.689000   -7.586300   -2.213400
     46          1           0       19.109900   -7.322500   -2.083000
     47          1           0       15.189300  -11.652100   -1.242800
     48          1           0       12.673600  -11.819300   -1.376700
     49          1           0       12.225600   -7.708100   -0.979800
     50          1           0       14.723600   -7.356300   -0.842600
 ---------------------------------------------------------------------
                    Distance matrix (angstroms):
                    1          2          3          4          5
     1  O    0.000000
     2  C    1.238586   0.000000
     3  C    2.421030   1.546477   0.000000
     4  N    2.820676   2.508655   1.438420   0.000000
     5  N    3.149122   3.097683   2.482755   1.373287   0.000000
     6  N    3.947110   4.151572   3.536045   2.182236   1.254341
     7  C    4.218242   4.445092   3.644470   2.253237   2.196184
     8  C    5.374527   5.711775   4.922326   3.584625   3.565403
     9  C    5.865900   6.146054   5.284803   4.144720   4.525754
    10  C    5.418254   5.536347   4.609511   3.765444   4.553823
    11  C    4.314727   4.255619   3.255999   2.598670   3.645553
    12  C    3.555972   3.531267   2.534911   1.416261   2.262012
    13  N    2.325932   1.405672   2.512517   3.733856   4.252774
    14  C    3.554390   2.459212   2.904419   4.325844   5.098521
    15  C    4.397482   3.536093   4.156846   5.573799   6.432169
    16  C    5.804025   4.883481   5.351214   6.789056   7.645284
    17  C    6.605861   5.839568   6.412464   7.832149   8.745012
    18  S    6.017163   5.516958   6.282035   7.608890   8.548566
    19  C    4.387890   3.851777   4.676478   5.988986   6.891708
    20  C    2.916513   2.478954   3.787159   4.828147   5.044428
    21  C    4.323581   3.745478   4.852879   5.993718   6.203607
    22  C    5.271526   4.905434   6.103393   7.134446   7.168471
    23  C    5.212402   5.166945   6.511602   7.350356   7.208230
    24  C    4.120566   4.336870   5.766843   6.445720   6.251178
    25  C    2.793909   2.955931   4.418901   5.148353   5.108472
    26  C    6.560219   6.597375   7.941763   8.721080   8.474532
    27  C    7.623033   7.578763   8.922312   9.824913   9.689709
    28  C    8.894589   8.912301  10.259666  11.106401  10.886342
    29  N    9.273605   9.397698  10.737984  11.443608  11.069097
    30  C    8.436167   8.636096   9.951144  10.531192  10.048001
    31  C    7.052886   7.233938   8.547235   9.136168   8.688744
    32  H    3.258998   2.195166   1.129912   2.078444   2.809445
    33  H    2.982027   2.181417   1.127603   2.080275   3.375176
    34  H    6.100957   6.525596   5.817236   4.424644   4.110620
    35  H    6.881649   7.216546   6.378999   5.243496   5.566552
    36  H    6.201781   6.289144   5.381051   4.714926   5.607535
    37  H    4.373932   4.125928   3.138360   2.977040   4.238536
    38  H    3.666592   2.515317   2.374915   3.795170   4.789622
    39  H    4.335362   3.190782   3.447879   4.800597   5.416523
    40  H    6.326915   5.290133   5.585810   7.008804   7.801383
    41  H    7.688300   6.902072   7.423670   8.850613   9.767877
    42  H    3.688883   3.420366   4.386225   5.555101   6.431658
    43  H    4.899999   4.094768   4.947328   6.212633   6.570435
    44  H    6.319333   5.860778   6.960789   8.045555   8.098016
    45  H    4.528704   4.992404   6.428624   6.928637   6.601288
    46  H    2.092029   2.691495   4.151482   4.645509   4.554327
    47  H    7.601187   7.448130   8.767243   9.793094   9.807509
    48  H    9.778380   9.750623  11.092721  12.008885  11.855456
    49  H    9.016243   9.291480  10.572724  11.032832  10.432004
    50  H    6.538439   6.804773   8.067056   8.508124   7.939530
                    6          7          8          9         10
     6  N    0.000000
     7  C    1.432550   0.000000
     8  C    2.596811   1.394848   0.000000
     9  C    3.781562   2.381342   1.391209   0.000000
    10  C    4.175190   2.775412   2.443722   1.405540   0.000000
    11  C    3.633921   2.477869   2.878381   2.446835   1.389957
    12  C    2.302600   1.448697   2.468730   2.771387   2.374946
    13  N    5.403202   5.801440   7.093089   7.505924   6.812965
    14  C    6.275654   6.517169   7.776025   8.018897   7.137914
    15  C    7.556615   7.668279   8.846527   8.941830   7.942855
    16  C    8.807359   8.939752  10.125771  10.186982   9.133673
    17  C    9.860106   9.892169  11.008520  10.963031   9.845910
    18  S    9.557548   9.473215  10.491933  10.375532   9.267576
    19  C    7.905057   7.876627   8.946010   8.934200   7.905510
    20  C    6.159605   6.750841   8.049271   8.583530   8.004687
    21  C    7.373771   8.022382   9.352001   9.882239   9.251658
    22  C    8.285744   9.048897  10.371373  10.986135  10.440392
    23  C    8.204635   9.032081  10.301002  10.998836  10.586900
    24  C    7.148171   7.938733   9.150223   9.863019   9.528821
    25  C    6.057857   6.735116   7.965043   8.605576   8.199744
    26  C    9.415150  10.311369  11.558141  12.310020  11.958979
    27  C   10.677009  11.515575  12.771131  13.452557  13.009974
    28  C   11.829143  12.722417  13.960903  14.690494  14.303805
    29  N   11.926182  12.905321  14.111890  14.935411  14.671022
    30  C   10.840962  11.871185  13.054497  13.942395  13.769866
    31  C    9.513821  10.518702  11.721901  12.588499  12.389207
    32  H    3.971279   4.297101   5.611569   6.051103   5.415726
    33  H    4.244196   3.984094   5.082853   5.142029   4.204878
    34  H    2.945114   2.174672   1.099679   2.179660   3.446521
    35  H    4.724186   3.383801   2.155346   1.100784   2.164105
    36  H    5.275551   3.876596   3.426966   2.164826   1.101664
    37  H    4.484011   3.484130   3.976663   3.445221   2.174235
    38  H    5.903041   5.954943   7.149275   7.269691   6.301202
    39  H    6.650268   7.048458   8.361316   8.698028   7.874931
    40  H    9.004173   9.224413  10.454182  10.575520   9.552184
    41  H   10.896629  10.928437  12.041272  11.967272  10.819348
    42  H    7.346674   7.259031   8.265491   8.249477   7.277237
    43  H    7.790902   8.365237   9.702989  10.151294   9.417295
    44  H    9.245328  10.025050  11.365878  11.970787  11.387664
    45  H    7.352341   8.167664   9.297354  10.063852   9.848603
    46  H    5.357878   5.969972   7.123736   7.774715   7.456432
    47  H   10.853598  11.600206  12.867145  13.455015  12.903287
    48  H   12.827143  13.684739  14.929098  15.614167  15.170304
    49  H   11.137721  12.225211  13.366217  14.322661  14.251287
    50  H    8.688107   9.747355  10.922260  11.855576  11.753951
                   11         12         13         14         15
    11  C    0.000000
    12  C    1.396102   0.000000
    13  N    5.484195   4.847243   0.000000
    14  C    5.761825   5.363510   1.450830   0.000000
    15  C    6.618151   6.440490   2.488930   1.489268   0.000000
    16  C    7.806430   7.681773   3.742118   2.554641   1.435608
    17  C    8.583088   8.600313   4.761574   3.727545   2.323467
    18  S    8.099180   8.208557   4.656883   3.980242   2.525001
    19  C    6.681121   6.652173   3.066414   2.567610   1.381044
    20  C    6.725328   5.980455   1.416385   2.460722   3.064742
    21  C    7.928766   7.212753   2.450279   2.828433   3.119520
    22  C    9.151561   8.363816   3.726618   4.214063   4.349060
    23  C    9.383034   8.517489   4.256219   5.094433   5.298271
    24  C    8.401449   7.514374   3.748128   4.891176   5.251472
    25  C    7.041751   6.199363   2.484042   3.769677   4.295517
    26  C   10.784403   9.884364   5.715017   6.514894   6.629762
    27  C   11.802020  10.986703   6.550052   7.132944   6.996835
    28  C   13.120033  12.267715   7.924944   8.530205   8.389928
    29  N   13.539280  12.596896   8.543739   9.301180   9.318209
    30  C   12.681277  11.669902   7.923691   8.832169   9.034010
    31  C   11.286121  10.280052   6.546795   7.507004   7.789860
    32  H    4.077646   3.314733   2.644737   2.751737   4.170760
    33  H    2.818237   2.619845   2.982610   2.976396   3.962678
    34  H    3.978052   3.473376   7.903567   8.677822   9.790177
    35  H    3.427823   3.871625   8.579559   9.085208   9.963834
    36  H    2.151100   3.377848   7.494247   7.685993   8.344196
    37  H    1.098349   2.183186   5.179896   5.222494   5.926121
    38  H    4.925305   4.685412   2.117793   1.130142   2.108858
    39  H    6.485233   5.973420   2.105402   1.130726   2.146608
    40  H    8.197213   7.995316   4.112804   2.836870   2.227653
    41  H    9.566353   9.619954   5.792036   4.708545   3.369295
    42  H    6.122375   6.098998   2.961137   2.924230   2.200829
    43  H    8.052461   7.434138   2.705637   2.485774   2.651763
    44  H   10.071240   9.305641   4.601347   4.834975   4.829943
    45  H    8.820362   7.900837   4.633567   5.870081   6.232387
    46  H    6.397127   5.543935   2.768351   4.179483   4.785832
    47  H   11.659612  10.942552   6.303659   6.694523   6.371246
    48  H   13.967581  13.167853   8.692507   9.175362   8.896010
    49  H   13.216362  12.147076   8.690886   9.677932   9.971858
    50  H   10.702424   9.627839   6.299709   7.396516   7.859438
                   16         17         18         19         20
    16  C    0.000000
    17  C    1.377509   0.000000
    18  S    2.526058   1.669557   0.000000
    19  C    2.326620   2.440403   1.665919   0.000000
    20  C    4.111244   5.007448   4.893820   3.504384   0.000000
    21  C    3.692841   4.583323   4.830351   3.785014   1.417569
    22  C    4.740822   5.434495   5.651406   4.838141   2.442424
    23  C    5.901344   6.506028   6.433910   5.545682   2.841305
    24  C    6.155556   6.792355   6.461537   5.340928   2.437821
    25  C    5.399818   6.141333   5.761628   4.412211   1.413513
    26  C    7.093485   7.582510   7.528533   6.822853   4.300392
    27  C    7.221609   7.521795   7.548411   7.141581   5.163459
    28  C    8.563488   8.806744   8.833533   8.507810   6.526637
    29  N    9.612226   9.946636   9.919229   9.449073   7.129478
    30  C    9.497641   9.969040   9.883447   9.198041   6.529683
    31  C    8.355004   8.910780   8.803504   7.984423   5.165596
    32  H    5.161472   6.369170   6.529550   4.990617   3.844758
    33  H    5.115696   6.056414   5.859335   4.353836   4.370762
    34  H   11.083606  11.990238  11.467060   9.897958   8.757850
    35  H   11.203819  11.934912  11.294020   9.897431   9.644850
    36  H    9.473997  10.078407   9.448665   8.215376   8.725477
    37  H    7.039813   7.746536   7.283897   5.963972   6.500993
    38  H    3.076457   4.182683   4.386566   3.002167   3.405883
    39  H    2.651511   3.994575   4.633017   3.443591   2.760017
    40  H    1.091281   2.199286   3.585643   3.356457   4.467327
    41  H    2.195650   1.088233   2.438404   3.505639   5.972122
    42  H    3.373946   3.507559   2.436242   1.089887   3.424377
    43  H    2.883434   3.904019   4.498622   3.610329   2.199522
    44  H    4.904916   5.526209   5.975136   5.405203   3.433975
    45  H    7.190276   7.762591   7.292294   6.189242   3.428571
    46  H    6.040541   6.753526   6.185879   4.741201   2.200525
    47  H    6.447236   6.634791   6.728333   6.498712   4.994155
    48  H    8.923832   9.039785   9.116633   8.982576   7.323542
    49  H   10.494378  11.008308  10.894237  10.139957   7.328904
    50  H    8.568469   9.231197   9.074759   8.079997   5.000521
                   21         22         23         24         25
    21  C    0.000000
    22  C    1.388764   0.000000
    23  C    2.428009   1.399832   0.000000
    24  C    2.780530   2.403013   1.399083   0.000000
    25  C    2.420813   2.787006   2.432730   1.391263   0.000000
    26  C    3.762991   2.484316   1.459100   2.488143   3.769817
    27  C    4.363715   3.011989   2.489702   3.670408   4.848242
    28  C    5.744098   4.373380   3.763034   4.834228   6.107992
    29  N    6.502399   5.141552   4.288217   5.154264   6.516075
    30  C    6.102664   4.829662   3.766194   4.390856   5.763143
    31  C    4.846206   3.669927   2.492241   3.026785   4.380346
    32  H    4.656699   5.915445   6.482308   5.931534   4.677879
    33  H    5.372856   6.693195   7.190501   6.480523   5.102692
    34  H   10.064907  11.005554  10.838619   9.653978   8.554214
    35  H   10.956893  12.049187  12.026136  10.859426   9.621786
    36  H    9.941739  11.163117  11.356657  10.320220   8.975983
    37  H    7.616322   8.900206   9.256785   8.371397   6.984825
    38  H    3.935895   5.324220   6.151612   5.823479   4.592695
    39  H    2.683874   4.006761   5.064346   5.096716   4.147845
    40  H    3.855516   4.866623   6.150670   6.537191   5.835496
    41  H    5.389928   6.107590   7.232989   7.656949   7.107537
    42  H    4.061164   5.072557   5.527618   5.062411   4.046511
    43  H    1.101001   2.137302   3.407543   3.880595   3.434073
    44  H    2.152897   1.101299   2.167895   3.405203   3.888267
    45  H    3.881884   3.405009   2.166704   1.101443   2.152979
    46  H    3.438215   3.888305   3.411596   2.139727   1.102210
    47  H    4.041829   2.798949   2.728853   3.960360   4.926406
    48  H    6.437783   5.092472   4.669177   5.791228   7.010266
    49  H    7.008119   5.788909   4.673932   5.114972   6.462565
    50  H    4.934897   3.969942   2.735501   2.818746   4.064732
                   26         27         28         29         30
    26  C    0.000000
    27  C    1.404408   0.000000
    28  C    2.416390   1.404262   0.000000
    29  N    2.829130   2.425781   1.345975   0.000000
    30  C    2.416688   2.740053   2.298057   1.348329   0.000000
    31  C    1.401953   2.406296   2.738446   2.427000   1.405520
    32  H    7.890231   8.838114  10.166682  10.659160   9.898772
    33  H    8.643828   9.526676  10.896518  11.466605  10.754437
    34  H   12.027887  13.292184  14.425724  14.480851  13.363491
    35  H   13.319386  14.468803  15.692663  15.914016  14.905354
    36  H   12.743618  13.737716  15.050280  15.474263  14.619337
    37  H   10.689792  11.609389  12.963239  13.486302  12.718002
    38  H    7.588780   8.249652   9.646573  10.391123   9.874241
    39  H    6.415966   6.991754   8.356965   9.128017   8.689175
    40  H    7.299465   7.414061   8.724209   9.760014   9.654221
    41  H    8.195987   7.974689   9.186134  10.391821  10.534700
    42  H    6.821951   7.277090   8.627966   9.469359   9.116568
    43  H    4.621172   5.014516   6.371368   7.232928   6.950056
    44  H    2.706046   2.776456   4.037878   4.947371   4.876380
    45  H    2.711715   3.947296   4.888247   4.970336   4.065740
    46  H    4.627531   5.761793   6.953726   7.250074   6.397622
    47  H    2.179553   1.097644   2.178607   3.407212   3.836965
    48  H    3.426551   2.184309   1.105340   2.079347   3.282218
    49  H    3.426724   3.844005   3.280763   2.080388   1.104495
    50  H    2.178556   3.413528   3.835868   3.408380   2.178347
                   31         32         33         34         35
    31  C    0.000000
    32  H    8.513476   0.000000
    33  H    9.354373   1.846716   0.000000
    34  H   12.071212   6.448080   6.088320   0.000000
    35  H   13.566075   7.143014   6.192793   2.507077   0.000000
    36  H   13.238371   6.183436   4.791849   4.337884   2.470385
    37  H   11.319274   3.928405   2.353956   5.076317   4.332685
    38  H    8.526087   2.266428   2.128285   8.110591   8.318905
    39  H    7.404048   2.917683   3.684759   9.218469   9.781482
    40  H    8.536511   5.174647   5.437003  11.393060  11.612630
    41  H    9.561505   7.311482   7.047215  13.032648  12.929638
    42  H    7.872313   4.927073   4.082951   9.193003   9.184884
    43  H    5.763894   4.593391   5.333744  10.478000  11.235189
    44  H    3.942964   6.660065   7.510208  12.010519  13.043770
    45  H    2.798630   6.692198   7.168873   9.705479  11.009911
    46  H    5.037845   4.632675   4.837712   7.676767   8.754359
    47  H    3.412143   8.670519   9.265381  13.466871  14.482210
    48  H    3.843320  10.982983  11.670544  15.427053  16.620487
    49  H    2.186902  10.530508  11.430519  13.589549  15.256564
    50  H    1.098216   8.063694   8.945495  11.206570  12.814249
                   36         37         38         39         40
    36  H    0.000000
    37  H    2.494642   0.000000
    38  H    6.790547   4.298274   0.000000
    39  H    8.468370   5.995116   1.815173   0.000000
    40  H    9.932834   7.459644   3.315895   2.487405   0.000000
    41  H   11.008757   8.694273   5.134576   4.827863   2.643415
    42  H    7.602835   5.489532   3.252836   3.956177   4.356798
    43  H   10.049046   7.628545   3.575401   2.058049   2.849744
    44  H   12.090813   9.767990   5.950838   4.450377   4.877956
    45  H   10.660528   8.888462   6.739605   6.137782   7.616118
    46  H    8.251741   6.452825   4.794030   4.727164   6.549460
    47  H   13.569792  11.367269   7.820915   6.558012   6.657279
    48  H   15.880119  13.751394  10.302398   8.983073   9.072553
    49  H   15.137211  13.332636  10.685161   9.534552  10.638821
    50  H   12.647379  10.830248   8.339640   7.328130   8.751902
                   41         42         43         44         45
    41  H    0.000000
    42  H    4.552636   0.000000
    43  H    4.631187   4.153891   0.000000
    44  H    6.026388   5.804262   2.440570   0.000000
    45  H    8.631904   5.778509   4.981859   4.320348   0.000000
    46  H    7.773677   4.146554   4.376074   4.989591   2.438719
    47  H    7.010727   6.752807   4.524066   2.381613   4.440934
    48  H    9.299748   9.179260   6.946334   4.597182   5.894217
    49  H   11.600464   9.999333   7.884521   5.883856   4.632337
    50  H    9.967856   7.870308   5.918114   4.448492   2.407237
                   46         47         48         49         50
    46  H    0.000000
    47  H    5.901057   0.000000
    48  H    7.883275   2.524803   0.000000
    49  H    6.982788   4.940427   4.154540   0.000000
    50  H    4.558439   4.339462   4.940256   2.526379   0.000000
 Stoichiometry    C24H19N5OS
 Framework group  C1[X(C24H19N5OS)]
 Deg. of freedom   144
 Full point group                 C1      NOp   1
 Largest Abelian subgroup         C1      NOp   1
 Largest concise Abelian subgroup C1      NOp   1
                         Standard orientation:                         
 ---------------------------------------------------------------------
 Center     Atomic      Atomic             Coordinates (Angstroms)
 Number     Number       Type             X           Y           Z
 ---------------------------------------------------------------------
      1          8           0       -1.549226   -0.752631   -0.910529
      2          6           0       -1.498896   -0.041095    0.102032
      3          6           0       -2.758699    0.166504    0.974610
      4          7           0       -3.730927   -0.888638    0.872137
      5          7           0       -3.458883   -2.210708    1.125200
      6          7           0       -4.375749   -2.968360    0.726842
      7          6           0       -5.389363   -2.191105    0.078257
      8          6           0       -6.612079   -2.511573   -0.511547
      9          6           0       -7.370639   -1.464529   -1.025110
     10          6           0       -6.931452   -0.130899   -0.961178
     11          6           0       -5.718940    0.221580   -0.380183
     12          6           0       -4.944240   -0.814123    0.145422
     13          7           0       -0.324228    0.601125    0.530541
     14          6           0       -0.431312    1.891129    1.185776
     15          6           0        0.211946    3.030987    0.475240
     16          6           0        0.882750    4.081889    1.186997
     17          6           0        1.335164    5.059625    0.328577
     18         16           0        0.971981    4.699628   -1.260737
     19          6           0        0.205111    3.269214   -0.885085
     20          6           0        0.968790    0.065623    0.312624
     21          6           0        2.075336    0.590612    1.026377
     22          6           0        3.342753    0.040434    0.886296
     23          6           0        3.569378   -1.043448    0.029925
     24          6           0        2.486335   -1.556172   -0.692269
     25          6           0        1.210906   -1.014953   -0.565872
     26          6           0        4.904267   -1.616077   -0.108426
     27          6           0        6.037851   -0.789447   -0.171920
     28          6           0        7.301889   -1.386933   -0.302956
     29          7           0        7.497568   -2.717100   -0.366331
     30          6           0        6.403107   -3.501941   -0.301749
     31          6           0        5.094785   -3.003230   -0.179001
     32          1           0       -2.451742    0.239934    2.059546
     33          1           0       -3.257836    1.125306    0.653598
     34          1           0       -6.957726   -3.554247   -0.563053
     35          1           0       -8.342782   -1.682857   -1.493083
     36          1           0       -7.569059    0.660785   -1.385861
     37          1           0       -5.386572    1.267701   -0.341044
     38          1           0       -1.520678    2.165350    1.309486
     39          1           0        0.004533    1.805823    2.225634
     40          1           0        1.009628    4.080668    2.270877
     41          1           0        1.867968    5.961470    0.623613
     42          1           0       -0.225345    2.612202   -1.640662
     43          1           0        1.962495    1.457171    1.696113
     44          1           0        4.178364    0.460002    1.468169
     45          1           0        2.643390   -2.397438   -1.385654
     46          1           0        0.402735   -1.459327   -1.169409
     47          1           0        5.937691    0.302789   -0.129371
     48          1           0        8.213744   -0.764984   -0.361912
     49          1           0        6.590666   -4.589336   -0.349728
     50          1           0        4.239680   -3.690666   -0.130979
 ---------------------------------------------------------------------
 Rotational constants (GHZ):      0.1835278      0.0654281      0.0507693
 Leave Link  202 at Fri Aug 26 18:02:39 2022, MaxMem=  209715200 cpu:       0.1
 (Enter /opt/gaussian/l301.exe)
 Standard basis: 6-31G (6D, 7F)
 Ernie: Thresh=  0.10000D-02 Tol=  0.10000D-05 Strict=F.
 There are   321 symmetry adapted basis functions of A   symmetry.
 Integral buffers will be    131072 words long.
 Raffenetti 1 integral format.
 Two-electron integral symmetry is turned on.
   321 basis functions,   782 primitive gaussians,   321 cartesian basis functions
   111 alpha electrons      111 beta electrons
       nuclear repulsion energy      2854.4148824901 Hartrees.



 Warning!  S  atom   18 may be hypervalent but has no d functions.



 IExCor=    0 DFT=F Ex=HF Corr=None ExCW=0 ScaHFX=  1.000000
 ScaDFX=  1.000000  1.000000  1.000000  1.000000 ScalE2=  1.000000  1.000000
 IRadAn=      0 IRanWt=     -1 IRanGd=            0 ICorTp=0
 NAtoms=   50 NActive=   50 NUniq=   50 SFac= 1.00D+00 NAtFMM=   60 NAOKFM=F Big=F
 Leave Link  301 at Fri Aug 26 18:02:39 2022, MaxMem=  209715200 cpu:       0.2
 (Enter /opt/gaussian/l302.exe)
 NPDir=0 NMtPBC=     1 NCelOv=     1 NCel=       1 NClECP=     1 NCelD=      1
         NCelK=      1 NCelE2=     1 NClLst=     1 CellRange=     0.0.
 One-electron integrals computed using PRISM.
 NBasis=   321 RedAO= T  NBF=   321
 NBsUse=   321 1.00D-06 NBFU=   321
 Leave Link  302 at Fri Aug 26 18:02:39 2022, MaxMem=  209715200 cpu:       1.9
 (Enter /opt/gaussian/l303.exe)
 DipDrv:  MaxL=1.
 Leave Link  303 at Fri Aug 26 18:02:39 2022, MaxMem=  209715200 cpu:       0.4
 (Enter /opt/gaussian/l401.exe)
 Harris functional with IExCor=  205 diagonalized for initial guess.
 ExpMin= 1.17D-01 ExpMax= 2.19D+04 ExpMxC= 3.30D+03 IAcc=1 IRadAn=         1 AccDes= 0.00D+00
 HarFok:  IExCor=  205 AccDes= 0.00D+00 IRadAn=         1 IDoV= 1
 ScaDFX=  1.000000  1.000000  1.000000  1.000000
 FoFCou: FMM=F IPFlag=           0 FMFlag=      100000 FMFlg1=           0
         NFxFlg=           0 DoJE=T BraDBF=F KetDBF=T FulRan=T
         Omega=  0.000000  0.000000  1.000000  0.000000  0.000000 ICntrl=     500 IOpCl=  0
         NMat0=    1 NMatS0=    1 NMatT0=    0 NMatD0=    1 NMtDS0=    0 NMtDT0=    0
         I1Cent=           4 NGrid=           0.
 Petite list used in FoFCou.
 Harris En= -1664.98035631714    
 Initial guess orbital symmetries:
       Occupied  (A) (A) (A) (A) (A) (A) (A) (A) (A) (A) (A) (A)
                 (A) (A) (A) (A) (A) (A) (A) (A) (A) (A) (A) (A)
                 (A) (A) (A) (A) (A) (A) (A) (A) (A) (A) (A) (A)
                 (A) (A) (A) (A) (A) (A) (A) (A) (A) (A) (A) (A)
                 (A) (A) (A) (A) (A) (A) (A) (A) (A) (A) (A) (A)
                 (A) (A) (A) (A) (A) (A) (A) (A) (A) (A) (A) (A)
                 (A) (A) (A) (A) (A) (A) (A) (A) (A) (A) (A) (A)
                 (A) (A) (A) (A) (A) (A) (A) (A) (A) (A) (A) (A)
                 (A) (A) (A) (A) (A) (A) (A) (A) (A) (A) (A) (A)
                 (A) (A) (A)
       Virtual   (A) (A) (A) (A) (A) (A) (A) (A) (A) (A) (A) (A)
                 (A) (A) (A) (A) (A) (A) (A) (A) (A) (A) (A) (A)
                 (A) (A) (A) (A) (A) (A) (A) (A) (A) (A) (A) (A)
                 (A) (A) (A) (A) (A) (A) (A) (A) (A) (A) (A) (A)
                 (A) (A) (A) (A) (A) (A) (A) (A) (A) (A) (A) (A)
                 (A) (A) (A) (A) (A) (A) (A) (A) (A) (A) (A) (A)
                 (A) (A) (A) (A) (A) (A) (A) (A) (A) (A) (A) (A)
                 (A) (A) (A) (A) (A) (A) (A) (A) (A) (A) (A) (A)
                 (A) (A) (A) (A) (A) (A) (A) (A) (A) (A) (A) (A)
                 (A) (A) (A) (A) (A) (A) (A) (A) (A) (A) (A) (A)
                 (A) (A) (A) (A) (A) (A) (A) (A) (A) (A) (A) (A)
                 (A) (A) (A) (A) (A) (A) (A) (A) (A) (A) (A) (A)
                 (A) (A) (A) (A) (A) (A) (A) (A) (A) (A) (A) (A)
                 (A) (A) (A) (A) (A) (A) (A) (A) (A) (A) (A) (A)
                 (A) (A) (A) (A) (A) (A) (A) (A) (A) (A) (A) (A)
                 (A) (A) (A) (A) (A) (A) (A) (A) (A) (A) (A) (A)
                 (A) (A) (A) (A) (A) (A) (A) (A) (A) (A) (A) (A)
                 (A) (A) (A) (A) (A) (A)
 The electronic state of the initial guess is 1-A.
 Leave Link  401 at Fri Aug 26 18:02:40 2022, MaxMem=  209715200 cpu:       4.4
 (Enter /opt/gaussian/l502.exe)
 Closed shell SCF:
 Requested convergence on RMS density matrix=1.00D-08 within 128 cycles.
 Requested convergence on MAX density matrix=1.00D-06.
 Requested convergence on             energy=1.00D-06.
 No special actions if energy rises.
 Using DIIS extrapolation, IDIIS=  1040.
 Integral symmetry usage will be decided dynamically.
 IEnd=      332316 IEndB=      332316 NGot=   209715200 MDV=   209502887
 LenX=   209502887 LenY=   209399405
 Fock matrices will be formed incrementally for  20 cycles.
 Integral accuracy reduced to 1.0D-05 until final iterations.

 Cycle   1  Pass 0  IDiag  1:
 FoFCou: FMM=F IPFlag=           0 FMFlag=      100000 FMFlg1=           0
         NFxFlg=           0 DoJE=F BraDBF=F KetDBF=F FulRan=T
         Omega=  0.000000  0.000000  1.000000  0.000000  0.000000 ICntrl=       0 IOpCl=  0
         NMat0=    1 NMatS0=    1 NMatT0=    0 NMatD0=    1 NMtDS0=    0 NMtDT0=    0
         I1Cent=           0 NGrid=           0.
 Symmetry not used in FoFCou.
 E= -1662.88296947301    
 DIIS: error= 4.77D-02 at cycle   1 NSaved=   1.
 NSaved= 1 IEnMin= 1 EnMin= -1662.88296947301     IErMin= 1 ErrMin= 4.77D-02
 ErrMax= 4.77D-02 EMaxC= 1.00D-01 BMatC= 1.09D+00 BMatP= 1.09D+00
 IDIUse=3 WtCom= 5.23D-01 WtEn= 4.77D-01
 Coeff-Com:  0.100D+01
 Coeff-En:   0.100D+01
 Coeff:      0.100D+01
 Gap=     0.487 Goal=   None    Shift=    0.000
 GapD=    0.487 DampG=2.000 DampE=0.500 DampFc=1.0000 IDamp=-1.
 RMSDP=6.01D-03 MaxDP=1.54D-01              OVMax= 1.88D-01

 Cycle   2  Pass 0  IDiag  1:
 RMSU=  4.21D-03    CP:  9.69D-01
 E= -1663.62174857792     Delta-E=       -0.738779104908 Rises=F Damp=F
 DIIS: error= 2.00D-02 at cycle   2 NSaved=   2.
 NSaved= 2 IEnMin= 2 EnMin= -1663.62174857792     IErMin= 2 ErrMin= 2.00D-02
 ErrMax= 2.00D-02 EMaxC= 1.00D-01 BMatC= 2.07D-01 BMatP= 1.09D+00
 IDIUse=3 WtCom= 8.00D-01 WtEn= 2.00D-01
 Coeff-Com:  0.256D+00 0.744D+00
 Coeff-En:   0.000D+00 0.100D+01
 Coeff:      0.205D+00 0.795D+00
 Gap=     0.432 Goal=   None    Shift=    0.000
 RMSDP=2.76D-03 MaxDP=7.89D-02 DE=-7.39D-01 OVMax= 1.02D-01

 Cycle   3  Pass 0  IDiag  1:
 RMSU=  1.70D-03    CP:  9.70D-01  7.73D-01
 E= -1663.80006854741     Delta-E=       -0.178319969491 Rises=F Damp=F
 DIIS: error= 9.32D-03 at cycle   3 NSaved=   3.
 NSaved= 3 IEnMin= 3 EnMin= -1663.80006854741     IErMin= 3 ErrMin= 9.32D-03
 ErrMax= 9.32D-03 EMaxC= 1.00D-01 BMatC= 2.95D-02 BMatP= 2.07D-01
 IDIUse=3 WtCom= 9.07D-01 WtEn= 9.32D-02
 Coeff-Com:  0.491D-02 0.258D+00 0.737D+00
 Coeff-En:   0.000D+00 0.000D+00 0.100D+01
 Coeff:      0.445D-02 0.234D+00 0.761D+00
 Gap=     0.393 Goal=   None    Shift=    0.000
 RMSDP=8.12D-04 MaxDP=2.79D-02 DE=-1.78D-01 OVMax= 3.65D-02

 Cycle   4  Pass 0  IDiag  1:
 RMSU=  3.54D-04    CP:  9.70D-01  8.65D-01  8.64D-01
 E= -1663.82782513283     Delta-E=       -0.027756585422 Rises=F Damp=F
 DIIS: error= 2.90D-03 at cycle   4 NSaved=   4.
 NSaved= 4 IEnMin= 4 EnMin= -1663.82782513283     IErMin= 4 ErrMin= 2.90D-03
 ErrMax= 2.90D-03 EMaxC= 1.00D-01 BMatC= 2.82D-03 BMatP= 2.95D-02
 IDIUse=3 WtCom= 9.71D-01 WtEn= 2.90D-02
 Coeff-Com: -0.142D-01 0.240D-01 0.276D+00 0.714D+00
 Coeff-En:   0.000D+00 0.000D+00 0.000D+00 0.100D+01
 Coeff:     -0.138D-01 0.233D-01 0.268D+00 0.722D+00
 Gap=     0.384 Goal=   None    Shift=    0.000
 RMSDP=2.57D-04 MaxDP=8.34D-03 DE=-2.78D-02 OVMax= 1.08D-02

 Cycle   5  Pass 0  IDiag  1:
 RMSU=  1.30D-04    CP:  9.69D-01  8.61D-01  9.24D-01  7.94D-01
 E= -1663.83065713076     Delta-E=       -0.002831997929 Rises=F Damp=F
 DIIS: error= 1.03D-03 at cycle   5 NSaved=   5.
 NSaved= 5 IEnMin= 5 EnMin= -1663.83065713076     IErMin= 5 ErrMin= 1.03D-03
 ErrMax= 1.03D-03 EMaxC= 1.00D-01 BMatC= 1.37D-04 BMatP= 2.82D-03
 IDIUse=3 WtCom= 9.90D-01 WtEn= 1.03D-02
 Coeff-Com: -0.183D-02-0.164D-01-0.106D-01 0.943D-01 0.935D+00
 Coeff-En:   0.000D+00 0.000D+00 0.000D+00 0.000D+00 0.100D+01
 Coeff:     -0.181D-02-0.162D-01-0.105D-01 0.933D-01 0.935D+00
 Gap=     0.386 Goal=   None    Shift=    0.000
 RMSDP=9.77D-05 MaxDP=4.88D-03 DE=-2.83D-03 OVMax= 5.17D-03

 Cycle   6  Pass 0  IDiag  1:
 RMSU=  4.97D-05    CP:  9.69D-01  8.61D-01  9.46D-01  8.63D-01  1.13D+00
 E= -1663.83102008271     Delta-E=       -0.000362951946 Rises=F Damp=F
 DIIS: error= 4.66D-04 at cycle   6 NSaved=   6.
 NSaved= 6 IEnMin= 6 EnMin= -1663.83102008271     IErMin= 6 ErrMin= 4.66D-04
 ErrMax= 4.66D-04 EMaxC= 1.00D-01 BMatC= 3.41D-05 BMatP= 1.37D-04
 IDIUse=3 WtCom= 9.95D-01 WtEn= 4.66D-03
 Coeff-Com:  0.270D-02-0.914D-02-0.576D-01-0.154D+00 0.133D+00 0.108D+01
 Coeff-En:   0.000D+00 0.000D+00 0.000D+00 0.000D+00 0.000D+00 0.100D+01
 Coeff:      0.269D-02-0.909D-02-0.573D-01-0.153D+00 0.133D+00 0.108D+01
 Gap=     0.386 Goal=   None    Shift=    0.000
 RMSDP=6.51D-05 MaxDP=2.48D-03 DE=-3.63D-04 OVMax= 6.25D-03

 Cycle   7  Pass 0  IDiag  1:
 RMSU=  1.95D-05    CP:  9.69D-01  8.60D-01  9.56D-01  8.85D-01  1.39D+00
                    CP:  1.28D+00
 E= -1663.83114321596     Delta-E=       -0.000123133252 Rises=F Damp=F
 DIIS: error= 2.09D-04 at cycle   7 NSaved=   7.
 NSaved= 7 IEnMin= 7 EnMin= -1663.83114321596     IErMin= 7 ErrMin= 2.09D-04
 ErrMax= 2.09D-04 EMaxC= 1.00D-01 BMatC= 4.19D-06 BMatP= 3.41D-05
 IDIUse=3 WtCom= 9.98D-01 WtEn= 2.09D-03
 Coeff-Com:  0.287D-03 0.148D-02 0.178D-02-0.204D-01-0.105D+00 0.344D-01
 Coeff-Com:  0.109D+01
 Coeff-En:   0.000D+00 0.000D+00 0.000D+00 0.000D+00 0.000D+00 0.000D+00
 Coeff-En:   0.100D+01
 Coeff:      0.286D-03 0.148D-02 0.178D-02-0.203D-01-0.105D+00 0.343D-01
 Coeff:      0.109D+01
 Gap=     0.386 Goal=   None    Shift=    0.000
 RMSDP=2.23D-05 MaxDP=9.38D-04 DE=-1.23D-04 OVMax= 1.75D-03

 Cycle   8  Pass 0  IDiag  1:
 RMSU=  6.59D-06    CP:  9.69D-01  8.59D-01  9.58D-01  8.89D-01  1.45D+00
                    CP:  1.47D+00  1.33D+00
 E= -1663.83115927496     Delta-E=       -0.000016058996 Rises=F Damp=F
 DIIS: error= 6.39D-05 at cycle   8 NSaved=   8.
 NSaved= 8 IEnMin= 8 EnMin= -1663.83115927496     IErMin= 8 ErrMin= 6.39D-05
 ErrMax= 6.39D-05 EMaxC= 1.00D-01 BMatC= 7.89D-07 BMatP= 4.19D-06
 IDIUse=1 WtCom= 1.00D+00 WtEn= 0.00D+00
 Coeff-Com: -0.540D-03 0.227D-02 0.139D-01 0.283D-01-0.422D-01-0.240D+00
 Coeff-Com:  0.176D+00 0.106D+01
 Coeff:     -0.540D-03 0.227D-02 0.139D-01 0.283D-01-0.422D-01-0.240D+00
 Coeff:      0.176D+00 0.106D+01
 Gap=     0.386 Goal=   None    Shift=    0.000
 RMSDP=1.05D-05 MaxDP=4.47D-04 DE=-1.61D-05 OVMax= 8.73D-04

 Cycle   9  Pass 0  IDiag  1:
 RMSU=  2.68D-06    CP:  9.69D-01  8.59D-01  9.59D-01  8.88D-01  1.47D+00
                    CP:  1.53D+00  1.58D+00  1.22D+00
 E= -1663.83116210014     Delta-E=       -0.000002825181 Rises=F Damp=F
 DIIS: error= 2.28D-05 at cycle   9 NSaved=   9.
 NSaved= 9 IEnMin= 9 EnMin= -1663.83116210014     IErMin= 9 ErrMin= 2.28D-05
 ErrMax= 2.28D-05 EMaxC= 1.00D-01 BMatC= 7.06D-08 BMatP= 7.89D-07
 IDIUse=1 WtCom= 1.00D+00 WtEn= 0.00D+00
 Coeff-Com: -0.298D-04-0.477D-04 0.323D-03 0.153D-02 0.893D-02-0.116D-01
 Coeff-Com: -0.697D-01 0.163D-01 0.105D+01
 Coeff:     -0.298D-04-0.477D-04 0.323D-03 0.153D-02 0.893D-02-0.116D-01
 Coeff:     -0.697D-01 0.163D-01 0.105D+01
 Gap=     0.386 Goal=   None    Shift=    0.000
 RMSDP=2.35D-06 MaxDP=5.48D-05 DE=-2.83D-06 OVMax= 2.45D-04

 Initial convergence to 1.0D-05 achieved.  Increase integral accuracy.
 Cycle  10  Pass 1  IDiag  1:
 E= -1663.83116686179     Delta-E=       -0.000004761651 Rises=F Damp=F
 DIIS: error= 1.82D-04 at cycle   1 NSaved=   1.
 NSaved= 1 IEnMin= 1 EnMin= -1663.83116686179     IErMin= 1 ErrMin= 1.82D-04
 ErrMax= 1.82D-04 EMaxC= 1.00D-01 BMatC= 1.24D-06 BMatP= 1.24D-06
 IDIUse=3 WtCom= 9.98D-01 WtEn= 1.82D-03
 Coeff-Com:  0.100D+01
 Coeff-En:   0.100D+01
 Coeff:      0.100D+01
 Gap=     0.386 Goal=   None    Shift=    0.000
 RMSDP=2.35D-06 MaxDP=5.48D-05 DE=-4.76D-06 OVMax= 1.47D-04

 Cycle  11  Pass 1  IDiag  1:
 RMSU=  4.07D-05    CP:  1.00D+00
 E= -1663.83116820377     Delta-E=       -0.000001341983 Rises=F Damp=F
 DIIS: error= 8.64D-06 at cycle   2 NSaved=   2.
 NSaved= 2 IEnMin= 2 EnMin= -1663.83116820377     IErMin= 2 ErrMin= 8.64D-06
 ErrMax= 8.64D-06 EMaxC= 1.00D-01 BMatC= 1.27D-08 BMatP= 1.24D-06
 IDIUse=1 WtCom= 1.00D+00 WtEn= 0.00D+00
 Coeff-Com: -0.405D-01 0.104D+01
 Coeff:     -0.405D-01 0.104D+01
 Gap=     0.386 Goal=   None    Shift=    0.000
 RMSDP=3.34D-06 MaxDP=6.56D-05 DE=-1.34D-06 OVMax= 7.70D-05

 Cycle  12  Pass 1  IDiag  1:
 RMSU=  7.21D-07    CP:  1.00D+00  1.06D+00
 E= -1663.83116823362     Delta-E=       -0.000000029843 Rises=F Damp=F
 DIIS: error= 6.25D-06 at cycle   3 NSaved=   3.
 NSaved= 3 IEnMin= 3 EnMin= -1663.83116823362     IErMin= 3 ErrMin= 6.25D-06
 ErrMax= 6.25D-06 EMaxC= 1.00D-01 BMatC= 5.48D-09 BMatP= 1.27D-08
 IDIUse=1 WtCom= 1.00D+00 WtEn= 0.00D+00
 Coeff-Com: -0.203D-01 0.365D+00 0.655D+00
 Coeff:     -0.203D-01 0.365D+00 0.655D+00
 Gap=     0.386 Goal=   None    Shift=    0.000
 RMSDP=3.83D-07 MaxDP=6.86D-06 DE=-2.98D-08 OVMax= 3.13D-05

 Cycle  13  Pass 1  IDiag  1:
 RMSU=  2.64D-07    CP:  1.00D+00  1.06D+00  9.70D-01
 E= -1663.83116824392     Delta-E=       -0.000000010306 Rises=F Damp=F
 DIIS: error= 4.26D-06 at cycle   4 NSaved=   4.
 NSaved= 4 IEnMin= 4 EnMin= -1663.83116824392     IErMin= 4 ErrMin= 4.26D-06
 ErrMax= 4.26D-06 EMaxC= 1.00D-01 BMatC= 1.39D-09 BMatP= 5.48D-09
 IDIUse=1 WtCom= 1.00D+00 WtEn= 0.00D+00
 Coeff-Com:  0.226D-01-0.516D+00-0.269D+00 0.176D+01
 Coeff:      0.226D-01-0.516D+00-0.269D+00 0.176D+01
 Gap=     0.386 Goal=   None    Shift=    0.000
 RMSDP=5.14D-07 MaxDP=1.34D-05 DE=-1.03D-08 OVMax= 6.82D-05

 Cycle  14  Pass 1  IDiag  1:
 RMSU=  2.09D-07    CP:  1.00D+00  1.06D+00  1.28D+00  1.72D+00
 E= -1663.83116825303     Delta-E=       -0.000000009105 Rises=F Damp=F
 DIIS: error= 1.22D-06 at cycle   5 NSaved=   5.
 NSaved= 5 IEnMin= 5 EnMin= -1663.83116825303     IErMin= 5 ErrMin= 1.22D-06
 ErrMax= 1.22D-06 EMaxC= 1.00D-01 BMatC= 2.02D-10 BMatP= 1.39D-09
 IDIUse=1 WtCom= 1.00D+00 WtEn= 0.00D+00
 Coeff-Com:  0.886D-02-0.185D+00-0.189D+00 0.399D+00 0.966D+00
 Coeff:      0.886D-02-0.185D+00-0.189D+00 0.399D+00 0.966D+00
 Gap=     0.386 Goal=   None    Shift=    0.000
 RMSDP=1.75D-07 MaxDP=4.60D-06 DE=-9.10D-09 OVMax= 2.41D-05

 Cycle  15  Pass 1  IDiag  1:
 RMSU=  5.54D-08    CP:  1.00D+00  1.06D+00  1.34D+00  2.00D+00  1.34D+00
 E= -1663.83116825393     Delta-E=       -0.000000000903 Rises=F Damp=F
 DIIS: error= 4.28D-07 at cycle   6 NSaved=   6.
 NSaved= 6 IEnMin= 6 EnMin= -1663.83116825393     IErMin= 6 ErrMin= 4.28D-07
 ErrMax= 4.28D-07 EMaxC= 1.00D-01 BMatC= 2.95D-11 BMatP= 2.02D-10
 IDIUse=1 WtCom= 1.00D+00 WtEn= 0.00D+00
 Coeff-Com: -0.193D-02 0.485D-01-0.192D-02-0.210D+00 0.260D+00 0.906D+00
 Coeff:     -0.193D-02 0.485D-01-0.192D-02-0.210D+00 0.260D+00 0.906D+00
 Gap=     0.386 Goal=   None    Shift=    0.000
 RMSDP=5.09D-08 MaxDP=1.20D-06 DE=-9.03D-10 OVMax= 5.75D-06

 Cycle  16  Pass 1  IDiag  1:
 RMSU=  1.71D-08    CP:  1.00D+00  1.06D+00  1.34D+00  2.04D+00  1.47D+00
                    CP:  1.06D+00
 E= -1663.83116825401     Delta-E=       -0.000000000080 Rises=F Damp=F
 DIIS: error= 1.05D-07 at cycle   7 NSaved=   7.
 NSaved= 7 IEnMin= 7 EnMin= -1663.83116825401     IErMin= 7 ErrMin= 1.05D-07
 ErrMax= 1.05D-07 EMaxC= 1.00D-01 BMatC= 3.02D-12 BMatP= 2.95D-11
 IDIUse=1 WtCom= 1.00D+00 WtEn= 0.00D+00
 Coeff-Com: -0.938D-03 0.203D-01 0.129D-01-0.550D-01-0.438D-01 0.442D-01
 Coeff-Com:  0.102D+01
 Coeff:     -0.938D-03 0.203D-01 0.129D-01-0.550D-01-0.438D-01 0.442D-01
 Coeff:      0.102D+01
 Gap=     0.386 Goal=   None    Shift=    0.000
 RMSDP=1.61D-08 MaxDP=4.31D-07 DE=-8.00D-11 OVMax= 1.53D-06

 Cycle  17  Pass 1  IDiag  1:
 RMSU=  6.42D-09    CP:  1.00D+00  1.06D+00  1.34D+00  2.05D+00  1.49D+00
                    CP:  1.14D+00  1.36D+00
 E= -1663.83116825400     Delta-E=        0.000000000015 Rises=F Damp=F
 DIIS: error= 8.97D-08 at cycle   8 NSaved=   8.
 NSaved= 8 IEnMin= 7 EnMin= -1663.83116825401     IErMin= 8 ErrMin= 8.97D-08
 ErrMax= 8.97D-08 EMaxC= 1.00D-01 BMatC= 9.37D-13 BMatP= 3.02D-12
 IDIUse=1 WtCom= 1.00D+00 WtEn= 0.00D+00
 Coeff-Com:  0.406D-03-0.108D-01 0.184D-02 0.552D-01-0.787D-01-0.291D+00
 Coeff-Com:  0.225D+00 0.110D+01
 Coeff:      0.406D-03-0.108D-01 0.184D-02 0.552D-01-0.787D-01-0.291D+00
 Coeff:      0.225D+00 0.110D+01
 Gap=     0.386 Goal=   None    Shift=    0.000
 RMSDP=9.32D-09 MaxDP=2.83D-07 DE= 1.46D-11 OVMax= 1.07D-06

 SCF Done:  E(RHF) =  -1663.83116825     A.U. after   17 cycles
             Convg  =    0.9318D-08             -V/T =  2.0000
 KE= 1.663790109484D+03 PE=-9.609282789568D+03 EE= 3.427246629340D+03
 Leave Link  502 at Fri Aug 26 18:03:52 2022, MaxMem=  209715200 cpu:     549.2
 (Enter /opt/gaussian/l601.exe)
 Copying SCF densities to generalized density rwf, IOpCl= 0 IROHF=0.

 **********************************************************************

            Population analysis using the SCF density.

 **********************************************************************

 Orbital symmetries:
       Occupied  (A) (A) (A) (A) (A) (A) (A) (A) (A) (A) (A) (A)
                 (A) (A) (A) (A) (A) (A) (A) (A) (A) (A) (A) (A)
                 (A) (A) (A) (A) (A) (A) (A) (A) (A) (A) (A) (A)
                 (A) (A) (A) (A) (A) (A) (A) (A) (A) (A) (A) (A)
                 (A) (A) (A) (A) (A) (A) (A) (A) (A) (A) (A) (A)
                 (A) (A) (A) (A) (A) (A) (A) (A) (A) (A) (A) (A)
                 (A) (A) (A) (A) (A) (A) (A) (A) (A) (A) (A) (A)
                 (A) (A) (A) (A) (A) (A) (A) (A) (A) (A) (A) (A)
                 (A) (A) (A) (A) (A) (A) (A) (A) (A) (A) (A) (A)
                 (A) (A) (A)
       Virtual   (A) (A) (A) (A) (A) (A) (A) (A) (A) (A) (A) (A)
                 (A) (A) (A) (A) (A) (A) (A) (A) (A) (A) (A) (A)
                 (A) (A) (A) (A) (A) (A) (A) (A) (A) (A) (A) (A)
                 (A) (A) (A) (A) (A) (A) (A) (A) (A) (A) (A) (A)
                 (A) (A) (A) (A) (A) (A) (A) (A) (A) (A) (A) (A)
                 (A) (A) (A) (A) (A) (A) (A) (A) (A) (A) (A) (A)
                 (A) (A) (A) (A) (A) (A) (A) (A) (A) (A) (A) (A)
                 (A) (A) (A) (A) (A) (A) (A) (A) (A) (A) (A) (A)
                 (A) (A) (A) (A) (A) (A) (A) (A) (A) (A) (A) (A)
                 (A) (A) (A) (A) (A) (A) (A) (A) (A) (A) (A) (A)
                 (A) (A) (A) (A) (A) (A) (A) (A) (A) (A) (A) (A)
                 (A) (A) (A) (A) (A) (A) (A) (A) (A) (A) (A) (A)
                 (A) (A) (A) (A) (A) (A) (A) (A) (A) (A) (A) (A)
                 (A) (A) (A) (A) (A) (A) (A) (A) (A) (A) (A) (A)
                 (A) (A) (A) (A) (A) (A) (A) (A) (A) (A) (A) (A)
                 (A) (A) (A) (A) (A) (A) (A) (A) (A) (A) (A) (A)
                 (A) (A) (A) (A) (A) (A) (A) (A) (A) (A) (A) (A)
                 (A) (A) (A) (A) (A) (A)
 The electronic state is 1-A.
[...]
     2  C    0.000000  -0.038361  -0.050635   0.000000   0.000000   0.000000
     3  C    0.000000   0.389065   0.398995   0.000001   0.000000   0.000002
     4  N    0.000000  -0.037204  -0.044259  -0.000108  -0.000006  -0.000101
     5  N    0.000000   0.008672   0.001376  -0.000085   0.000002   0.000001
     6  N    0.000000   0.000018  -0.000139   0.001112  -0.000065  -0.000004
     7  C    0.000000  -0.000198   0.000093  -0.020103   0.002796   0.000465
     8  C    0.000000  -0.000003  -0.000005   0.361599  -0.020004   0.002344
     9  C    0.000000   0.000000  -0.000001  -0.020630   0.374908  -0.024238
    10  C    0.000000   0.000001  -0.000023   0.002063  -0.026326   0.373833
    11  C    0.000000   0.000047  -0.000409   0.000022   0.002623  -0.022976
    12  C    0.000000   0.004011   0.001013   0.003171   0.000372   0.002810
    13  N    0.000000   0.004086   0.004936   0.000000   0.000000   0.000000
    14  C    0.000000  -0.003455  -0.003081   0.000000   0.000000   0.000000
    15  C    0.000000   0.000207   0.005466   0.000000   0.000000   0.000000
    16  C    0.000000  -0.000024   0.000089   0.000000   0.000000   0.000000
    17  C    0.000000  -0.000002  -0.000108   0.000000   0.000000   0.000000
    18  S    0.000000   0.000000  -0.000266   0.000000   0.000000   0.000000
    19  C    0.000000   0.000068   0.002683   0.000000   0.000000   0.000000
    20  C    0.000007  -0.000187  -0.000248   0.000000   0.000000   0.000000
    21  C   -0.000137   0.000031  -0.000009   0.000000   0.000000   0.000000
    22  C    0.001732   0.000000   0.000000   0.000000   0.000000   0.000000
    23  C   -0.034187   0.000000   0.000000   0.000000   0.000000   0.000000
    24  C   -0.003669   0.000000   0.000000   0.000000   0.000000   0.000000
    25  C    0.000202  -0.000007   0.000032   0.000000   0.000000   0.000000
    26  C    0.497034   0.000000   0.000000   0.000000   0.000000   0.000000
    27  C   -0.052221   0.000000   0.000000   0.000000   0.000000   0.000000
    28  C   -0.019200   0.000000   0.000000   0.000000   0.000000   0.000000
    29  N   -0.090419   0.000000   0.000000   0.000000   0.000000   0.000000
    30  C    0.445238   0.000000   0.000000   0.000000   0.000000   0.000000
    31  C    5.171660   0.000000   0.000000   0.000000   0.000000   0.000000
    32  H    0.000000   0.436298  -0.016373   0.000000   0.000000   0.000000
    33  H    0.000000  -0.016373   0.464954   0.000000   0.000000   0.000000
    34  H    0.000000   0.000000   0.000000   0.431806  -0.000103  -0.000088
    35  H    0.000000   0.000000   0.000000  -0.000103   0.461561  -0.000272
    36  H    0.000000   0.000000   0.000000  -0.000088  -0.000272   0.463183
    37  H    0.000000   0.000018   0.000362   0.000009  -0.000099  -0.000181
    38  H    0.000000   0.001161  -0.002559   0.000000   0.000000   0.000000
    39  H    0.000000   0.000061   0.000196   0.000000   0.000000   0.000000
    40  H    0.000000   0.000000   0.000004   0.000000   0.000000   0.000000
    41  H    0.000000   0.000000   0.000000   0.000000   0.000000   0.000000
    42  H    0.000000   0.000004   0.000048   0.000000   0.000000   0.000000
    43  H    0.000001   0.000001   0.000000   0.000000   0.000000   0.000000
    44  H    0.000155   0.000000   0.000000   0.000000   0.000000   0.000000
    45  H    0.001900   0.000000   0.000000   0.000000   0.000000   0.000000
    46  H    0.000000   0.000000  -0.000009   0.000000   0.000000   0.000000
    47  H    0.002551   0.000000   0.000000   0.000000   0.000000   0.000000
    48  H   -0.000933   0.000000   0.000000   0.000000   0.000000   0.000000
    49  H   -0.054362   0.000000   0.000000   0.000000   0.000000   0.000000
    50  H    0.366559   0.000000   0.000000   0.000000   0.000000   0.000000
             37         38         39         40         41         42
     1  O    0.000312   0.000089  -0.000052   0.000000   0.000000  -0.000061
     2  C    0.000174  -0.000483   0.001849  -0.000004   0.000000   0.000064
     3  C   -0.000142  -0.000792   0.000145   0.000001   0.000000  -0.000221
     4  N   -0.003000  -0.000102  -0.000005   0.000000   0.000000   0.000005
     5  N   -0.000005  -0.000022   0.000000   0.000000   0.000000   0.000000
     6  N   -0.000101   0.000000   0.000000   0.000000   0.000000   0.000000
     7  C    0.000802   0.000000   0.000000   0.000000   0.000000   0.000000
     8  C    0.000164   0.000000   0.000000   0.000000   0.000000   0.000000
     9  C    0.002042   0.000000   0.000000   0.000000   0.000000   0.000000
    10  C   -0.015671   0.000000   0.000000   0.000000   0.000000   0.000000
    11  C    0.371311   0.000001   0.000000   0.000000   0.000000   0.000007
    12  C   -0.032415  -0.000012   0.000000   0.000000   0.000000  -0.000003
    13  N   -0.000006  -0.051452  -0.041901   0.000030   0.000001   0.001025
    14  C   -0.000009   0.427970   0.421241  -0.001001  -0.000069  -0.000068
    15  C    0.000063  -0.074177  -0.054571  -0.031656   0.000175  -0.014890
    16  C   -0.000002   0.000328  -0.000299   0.377049  -0.010507   0.001345
    17  C   -0.000003   0.000306   0.000096  -0.021877   0.381761   0.001866
    18  S    0.000081  -0.000059   0.000003   0.002379  -0.016692  -0.014031
    19  C    0.000672   0.000887  -0.001252   0.006030   0.002773   0.385511
    20  C   -0.000001   0.002787   0.001667   0.000002   0.000000  -0.000241
    21  C    0.000000   0.000331  -0.000326   0.000000   0.000000   0.000003
    22  C    0.000000  -0.000008  -0.000145   0.000000   0.000000  -0.000002
    23  C    0.000000   0.000000  -0.000006   0.000000   0.000000   0.000000
    24  C    0.000000   0.000002  -0.000035   0.000000   0.000000   0.000025
    25  C   -0.000001  -0.000125   0.000605   0.000000   0.000000   0.001856
    26  C    0.000000   0.000000   0.000000   0.000000   0.000000   0.000000
    27  C    0.000000   0.000000   0.000000   0.000000   0.000000   0.000000
    28  C    0.000000   0.000000   0.000000   0.000000   0.000000   0.000000
    29  N    0.000000   0.000000   0.000000   0.000000   0.000000   0.000000
    30  C    0.000000   0.000000   0.000000   0.000000   0.000000   0.000000
    31  C    0.000000   0.000000   0.000000   0.000000   0.000000   0.000000
    32  H    0.000018   0.001161   0.000061   0.000000   0.000000   0.000004
    33  H    0.000362  -0.002559   0.000196   0.000004   0.000000   0.000048
    34  H    0.000009   0.000000   0.000000   0.000000   0.000000   0.000000
    35  H   -0.000099   0.000000   0.000000   0.000000   0.000000   0.000000
    36  H   -0.000181   0.000000   0.000000   0.000000   0.000000   0.000000
    37  H    0.454158  -0.000002   0.000000   0.000000   0.000000   0.000130
    38  H   -0.000002   0.535052  -0.027813   0.000238   0.000000   0.000002
    39  H    0.000000  -0.027813   0.480230   0.000146   0.000001  -0.000010
    40  H    0.000000   0.000238   0.000146   0.446946   0.000816  -0.000073
    41  H    0.000000   0.000000   0.000001   0.000816   0.403349  -0.000013
    42  H    0.000130   0.000002  -0.000010  -0.000073  -0.000013   0.398387
    43  H    0.000000  -0.000052   0.000211   0.000000   0.000000   0.000000
    44  H    0.000000   0.000000   0.000007   0.000000   0.000000   0.000000
    45  H    0.000000   0.000000   0.000000   0.000000   0.000000  -0.000002
    46  H    0.000010  -0.000001   0.000001   0.000000   0.000000   0.001694
    47  H    0.000000   0.000000   0.000000   0.000000   0.000000   0.000000
    48  H    0.000000   0.000000   0.000000   0.000000   0.000000   0.000000
    49  H    0.000000   0.000000   0.000000   0.000000   0.000000   0.000000
    50  H    0.000000   0.000000   0.000000   0.000000   0.000000   0.000000
             43         44         45         46         47         48
     1  O   -0.000011   0.000000  -0.000006   0.001883   0.000000   0.000000
     2  C    0.000199   0.000000  -0.000002   0.001285   0.000000   0.000000
     3  C   -0.000007   0.000000   0.000000  -0.000016   0.000000   0.000000
     4  N    0.000000   0.000000   0.000000  -0.000003   0.000000   0.000000
     5  N    0.000000   0.000000   0.000000   0.000000   0.000000   0.000000
     6  N    0.000000   0.000000   0.000000   0.000000   0.000000   0.000000
     7  C    0.000000   0.000000   0.000000   0.000000   0.000000   0.000000
     8  C    0.000000   0.000000   0.000000   0.000000   0.000000   0.000000
     9  C    0.000000   0.000000   0.000000   0.000000   0.000000   0.000000
    10  C    0.000000   0.000000   0.000000   0.000000   0.000000   0.000000
    11  C    0.000000   0.000000   0.000000   0.000005   0.000000   0.000000
    12  C    0.000000   0.000000   0.000000   0.000000   0.000000   0.000000
    13  N   -0.001959  -0.000127  -0.000115  -0.004736   0.000000   0.000000
    14  C    0.000097   0.000002   0.000002   0.000030   0.000000   0.000000
    15  C    0.000042   0.000000   0.000000  -0.000051   0.000000   0.000000
    16  C    0.000001   0.000000   0.000000  -0.000001   0.000000   0.000000
    17  C    0.000000   0.000000   0.000000   0.000000   0.000000   0.000000
    18  S    0.000000   0.000000   0.000000  -0.000001   0.000000   0.000000
    19  C    0.000002   0.000000   0.000000   0.000048   0.000000   0.000000
    20  C   -0.030509   0.001430   0.001287  -0.024307  -0.000002   0.000000
    21  C    0.371891  -0.015880   0.000409   0.002366  -0.000011   0.000000
    22  C   -0.014991   0.368816   0.002180   0.000236   0.001923  -0.000003
    23  C    0.001684  -0.029459  -0.030039   0.001673   0.000829  -0.000083
    24  C    0.000249   0.002106   0.368980  -0.016481   0.000100   0.000001
    25  C    0.002189   0.000381  -0.014968   0.369539  -0.000010   0.000000
    26  C   -0.000145   0.001595   0.001368  -0.000138  -0.029448   0.002745
    27  C    0.000001   0.001828   0.000148   0.000001   0.366633  -0.055021
    28  C    0.000000   0.000053  -0.000007   0.000000  -0.013202   0.403002
    29  N    0.000000   0.000003   0.000003   0.000000   0.002990  -0.041796
    30  C    0.000000  -0.000008   0.000052   0.000000   0.000073   0.004301
    31  C    0.000001   0.000155   0.001900   0.000000   0.002551  -0.000933
    32  H    0.000001   0.000000   0.000000   0.000000   0.000000   0.000000
    33  H    0.000000   0.000000   0.000000  -0.000009   0.000000   0.000000
    34  H    0.000000   0.000000   0.000000   0.000000   0.000000   0.000000
    35  H    0.000000   0.000000   0.000000   0.000000   0.000000   0.000000
    36  H    0.000000   0.000000   0.000000   0.000000   0.000000   0.000000
    37  H    0.000000   0.000000   0.000000   0.000010   0.000000   0.000000
    38  H   -0.000052   0.000000   0.000000  -0.000001   0.000000   0.000000
    39  H    0.000211   0.000007   0.000000   0.000001   0.000000   0.000000
    40  H    0.000000   0.000000   0.000000   0.000000   0.000000   0.000000
    41  H    0.000000   0.000000   0.000000   0.000000   0.000000   0.000000
    42  H    0.000000   0.000000  -0.000002   0.001694   0.000000   0.000000
    43  H    0.453174   0.000120   0.000009  -0.000116   0.000001   0.000000
    44  H    0.000120   0.445013  -0.000127   0.000008   0.000776   0.000004
    45  H    0.000009  -0.000127   0.443965   0.000274   0.000001   0.000000
    46  H   -0.000116   0.000008   0.000274   0.440301   0.000000   0.000000
    47  H    0.000001   0.000776   0.000001   0.000000   0.447508   0.001471
    48  H    0.000000   0.000004   0.000000   0.000000   0.001471   0.476049
    49  H    0.000000   0.000000   0.000004   0.000000   0.000010   0.000037
    50  H    0.000000   0.000001   0.000741   0.000001  -0.000086   0.000010
             49         50
     1  O    0.000000   0.000000
     2  C    0.000000   0.000000
     3  C    0.000000   0.000000
     4  N    0.000000   0.000000
     5  N    0.000000   0.000000
     6  N    0.000000   0.000000
     7  C    0.000000   0.000000
     8  C    0.000000   0.000000
     9  C    0.000000   0.000000
    10  C    0.000000   0.000000
    11  C    0.000000   0.000000
    12  C    0.000000   0.000000
    13  N    0.000000   0.000000
    14  C    0.000000   0.000000
    15  C    0.000000   0.000000
    16  C    0.000000   0.000000
    17  C    0.000000   0.000000
    18  S    0.000000   0.000000
    19  C    0.000000   0.000000
    20  C    0.000000  -0.000002
    21  C    0.000000  -0.000009
    22  C    0.000001   0.000099
    23  C   -0.000083   0.000755
    24  C   -0.000003   0.001702
    25  C    0.000000   0.000000
    26  C    0.002751  -0.028411
    27  C   -0.000914   0.002495
    28  C    0.004277   0.000088
    29  N   -0.041748   0.002916
    30  C    0.402770  -0.012968
    31  C   -0.054362   0.366559
    32  H    0.000000   0.000000
    33  H    0.000000   0.000000
    34  H    0.000000   0.000000
    35  H    0.000000   0.000000
    36  H    0.000000   0.000000
    37  H    0.000000   0.000000
    38  H    0.000000   0.000000
    39  H    0.000000   0.000000
    40  H    0.000000   0.000000
    41  H    0.000000   0.000000
    42  H    0.000000   0.000000
    43  H    0.000000   0.000000
    44  H    0.000000   0.000001
    45  H    0.000004   0.000741
    46  H    0.000000   0.000001
    47  H    0.000010  -0.000086
    48  H    0.000037   0.000010
    49  H    0.473770   0.001463
    50  H    0.001463   0.438890
 Mulliken atomic charges:
              1
     1  O   -0.566381
     2  C    0.791389
     3  C   -0.130668
     4  N   -0.883453
     5  N    0.097743
     6  N   -0.334111
     7  C   -0.019576
     8  C   -0.078132
     9  C   -0.233756
    10  C   -0.204639
    11  C   -0.068351
    12  C    0.487828
    13  N   -0.979202
    14  C   -0.076848
    15  C    0.077539
    16  C   -0.106089
    17  C   -0.551001
    18  S    0.478128
    19  C   -0.593778
    20  C    0.310804
    21  C   -0.185046
    22  C   -0.195592
    23  C   -0.027377
    24  C   -0.204966
    25  C   -0.142410
    26  C    0.004518
    27  C   -0.233212
    28  C    0.053538
    29  N   -0.530925
    30  C    0.053101
    31  C   -0.231911
    32  H    0.250840
    33  H    0.236441
    34  H    0.241334
    35  H    0.204614
    36  H    0.205222
    37  H    0.221333
    38  H    0.188507
    39  H    0.219957
    40  H    0.220972
    41  H    0.238406
    42  H    0.237645
    43  H    0.217919
    44  H    0.223304
    45  H    0.223943
    46  H    0.226507
    47  H    0.217895
    48  H    0.210217
    49  H    0.212027
    50  H    0.225755
 Sum of Mulliken atomic charges =   0.00000
 Mulliken charges with hydrogens summed into heavy atoms:
              1
     1  O   -0.566381
     2  C    0.791389
     3  C    0.356613
     4  N   -0.883453
     5  N    0.097743
     6  N   -0.334111
     7  C   -0.019576
     8  C    0.163202
     9  C   -0.029142
    10  C    0.000583
    11  C    0.152982
    12  C    0.487828
    13  N   -0.979202
    14  C    0.331615
    15  C    0.077539
    16  C    0.114882
    17  C   -0.312595
    18  S    0.478128
    19  C   -0.356133
    20  C    0.310804
    21  C    0.032873
    22  C    0.027712
    23  C   -0.027377
    24  C    0.018978
    25  C    0.084097
    26  C    0.004518
    27  C   -0.015317
    28  C    0.263756
    29  N   -0.530925
    30  C    0.265129
    31  C   -0.006157
 Sum of Mulliken charges with hydrogens summed into heavy atoms =   0.00000
 Electronic spatial extent (au):  <R**2>=          18696.7754
 Charge=              0.0000 electrons
 Dipole moment (field-independent basis, Debye):
    X=             -0.7110    Y=              6.7821    Z=             -0.4696  Tot=              6.8354
 Quadrupole moment (field-independent basis, Debye-Ang):
   XX=           -223.0901   YY=           -188.1452   ZZ=           -181.5549
   XY=             -3.1354   XZ=             22.9852   YZ=             23.8399
 Traceless Quadrupole moment (field-independent basis, Debye-Ang):
   XX=            -25.4934   YY=              9.4516   ZZ=             16.0418
   XY=             -3.1354   XZ=             22.9852   YZ=             23.8399
 Octapole moment (field-independent basis, Debye-Ang**2):
  XXX=           -312.0372  YYY=             73.1333  ZZZ=            -14.0498  XYY=            -31.0523
  XXY=             90.4992  XXZ=            -21.4827  XZZ=             23.1029  YZZ=             16.5216
  YYZ=             -5.3846  XYZ=            -43.2141
 Hexadecapole moment (field-independent basis, Debye-Ang**3):
 XXXX=         -22228.9076 YYYY=          -5270.0987 ZZZZ=          -1823.7983 XXXY=           1132.2009
 XXXZ=           1074.7532 YYYX=           -239.4795 YYYZ=            214.0862 ZZZX=            168.9025
 ZZZY=            144.2949 XXYY=          -4039.2476 XXZZ=          -3473.1065 YYZZ=          -1318.1333
 XXYZ=            377.3526 YYXZ=             51.7992 ZZXY=            -88.0242
 N-N= 2.889406427602D+03 E-N=-9.680513851199D+03  KE= 1.665315902024D+03
 No NMR shielding tensors so no spin-rotation constants.
 Leave Link  601 at Fri Aug 26 18:46:19 2022, MaxMem=  209715200 cpu:       1.4
 (Enter /opt/gaussian/l9999.exe)
 1\1\GINC-LQCAPF-6\FOpt\RHF\6-31G\C24H19N5O1S1\LQCAPF-6\26-Aug-2022\0\\
 #p opt hf/6-31G\\Mol14.out\\0,1\O,20.8299791772,-6.8350483935,-0.49326
 67498\C,21.3457942137,-7.8732925718,-0.1114829036\C,22.801495935,-7.90
 02195397,0.3372317983\N,23.413269406,-6.6099786768,0.2672763625\N,23.5
 574064606,-5.8712081646,1.4044556796\N,24.076812375,-4.7510817999,1.11
 85191009\C,24.2945346502,-4.6932882472,-0.2491144418\C,24.8428604688,-
 3.6840727248,-1.0392253905\C,24.9374865372,-3.922728,-2.3884287266\C,2
 4.4924632069,-5.1426592249,-2.9447854088\C,23.9481209169,-6.1414004776
 ,-2.1730211498\C,23.8583661283,-5.8908793616,-0.8014525531\N,20.661989
 3285,-9.0620369286,-0.0642166461\C,21.2966286881,-10.3305685076,0.3014
 734832\C,22.0499473885,-11.0121433399,-0.8169609883\C,22.8766316311,-1
 2.1758798811,-0.5612695714\C,23.462583288,-12.6793105156,-1.6574551324
 \S,23.0385459001,-11.7468503493,-3.1212928902\C,22.0335525407,-10.6618
 963946,-2.1139430872\C,19.2572841026,-9.0779248618,-0.3702995959\C,18.
 3503238886,-9.4646222217,0.6061546413\C,16.995770329,-9.5194438939,0.3
 226331961\C,16.5167583013,-9.1690516096,-0.9373155955\C,17.4352242986,
 -8.7621782077,-1.9030816642\C,18.790820914,-8.7202682052,-1.6263524421
 \C,15.0632737466,-9.2182165244,-1.2407688817\C,14.2727296392,-10.29112
 73794,-0.8318650883\C,12.9220326827,-10.295669012,-1.136164381\N,12.33
 28022844,-9.3106454444,-1.8111629122\C,13.0777955141,-8.279993238,-2.2
 066936887\C,14.4347405063,-8.1927231647,-1.9454677417\H,22.8607330656,
 -8.2109514012,1.3699365706\H,23.3634702869,-8.6057546764,-0.2598630342
 \H,25.1718746096,-2.7653508468,-0.5973223965\H,25.3512286886,-3.176519
 9707,-3.037425205\H,24.5801840562,-5.2884365096,-4.004011745\H,23.6038
 595726,-7.0581580713,-2.6078528845\H,21.9607003546,-10.1868338797,1.14
 42387421\H,20.5162908688,-10.9926623805,0.6480056714\H,23.0085011811,-
 12.5958708533,0.4161005677\H,24.1133449502,-13.5209176987,-1.731873526
 3\H,21.4978539696,-9.8643736111,-2.5742203161\H,18.6982116358,-9.70266
 46288,1.5927720696\H,16.3081508048,-9.8036663921,1.0950362731\H,17.092
 9888103,-8.4940972123,-2.8833560753\H,19.4779254036,-8.3882102507,-2.3
 766936081\H,14.7036762982,-11.1185983074,-0.3046135613\H,12.2938075877
 ,-11.1099190781,-0.8384959011\H,12.5697311447,-7.5036357954,-2.7407673
 301\H,14.9857422629,-7.331071574,-2.2650509419\\Version=EM64L-G09RevC.
 01\State=1-A\HF=-1663.8932883\RMSD=5.688e-09\RMSF=2.834e-06\Dipole=1.0
 869564,-2.4159625,-0.4622621\Quadrupole=-15.1583226,8.279507,6.8788157
 ,-8.2485952,-11.7762935,-22.5280287\PG=C01 [X(C24H19N5O1S1)]\\@


 TO SEE A WORLD IN A GRAIN OF SAND
 AND A HEAVEN IN A WILD FLOWER
 HOLD INFINITY IN THE PALM OF YOUR HAND
 AND ETERNITY IN AN HOUR

                       -- WILLIAM BLAKE
 Job cpu time:  0 days  5 hours 29 minutes 57.0 seconds.
 File lengths (MBytes):  RWF=     71 Int=      0 D2E=      0 Chk=     10 Scr=      1
 Normal termination of Gaussian 09 at Fri Aug 26 18:46:19 2022.
