 Entering Gaussian System, Link 0=g09
 Input=Mol12.gjf
 Output=Mol12.log
 Initial command:
 /opt/gaussian/l1.exe /home/scr/lqcapf-6/Gau-232613.inp -scrdir=/home/scr/lqcapf-6/
 Entering Link 1 = /opt/gaussian/l1.exe PID=    232615.
  
 Copyright (c) 1988,1990,1992,1993,1995,1998,2003,2009,2011,
            Gaussian, Inc.  All Rights Reserved.
  
 This is part of the Gaussian(R) 09 program.  It is based on
 the Gaussian(R) 03 system (copyright 2003, Gaussian, Inc.),
 the Gaussian(R) 98 system (copyright 1998, Gaussian, Inc.),
 the Gaussian(R) 94 system (copyright 1995, Gaussian, Inc.),
 the Gaussian 92(TM) system (copyright 1992, Gaussian, Inc.),
 the Gaussian 90(TM) system (copyright 1990, Gaussian, Inc.),
 the Gaussian 88(TM) system (copyright 1988, Gaussian, Inc.),
 the Gaussian 86(TM) system (copyright 1986, Carnegie Mellon
 University), and the Gaussian 82(TM) system (copyright 1983,
 Carnegie Mellon University). Gaussian is a federally registered
 trademark of Gaussian, Inc.
  
 This software contains proprietary and confidential information,
 including trade secrets, belonging to Gaussian, Inc.
  
 This software is provided under written license and may be
 used, copied, transmitted, or stored only in accord with that
 written license.
  
 The following legend is applicable only to US Government
 contracts under FAR:
  
                    RESTRICTED RIGHTS LEGEND
  
 Use, reproduction and disclosure by the US Government is
 subject to restrictions as set forth in subparagraphs (a)
 and (c) of the Commercial Computer Software - Restricted
 Rights clause in FAR 52.227-19.
  
 Gaussian, Inc.
 340 Quinnipiac St., Bldg. 40, Wallingford CT 06492
  
  
 ---------------------------------------------------------------
 Warning -- This program may not be used in any manner that
 competes with the business of Gaussian, Inc. or will provide
 assistance to any competitor of Gaussian, Inc.  The licensee
 of this program is prohibited from giving any competitor of
 Gaussian, Inc. access to this program.  By using this program,
 the user acknowledges that Gaussian, Inc. is engaged in the
 business of creating and licensing software in the field of
 computational chemistry and represents and warrants to the
 licensee that it is not a competitor of Gaussian, Inc. and that
 it will not use this program in any manner prohibited above.
 ---------------------------------------------------------------
  

 Cite this work as:
 Gaussian 09, Revision C.01,
 M. J. Frisch, G. W. Trucks, H. B. Schlegel, G. E. Scuseria, 
 M. A. Robb, J. R. Cheeseman, G. Scalmani, V. Barone, B. Mennucci, 
 G. A. Petersson, H. Nakatsuji, M. Caricato, X. Li, H. P. Hratchian, 
 A. F. Izmaylov, J. Bloino, G. Zheng, J. L. Sonnenberg, M. Hada, 
 M. Ehara, K. Toyota, R. Fukuda, J. Hasegawa, M. Ishida, T. Nakajima, 
 Y. Honda, O. Kitao, H. Nakai, T. Vreven, J. A. Montgomery, Jr., 
 J. E. Peralta, F. Ogliaro, M. Bearpark, J. J. Heyd, E. Brothers, 
 K. N. Kudin, V. N. Staroverov, T. Keith, R. Kobayashi, J. Normand, 
 K. Raghavachari, A. Rendell, J. C. Burant, S. S. Iyengar, J. Tomasi, 
 M. Cossi, N. Rega, J. M. Millam, M. Klene, J. E. Knox, J. B. Cross, 
 V. Bakken, C. Adamo, J. Jaramillo, R. Gomperts, R. E. Stratmann, 
 O. Yazyev, A. J. Austin, R. Cammi, C. Pomelli, J. W. Ochterski, 
 R. L. Martin, K. Morokuma, V. G. Zakrzewski, G. A. Voth, 
 P. Salvador, J. J. Dannenberg, S. Dapprich, A. D. Daniels, 
 O. Farkas, J. B. Foresman, J. V. Ortiz, J. Cioslowski, 
 and D. J. Fox, Gaussian, Inc., Wallingford CT, 2010.
 
 ******************************************
 Gaussian 09:  EM64L-G09RevC.01 23-Sep-2011
                26-Aug-2022 
 ******************************************
 %nprocshared=8
 Will use up to    8 processors via shared memory.
 %mem=1600MB
 ---------------
 #p opt hf/6-31G
 ---------------
 1/18=20,19=15,38=1/1,3;
 2/9=110,12=2,17=6,18=5,40=1/2;
 3/5=1,6=6,11=9,16=1,25=1,30=1,71=1/1,2,3;
 4//1;
 5/5=2,38=5/2;
 6/7=2,8=2,9=2,10=2,28=1/1;
 7//1,2,3,16;
 1/18=20,19=15/3(2);
 2/9=110/2;
 99//99;
 2/9=110/2;
 3/5=1,6=6,11=9,16=1,25=1,30=1,71=1/1,2,3;
 4/5=5,16=3/1;
 5/5=2,38=5/2;
 7//1,2,3,16;
 1/18=20,19=15/3(-5);
 2/9=110/2;
 6/7=2,8=2,9=2,10=2,19=2,28=1/1;
 99/9=1/99;
 Leave Link    1 at Fri Aug 26 16:10:19 2022, MaxMem=  209715200 cpu:       0.1
 (Enter /opt/gaussian/l101.exe)
 ---------
 Mol12.out
 ---------
 Charge =  0 Multiplicity = 1
 Symbolic Z-Matrix:
 C                     14.4294  -10.1313  -4.001 
 S                     13.8156  -10.6644  -2.5102 
 O                     14.2576  -11.9841  -2.3134 
 O                     12.4225  -10.45    -2.4922 
 N                     14.4765  -9.6287   -1.4404 
 C                     15.8276  -9.4954   -1.0841 
 C                     16.28    -8.317    -0.4505 
 C                     17.6096  -8.1679   -0.0826 
 C                     18.5472  -9.1887   -0.3437 
 C                     18.0997  -10.3579  -0.9925 
 C                     16.7657  -10.518   -1.3418 
 N                     19.9006  -9.0567    0.0696 
 C                     20.5782  -10.2516   0.5186 
 C                     21.3938  -10.9917  -0.4864 
 C                     21.6575  -10.5858  -1.8347 
 C                     22.4481  -11.505   -2.4911 
 S                     22.8437  -12.7919  -1.5081 
 C                     22.0049  -12.2006  -0.2002 
 C                     20.6003  -7.8633   -0.1399 
 O                     20.0432  -6.8596   -0.6125 
 C                     22.08    -7.8485    0.2866 
 N                     22.797   -6.6453   -0.0376 
 N                     22.6461  -5.4563    0.6345 
 N                     23.1433  -4.4897    0.0074 
 C                     23.6481  -4.9482   -1.253 
 C                     24.2948  -4.3157   -2.3142 
 C                     24.6628  -5.1018   -3.4013 
 C                     24.4029  -6.4818   -3.44 
 C                     23.7645  -7.1437   -2.3963 
 C                     23.3868  -6.3721   -1.2968 
 H                     15.5451  -10.0703  -4.0325 
 H                     14.1348  -10.838   -4.8184 
 H                     14.0455  -9.1272   -4.3054 
 H                     13.8872  -8.9665   -0.9822 
 H                     15.5775  -7.4969   -0.2337 
 H                     17.9326  -7.2281    0.3964 
 H                     18.8097  -11.1679  -1.2302 
 H                     16.4535  -11.4677  -1.8102 
 H                     21.253   -9.9729    1.3833 
 H                     19.7979  -10.9617   0.9283 
 H                     21.2646  -9.6673   -2.2776 
 H                     22.7805  -11.4234  -3.525 
 H                     21.95    -12.719    0.7563 
 H                     22.1202  -7.9906    1.4064 
 H                     22.6131  -8.7037   -0.2246 
 H                     24.5029  -3.2366   -2.2871 
 H                     25.1705  -4.6325   -4.2578 
 H                     24.7135  -7.0566   -4.3264 
 H                     23.5616  -8.2223   -2.4383 
 
 NAtoms=     49 NQM=        0 NQMF=       0 NMMI=     49 NMMIF=      0
                NMic=       0 NMicF=      0.
                    Isotopes and Nuclear Properties:
 (Nuclear quadrupole moments (NQMom) in fm**2, nuclear magnetic moments (NMagM)
  in nuclear magnetons)

  Atom         1           2           3           4           5           6           7           8           9          10
 IAtWgt=          12          32          16          16          14          12          12          12          12          12
 AtmWgt=  12.0000000  31.9720718  15.9949146  15.9949146  14.0030740  12.0000000  12.0000000  12.0000000  12.0000000  12.0000000
 NucSpn=           0           0           0           0           2           0           0           0           0           0
 AtZEff=   0.0000000   0.0000000   0.0000000   0.0000000   0.0000000   0.0000000   0.0000000   0.0000000   0.0000000   0.0000000
 NQMom=    0.0000000   0.0000000   0.0000000   0.0000000   2.0440000   0.0000000   0.0000000   0.0000000   0.0000000   0.0000000
 NMagM=    0.0000000   0.0000000   0.0000000   0.0000000   0.4037610   0.0000000   0.0000000   0.0000000   0.0000000   0.0000000

  Atom        11          12          13          14          15          16          17          18          19          20
 IAtWgt=          12          14          12          12          12          12          32          12          12          16
 AtmWgt=  12.0000000  14.0030740  12.0000000  12.0000000  12.0000000  12.0000000  31.9720718  12.0000000  12.0000000  15.9949146
 NucSpn=           0           2           0           0           0           0           0           0           0           0
 AtZEff=   0.0000000   0.0000000   0.0000000   0.0000000   0.0000000   0.0000000   0.0000000   0.0000000   0.0000000   0.0000000
 NQMom=    0.0000000   2.0440000   0.0000000   0.0000000   0.0000000   0.0000000   0.0000000   0.0000000   0.0000000   0.0000000
 NMagM=    0.0000000   0.4037610   0.0000000   0.0000000   0.0000000   0.0000000   0.0000000   0.0000000   0.0000000   0.0000000

  Atom        21          22          23          24          25          26          27          28          29          30
 IAtWgt=          12          14          14          14          12          12          12          12          12          12
 AtmWgt=  12.0000000  14.0030740  14.0030740  14.0030740  12.0000000  12.0000000  12.0000000  12.0000000  12.0000000  12.0000000
 NucSpn=           0           2           2           2           0           0           0           0           0           0
 AtZEff=   0.0000000   0.0000000   0.0000000   0.0000000   0.0000000   0.0000000   0.0000000   0.0000000   0.0000000   0.0000000
 NQMom=    0.0000000   2.0440000   2.0440000   2.0440000   0.0000000   0.0000000   0.0000000   0.0000000   0.0000000   0.0000000
 NMagM=    0.0000000   0.4037610   0.4037610   0.4037610   0.0000000   0.0000000   0.0000000   0.0000000   0.0000000   0.0000000

  Atom        31          32          33          34          35          36          37          38          39          40
 IAtWgt=           1           1           1           1           1           1           1           1           1           1
 AtmWgt=   1.0078250   1.0078250   1.0078250   1.0078250   1.0078250   1.0078250   1.0078250   1.0078250   1.0078250   1.0078250
 NucSpn=           1           1           1           1           1           1           1           1           1           1
 AtZEff=   0.0000000   0.0000000   0.0000000   0.0000000   0.0000000   0.0000000   0.0000000   0.0000000   0.0000000   0.0000000
 NQMom=    0.0000000   0.0000000   0.0000000   0.0000000   0.0000000   0.0000000   0.0000000   0.0000000   0.0000000   0.0000000
 NMagM=    2.7928460   2.7928460   2.7928460   2.7928460   2.7928460   2.7928460   2.7928460   2.7928460   2.7928460   2.7928460

  Atom        41          42          43          44          45          46          47          48          49
 IAtWgt=           1           1           1           1           1           1           1           1           1
 AtmWgt=   1.0078250   1.0078250   1.0078250   1.0078250   1.0078250   1.0078250   1.0078250   1.0078250   1.0078250
 NucSpn=           1           1           1           1           1           1           1           1           1
 AtZEff=   0.0000000   0.0000000   0.0000000   0.0000000   0.0000000   0.0000000   0.0000000   0.0000000   0.0000000
 NQMom=    0.0000000   0.0000000   0.0000000   0.0000000   0.0000000   0.0000000   0.0000000   0.0000000   0.0000000
 NMagM=    2.7928460   2.7928460   2.7928460   2.7928460   2.7928460   2.7928460   2.7928460   2.7928460   2.7928460
 Leave Link  101 at Fri Aug 26 16:10:19 2022, MaxMem=  209715200 cpu:       0.8
 (Enter /opt/gaussian/l103.exe)

 GradGradGradGradGradGradGradGradGradGradGradGradGradGradGradGradGradGrad
 Berny optimization.
 Initialization pass.
                           ----------------------------
                           !    Initial Parameters    !
                           ! (Angstroms and Degrees)  !
 --------------------------                            --------------------------
 ! Name  Definition              Value          Derivative Info.                !
 --------------------------------------------------------------------------------
 ! R1    R(1,2)                  1.6981         estimate D2E/DX2                !
 ! R2    R(1,31)                 1.1178         estimate D2E/DX2                !
 ! R3    R(1,32)                 1.12           estimate D2E/DX2                !
 ! R4    R(1,33)                 1.1173         estimate D2E/DX2                !
 ! R5    R(2,3)                  1.4056         estimate D2E/DX2                !
 ! R6    R(2,4)                  1.4096         estimate D2E/DX2                !
 ! R7    R(2,5)                  1.6291         estimate D2E/DX2                !
 ! R8    R(5,6)                  1.4036         estimate D2E/DX2                !
 ! R9    R(5,34)                 0.9979         estimate D2E/DX2                !
 ! R10   R(6,7)                  1.4124         estimate D2E/DX2                !
 ! R11   R(6,11)                 1.4114         estimate D2E/DX2                !
 ! R12   R(7,8)                  1.3876         estimate D2E/DX2                !
 ! R13   R(7,35)                 1.1014         estimate D2E/DX2                !
 ! R14   R(8,9)                  1.4104         estimate D2E/DX2                !
 ! R15   R(8,36)                 1.1032         estimate D2E/DX2                !
 ! R16   R(9,10)                 1.41           estimate D2E/DX2                !
 ! R17   R(9,12)                 1.4212         estimate D2E/DX2                !
 ! R18   R(10,11)                1.3882         estimate D2E/DX2                !
 ! R19   R(10,37)                1.103          estimate D2E/DX2                !
 ! R20   R(11,38)                1.104          estimate D2E/DX2                !
 ! R21   R(12,13)                1.4452         estimate D2E/DX2                !
 ! R22   R(12,19)                1.3992         estimate D2E/DX2                !
 ! R23   R(13,14)                1.491          estimate D2E/DX2                !
 ! R24   R(13,39)                1.1317         estimate D2E/DX2                !
 ! R25   R(13,40)                1.1318         estimate D2E/DX2                !
 ! R26   R(14,15)                1.4326         estimate D2E/DX2                !
 ! R27   R(14,18)                1.3845         estimate D2E/DX2                !
 ! R28   R(15,16)                1.3787         estimate D2E/DX2                !
 ! R29   R(15,41)                1.0928         estimate D2E/DX2                !
 ! R30   R(16,17)                1.667          estimate D2E/DX2                !
 ! R31   R(16,42)                1.0891         estimate D2E/DX2                !
 ! R32   R(17,18)                1.6625         estimate D2E/DX2                !
 ! R33   R(18,43)                1.0893         estimate D2E/DX2                !
 ! R34   R(19,20)                1.2414         estimate D2E/DX2                !
 ! R35   R(19,21)                1.54           estimate D2E/DX2                !
 ! R36   R(21,22)                1.4377         estimate D2E/DX2                !
 ! R37   R(21,44)                1.1295         estimate D2E/DX2                !
 ! R38   R(21,45)                1.13           estimate D2E/DX2                !
 ! R39   R(22,23)                1.3741         estimate D2E/DX2                !
 ! R40   R(22,30)                1.4171         estimate D2E/DX2                !
 ! R41   R(23,24)                1.2549         estimate D2E/DX2                !
 ! R42   R(24,25)                1.4331         estimate D2E/DX2                !
 ! R43   R(25,26)                1.3944         estimate D2E/DX2                !
 ! R44   R(25,30)                1.4483         estimate D2E/DX2                !
 ! R45   R(26,27)                1.3911         estimate D2E/DX2                !
 ! R46   R(26,46)                1.0993         estimate D2E/DX2                !
 ! R47   R(27,28)                1.4048         estimate D2E/DX2                !
 ! R48   R(27,47)                1.1007         estimate D2E/DX2                !
 ! R49   R(28,29)                1.391          estimate D2E/DX2                !
 ! R50   R(28,48)                1.1012         estimate D2E/DX2                !
 ! R51   R(29,30)                1.3953         estimate D2E/DX2                !
 ! R52   R(29,49)                1.0983         estimate D2E/DX2                !
 ! A1    A(2,1,31)             113.7446         estimate D2E/DX2                !
 ! A2    A(2,1,32)             110.3389         estimate D2E/DX2                !
 ! A3    A(2,1,33)             113.3997         estimate D2E/DX2                !
 ! A4    A(31,1,32)            106.0461         estimate D2E/DX2                !
 ! A5    A(31,1,33)            106.633          estimate D2E/DX2                !
 ! A6    A(32,1,33)            106.1324         estimate D2E/DX2                !
 ! A7    A(1,2,3)              107.6989         estimate D2E/DX2                !
 ! A8    A(1,2,4)              108.705          estimate D2E/DX2                !
 ! A9    A(1,2,5)              103.3144         estimate D2E/DX2                !
 ! A10   A(3,2,4)              116.8585         estimate D2E/DX2                !
 ! A11   A(3,2,5)              112.172          estimate D2E/DX2                !
 ! A12   A(4,2,5)              107.2086         estimate D2E/DX2                !
 ! A13   A(2,5,6)              128.1391         estimate D2E/DX2                !
 ! A14   A(2,5,34)             118.9373         estimate D2E/DX2                !
 ! A15   A(6,5,34)             112.8847         estimate D2E/DX2                !
 ! A16   A(5,6,7)              120.0954         estimate D2E/DX2                !
 ! A17   A(5,6,11)             121.6423         estimate D2E/DX2                !
 ! A18   A(7,6,11)             118.2623         estimate D2E/DX2                !
 ! A19   A(6,7,8)              121.0326         estimate D2E/DX2                !
 ! A20   A(6,7,35)             120.3485         estimate D2E/DX2                !
 ! A21   A(8,7,35)             118.6182         estimate D2E/DX2                !
 ! A22   A(7,8,9)              120.6724         estimate D2E/DX2                !
 ! A23   A(7,8,36)             119.1577         estimate D2E/DX2                !
 ! A24   A(9,8,36)             120.1531         estimate D2E/DX2                !
 ! A25   A(8,9,10)             118.3162         estimate D2E/DX2                !
 ! A26   A(8,9,12)             120.7957         estimate D2E/DX2                !
 ! A27   A(10,9,12)            120.8662         estimate D2E/DX2                !
 ! A28   A(9,10,11)            121.089          estimate D2E/DX2                !
 ! A29   A(9,10,37)            120.2503         estimate D2E/DX2                !
 ! A30   A(11,10,37)           118.6605         estimate D2E/DX2                !
 ! A31   A(6,11,10)            120.6093         estimate D2E/DX2                !
 ! A32   A(6,11,38)            120.8481         estimate D2E/DX2                !
 ! A33   A(10,11,38)           118.5357         estimate D2E/DX2                !
 ! A34   A(9,12,13)            117.3901         estimate D2E/DX2                !
 ! A35   A(9,12,19)            120.7896         estimate D2E/DX2                !
 ! A36   A(13,12,19)           121.1493         estimate D2E/DX2                !
 ! A37   A(12,13,14)           117.2251         estimate D2E/DX2                !
 ! A38   A(12,13,39)           108.261          estimate D2E/DX2                !
 ! A39   A(12,13,40)           107.9367         estimate D2E/DX2                !
 ! A40   A(14,13,39)           108.1255         estimate D2E/DX2                !
 ! A41   A(14,13,40)           108.0414         estimate D2E/DX2                !
 ! A42   A(39,13,40)           106.7989         estimate D2E/DX2                !
 ! A43   A(13,14,15)           126.4745         estimate D2E/DX2                !
 ! A44   A(13,14,18)           122.3812         estimate D2E/DX2                !
 ! A45   A(15,14,18)           111.1443         estimate D2E/DX2                !
 ! A46   A(14,15,16)           111.392          estimate D2E/DX2                !
 ! A47   A(14,15,41)           123.6025         estimate D2E/DX2                !
 ! A48   A(16,15,41)           125.0012         estimate D2E/DX2                !
 ! A49   A(15,16,17)           111.7173         estimate D2E/DX2                !
 ! A50   A(15,16,42)           125.2426         estimate D2E/DX2                !
 ! A51   A(17,16,42)           123.0393         estimate D2E/DX2                !
 ! A52   A(16,17,18)            93.9911         estimate D2E/DX2                !
 ! A53   A(14,18,17)           111.7551         estimate D2E/DX2                !
 ! A54   A(14,18,43)           125.0858         estimate D2E/DX2                !
 ! A55   A(17,18,43)           123.1583         estimate D2E/DX2                !
 ! A56   A(12,19,20)           121.4793         estimate D2E/DX2                !
 ! A57   A(12,19,21)           116.5659         estimate D2E/DX2                !
 ! A58   A(20,19,21)           121.9276         estimate D2E/DX2                !
 ! A59   A(19,21,22)           115.137          estimate D2E/DX2                !
 ! A60   A(19,21,44)           107.9121         estimate D2E/DX2                !
 ! A61   A(19,21,45)           108.7074         estimate D2E/DX2                !
 ! A62   A(22,21,44)           108.1261         estimate D2E/DX2                !
 ! A63   A(22,21,45)           107.2228         estimate D2E/DX2                !
 ! A64   A(44,21,45)           109.664          estimate D2E/DX2                !
 ! A65   A(21,22,23)           123.9935         estimate D2E/DX2                !
 ! A66   A(21,22,30)           124.7019         estimate D2E/DX2                !
 ! A67   A(23,22,30)           108.2709         estimate D2E/DX2                !
 ! A68   A(22,23,24)           112.2446         estimate D2E/DX2                !
 ! A69   A(23,24,25)           109.4289         estimate D2E/DX2                !
 ! A70   A(24,25,26)           133.439          estimate D2E/DX2                !
 ! A71   A(24,25,30)           106.1166         estimate D2E/DX2                !
 ! A72   A(26,25,30)           120.4373         estimate D2E/DX2                !
 ! A73   A(25,26,27)           117.4572         estimate D2E/DX2                !
 ! A74   A(25,26,46)           120.9495         estimate D2E/DX2                !
 ! A75   A(27,26,46)           121.5934         estimate D2E/DX2                !
 ! A76   A(26,27,28)           121.8505         estimate D2E/DX2                !
 ! A77   A(26,27,47)           119.2857         estimate D2E/DX2                !
 ! A78   A(28,27,47)           118.8638         estimate D2E/DX2                !
 ! A79   A(27,28,29)           122.1186         estimate D2E/DX2                !
 ! A80   A(27,28,48)           118.8664         estimate D2E/DX2                !
 ! A81   A(29,28,48)           119.0149         estimate D2E/DX2                !
 ! A82   A(28,29,30)           116.8934         estimate D2E/DX2                !
 ! A83   A(28,29,49)           121.5592         estimate D2E/DX2                !
 ! A84   A(30,29,49)           121.5463         estimate D2E/DX2                !
 ! A85   A(22,30,25)           103.7542         estimate D2E/DX2                !
 ! A86   A(22,30,29)           134.931          estimate D2E/DX2                !
 ! A87   A(25,30,29)           121.242          estimate D2E/DX2                !
 ! D1    D(31,1,2,3)           -64.0857         estimate D2E/DX2                !
 ! D2    D(31,1,2,4)           168.4168         estimate D2E/DX2                !
 ! D3    D(31,1,2,5)            54.7697         estimate D2E/DX2                !
 ! D4    D(32,1,2,3)            54.9342         estimate D2E/DX2                !
 ! D5    D(32,1,2,4)           -72.5633         estimate D2E/DX2                !
 ! D6    D(32,1,2,5)           173.7897         estimate D2E/DX2                !
 ! D7    D(33,1,2,3)           173.835          estimate D2E/DX2                !
 ! D8    D(33,1,2,4)            46.3375         estimate D2E/DX2                !
 ! D9    D(33,1,2,5)           -67.3096         estimate D2E/DX2                !
 ! D10   D(1,2,5,6)            -67.1571         estimate D2E/DX2                !
 ! D11   D(1,2,5,34)           110.3987         estimate D2E/DX2                !
 ! D12   D(3,2,5,6)             48.5519         estimate D2E/DX2                !
 ! D13   D(3,2,5,34)          -133.8923         estimate D2E/DX2                !
 ! D14   D(4,2,5,6)            178.116          estimate D2E/DX2                !
 ! D15   D(4,2,5,34)            -4.3281         estimate D2E/DX2                !
 ! D16   D(2,5,6,7)            161.4978         estimate D2E/DX2                !
 ! D17   D(2,5,6,11)           -18.5349         estimate D2E/DX2                !
 ! D18   D(34,5,6,7)           -16.1805         estimate D2E/DX2                !
 ! D19   D(34,5,6,11)          163.7868         estimate D2E/DX2                !
 ! D20   D(5,6,7,8)            179.6066         estimate D2E/DX2                !
 ! D21   D(5,6,7,35)            -0.0751         estimate D2E/DX2                !
 ! D22   D(11,6,7,8)            -0.3618         estimate D2E/DX2                !
 ! D23   D(11,6,7,35)          179.9564         estimate D2E/DX2                !
 ! D24   D(5,6,11,10)          179.3406         estimate D2E/DX2                !
 ! D25   D(5,6,11,38)           -1.6272         estimate D2E/DX2                !
 ! D26   D(7,6,11,10)           -0.6915         estimate D2E/DX2                !
 ! D27   D(7,6,11,38)          178.3408         estimate D2E/DX2                !
 ! D28   D(6,7,8,9)              0.5436         estimate D2E/DX2                !
 ! D29   D(6,7,8,36)           179.0568         estimate D2E/DX2                !
 ! D30   D(35,7,8,9)          -179.7692         estimate D2E/DX2                !
 ! D31   D(35,7,8,36)           -1.2561         estimate D2E/DX2                !
 ! D32   D(7,8,9,10)             0.3138         estimate D2E/DX2                !
 ! D33   D(7,8,9,12)          -177.9981         estimate D2E/DX2                !
 ! D34   D(36,8,9,10)         -178.1846         estimate D2E/DX2                !
 ! D35   D(36,8,9,12)            3.5036         estimate D2E/DX2                !
 ! D36   D(8,9,10,11)           -1.3731         estimate D2E/DX2                !
 ! D37   D(8,9,10,37)          178.7887         estimate D2E/DX2                !
 ! D38   D(12,9,10,11)         176.9375         estimate D2E/DX2                !
 ! D39   D(12,9,10,37)          -2.9007         estimate D2E/DX2                !
 ! D40   D(8,9,12,13)          144.0021         estimate D2E/DX2                !
 ! D41   D(8,9,12,19)          -45.2802         estimate D2E/DX2                !
 ! D42   D(10,9,12,13)         -34.2665         estimate D2E/DX2                !
 ! D43   D(10,9,12,19)         136.4511         estimate D2E/DX2                !
 ! D44   D(9,10,11,6)            1.5776         estimate D2E/DX2                !
 ! D45   D(9,10,11,38)        -177.4767         estimate D2E/DX2                !
 ! D46   D(37,10,11,6)        -178.5818         estimate D2E/DX2                !
 ! D47   D(37,10,11,38)          2.364          estimate D2E/DX2                !
 ! D48   D(9,12,13,14)          94.9649         estimate D2E/DX2                !
 ! D49   D(9,12,13,39)        -142.4759         estimate D2E/DX2                !
 ! D50   D(9,12,13,40)         -27.2178         estimate D2E/DX2                !
 ! D51   D(19,12,13,14)        -75.7175         estimate D2E/DX2                !
 ! D52   D(19,12,13,39)         46.8418         estimate D2E/DX2                !
 ! D53   D(19,12,13,40)        162.0999         estimate D2E/DX2                !
 ! D54   D(9,12,19,20)           4.6099         estimate D2E/DX2                !
 ! D55   D(9,12,19,21)        -177.252          estimate D2E/DX2                !
 ! D56   D(13,12,19,20)        174.9765         estimate D2E/DX2                !
 ! D57   D(13,12,19,21)         -6.8855         estimate D2E/DX2                !
 ! D58   D(12,13,14,15)          4.9779         estimate D2E/DX2                !
 ! D59   D(12,13,14,18)       -175.0414         estimate D2E/DX2                !
 ! D60   D(39,13,14,15)       -117.651          estimate D2E/DX2                !
 ! D61   D(39,13,14,18)         62.3297         estimate D2E/DX2                !
 ! D62   D(40,13,14,15)        127.1064         estimate D2E/DX2                !
 ! D63   D(40,13,14,18)        -52.9129         estimate D2E/DX2                !
 ! D64   D(13,14,15,16)       -179.969          estimate D2E/DX2                !
 ! D65   D(13,14,15,41)         -0.688          estimate D2E/DX2                !
 ! D66   D(18,14,15,16)          0.0485         estimate D2E/DX2                !
 ! D67   D(18,14,15,41)        179.3294         estimate D2E/DX2                !
 ! D68   D(13,14,18,17)        179.9481         estimate D2E/DX2                !
 ! D69   D(13,14,18,43)          0.2665         estimate D2E/DX2                !
 ! D70   D(15,14,18,17)         -0.0686         estimate D2E/DX2                !
 ! D71   D(15,14,18,43)       -179.7502         estimate D2E/DX2                !
 ! D72   D(14,15,16,17)         -0.0075         estimate D2E/DX2                !
 ! D73   D(14,15,16,42)        179.6844         estimate D2E/DX2                !
 ! D74   D(41,15,16,17)       -179.2764         estimate D2E/DX2                !
 ! D75   D(41,15,16,42)          0.4155         estimate D2E/DX2                !
 ! D76   D(15,16,17,18)         -0.0275         estimate D2E/DX2                !
 ! D77   D(42,16,17,18)       -179.7273         estimate D2E/DX2                !
 ! D78   D(16,17,18,14)          0.0561         estimate D2E/DX2                !
 ! D79   D(16,17,18,43)        179.7449         estimate D2E/DX2                !
 ! D80   D(12,19,21,22)        175.3292         estimate D2E/DX2                !
 ! D81   D(12,19,21,44)        -63.8187         estimate D2E/DX2                !
 ! D82   D(12,19,21,45)         55.0512         estimate D2E/DX2                !
 ! D83   D(20,19,21,22)         -6.5418         estimate D2E/DX2                !
 ! D84   D(20,19,21,44)        114.3103         estimate D2E/DX2                !
 ! D85   D(20,19,21,45)       -126.8198         estimate D2E/DX2                !
 ! D86   D(19,21,22,23)         74.6066         estimate D2E/DX2                !
 ! D87   D(19,21,22,30)        -83.3522         estimate D2E/DX2                !
 ! D88   D(44,21,22,23)        -46.1287         estimate D2E/DX2                !
 ! D89   D(44,21,22,30)        155.9125         estimate D2E/DX2                !
 ! D90   D(45,21,22,23)       -164.3041         estimate D2E/DX2                !
 ! D91   D(45,21,22,30)         37.7371         estimate D2E/DX2                !
 ! D92   D(21,22,23,24)       -165.5959         estimate D2E/DX2                !
 ! D93   D(30,22,23,24)         -4.5555         estimate D2E/DX2                !
 ! D94   D(21,22,30,25)        164.7934         estimate D2E/DX2                !
 ! D95   D(21,22,30,29)        -18.4277         estimate D2E/DX2                !
 ! D96   D(23,22,30,25)          3.9201         estimate D2E/DX2                !
 ! D97   D(23,22,30,29)       -179.301          estimate D2E/DX2                !
 ! D98   D(22,23,24,25)          3.0506         estimate D2E/DX2                !
 ! D99   D(23,24,25,26)       -179.4009         estimate D2E/DX2                !
 ! D100  D(23,24,25,30)         -0.4064         estimate D2E/DX2                !
 ! D101  D(24,25,26,27)        179.276          estimate D2E/DX2                !
 ! D102  D(24,25,26,46)         -0.7401         estimate D2E/DX2                !
 ! D103  D(30,25,26,27)          0.3964         estimate D2E/DX2                !
 ! D104  D(30,25,26,46)       -179.6197         estimate D2E/DX2                !
 ! D105  D(24,25,30,22)         -2.199          estimate D2E/DX2                !
 ! D106  D(24,25,30,29)       -179.5323         estimate D2E/DX2                !
 ! D107  D(26,25,30,22)        176.9542         estimate D2E/DX2                !
 ! D108  D(26,25,30,29)         -0.3791         estimate D2E/DX2                !
 ! D109  D(25,26,27,28)         -0.197          estimate D2E/DX2                !
 ! D110  D(25,26,27,47)        179.6942         estimate D2E/DX2                !
 ! D111  D(46,26,27,28)        179.8192         estimate D2E/DX2                !
 ! D112  D(46,26,27,47)         -0.2897         estimate D2E/DX2                !
 ! D113  D(26,27,28,29)         -0.0411         estimate D2E/DX2                !
 ! D114  D(26,27,28,48)        179.8516         estimate D2E/DX2                !
 ! D115  D(47,27,28,29)       -179.9327         estimate D2E/DX2                !
 ! D116  D(47,27,28,48)         -0.04           estimate D2E/DX2                !
 ! D117  D(27,28,29,30)          0.0706         estimate D2E/DX2                !
 ! D118  D(27,28,29,49)        179.7046         estimate D2E/DX2                !
 ! D119  D(48,28,29,30)       -179.8219         estimate D2E/DX2                !
 ! D120  D(48,28,29,49)         -0.1879         estimate D2E/DX2                !
 ! D121  D(28,29,30,22)       -176.2055         estimate D2E/DX2                !
 ! D122  D(28,29,30,25)          0.1346         estimate D2E/DX2                !
 ! D123  D(49,29,30,22)          4.1605         estimate D2E/DX2                !
 ! D124  D(49,29,30,25)       -179.4994         estimate D2E/DX2                !
 --------------------------------------------------------------------------------
 Trust Radius=3.00D-01 FncErr=1.00D-07 GrdErr=1.00D-07
 Number of steps in this run=    273 maximum allowed number of steps=    294.
 GradGradGradGradGradGradGradGradGradGradGradGradGradGradGradGradGradGrad

 Leave Link  103 at Fri Aug 26 16:10:19 2022, MaxMem=  209715200 cpu:       0.1
 (Enter /opt/gaussian/l202.exe)
                          Input orientation:                          
 ---------------------------------------------------------------------
 Center     Atomic      Atomic             Coordinates (Angstroms)
 Number     Number       Type             X           Y           Z
 ---------------------------------------------------------------------
      1          6           0       14.429400  -10.131300   -4.001000
      2         16           0       13.815600  -10.664400   -2.510200
      3          8           0       14.257600  -11.984100   -2.313400
      4          8           0       12.422500  -10.450000   -2.492200
      5          7           0       14.476500   -9.628700   -1.440400
      6          6           0       15.827600   -9.495400   -1.084100
      7          6           0       16.280000   -8.317000   -0.450500
      8          6           0       17.609600   -8.167900   -0.082600
      9          6           0       18.547200   -9.188700   -0.343700
     10          6           0       18.099700  -10.357900   -0.992500
     11          6           0       16.765700  -10.518000   -1.341800
     12          7           0       19.900600   -9.056700    0.069600
     13          6           0       20.578200  -10.251600    0.518600
     14          6           0       21.393800  -10.991700   -0.486400
     15          6           0       21.657500  -10.585800   -1.834700
     16          6           0       22.448100  -11.505000   -2.491100
     17         16           0       22.843700  -12.791900   -1.508100
     18          6           0       22.004900  -12.200600   -0.200200
     19          6           0       20.600300   -7.863300   -0.139900
     20          8           0       20.043200   -6.859600   -0.612500
     21          6           0       22.080000   -7.848500    0.286600
     22          7           0       22.797000   -6.645300   -0.037600
     23          7           0       22.646100   -5.456300    0.634500
     24          7           0       23.143300   -4.489700    0.007400
     25          6           0       23.648100   -4.948200   -1.253000
     26          6           0       24.294800   -4.315700   -2.314200
     27          6           0       24.662800   -5.101800   -3.401300
     28          6           0       24.402900   -6.481800   -3.440000
     29          6           0       23.764500   -7.143700   -2.396300
     30          6           0       23.386800   -6.372100   -1.296800
     31          1           0       15.545100  -10.070300   -4.032500
     32          1           0       14.134800  -10.838000   -4.818400
     33          1           0       14.045500   -9.127200   -4.305400
     34          1           0       13.887200   -8.966500   -0.982200
     35          1           0       15.577500   -7.496900   -0.233700
     36          1           0       17.932600   -7.228100    0.396400
     37          1           0       18.809700  -11.167900   -1.230200
     38          1           0       16.453500  -11.467700   -1.810200
     39          1           0       21.253000   -9.972900    1.383300
     40          1           0       19.797900  -10.961700    0.928300
     41          1           0       21.264600   -9.667300   -2.277600
     42          1           0       22.780500  -11.423400   -3.525000
     43          1           0       21.950000  -12.719000    0.756300
     44          1           0       22.120200   -7.990600    1.406400
     45          1           0       22.613100   -8.703700   -0.224600
     46          1           0       24.502900   -3.236600   -2.287100
     47          1           0       25.170500   -4.632500   -4.257800
     48          1           0       24.713500   -7.056600   -4.326400
     49          1           0       23.561600   -8.222300   -2.438300
 ---------------------------------------------------------------------
                    Distance matrix (angstroms):
                    1          2          3          4          5
     1  C    0.000000
     2  S    1.698067   0.000000
     3  O    2.512046   1.405597   0.000000
     4  O    2.530947   1.409617   2.398546   0.000000
     5  N    2.609885   1.629090   2.521499   2.449435   0.000000
     6  C    3.296610   2.729188   3.188998   3.806404   1.403634
     7  C    4.395731   3.978180   4.583462   4.857832   2.439892
     8  C    5.415023   5.149776   5.547590   6.157935   3.714010
     9  C    5.587541   5.409201   5.485859   6.612025   4.238744
    10  C    4.751160   4.555312   4.376190   5.872664   3.722892
    11  C    3.560784   3.176426   3.063335   4.493488   2.457847
    12  N    6.903519   6.802006   6.789095   8.026586   5.659341
    13  C    7.632103   7.421374   7.139451   8.695960   6.438667
    14  C    7.848284   7.850606   7.432909   9.208740   7.114557
    15  C    7.559422   7.871332   7.546053   9.259372   7.255224
    16  C    8.274443   8.673352   8.206425  10.080956   8.256566
    17  S    9.170266   9.329365   8.661533  10.726339   8.945415
    18  C    8.724465   8.646424   8.033252  10.007010   8.051681
    19  C    7.624429   7.713406   7.869875   8.893860   6.504526
    20  O    7.328076   7.540608   7.913705   8.631298   6.272279
    21  C    9.062360   9.167971   9.222425  10.380599   7.997803
    22  N    9.893304  10.145564  10.324892  11.319499   8.949818
    23  N   10.528896  10.723394  11.030377  11.799800   9.405131
    24  N   11.127757  11.466090  11.853599  12.518336  10.179335
    25  C   10.927052  11.442620  11.781758  12.562624  10.298565
    26  C   11.575518  12.253899  12.631300  13.364611  11.197790
    27  C   11.418318  12.222861  12.522690  13.388602  11.318068
    28  C   10.635049  11.421453  11.596191  12.656023  10.603528
    29  C    9.932014  10.554095  10.668528  11.814473   9.662086
    30  C   10.083615  10.559548  10.764307  11.759002   9.487861
    31  H    1.117810   2.379395   2.876733   3.502474   2.838292
    32  H    1.119981   2.336624   2.757472   2.914399   3.604171
    33  H    1.117253   2.374570   3.489259   2.769769   2.940321
    34  H    3.280837   2.285339   3.318915   2.574144   0.997863
    35  H    4.738222   4.280164   5.118814   4.876028   2.685684
    36  H    6.327567   6.099686   6.593040   7.006130   4.591442
    37  H    5.285726   5.180053   4.749855   6.550141   4.603254
    38  H    3.268417   2.844962   2.311246   4.213051   2.725289
    39  H    8.693520   8.423327   8.163709   9.655302   7.349334
    40  H    7.335418   6.906488   6.499911   8.146053   5.975360
    41  H    7.064373   7.519037   7.380169   8.879268   6.839641
    42  H    8.463863   9.054023   8.626829  10.454776   8.747738
    43  H    9.267552   9.003325   8.314815  10.318642   8.380253
    44  H    9.642146   9.563229   9.571073  10.737463   8.319483
    45  H    9.125359   9.298619   9.216208  10.584890   8.278771
    46  H   12.326790  13.016926  13.471660  14.071648  11.920761
    47  H   12.069548  12.975811  13.301056  14.123461  12.135131
    48  H   10.738826  11.622350  11.732786  12.882086  10.942617
    49  H    9.459566  10.047564  10.036491  11.359802   9.247314
                    6          7          8          9         10
     6  C    0.000000
     7  C    1.412353   0.000000
     8  C    2.437372   1.387594   0.000000
     9  C    2.835222   2.431350   1.410425   0.000000
    10  C    2.432023   2.787534   2.421614   1.410045   0.000000
    11  C    1.411436   2.423782   2.796555   2.436593   1.388236
    12  N    4.255915   3.731810   2.462075   1.421243   2.462604
    13  C    5.070373   4.812105   3.676389   2.449138   2.904769
    14  C    5.794717   5.771158   4.738889   3.372581   3.392482
    15  C    5.978303   5.998414   5.030069   3.721416   3.663220
    16  C    7.060394   7.236909   6.352023   5.019322   4.740277
    17  S    7.763527   8.014075   7.128059   5.727023   5.356840
    18  C    6.801354   6.922390   5.966168   4.587791   4.390202
    19  C    5.131660   4.355147   3.006718   2.452231   3.633587
    20  O    4.994110   4.038803   2.813335   2.781183   4.019912
    21  C    6.609357   5.865391   4.496977   3.830677   4.876061
    22  N    7.602024   6.740650   5.406427   4.962195   6.062991
    23  N    8.109245   7.063148   5.764836   5.629269   6.880593
    24  N    8.931286   7.871644   6.645231   6.582401   7.802145
    25  C    9.047971   8.141358   6.942607   6.695360   7.753545
    26  C   10.001796   9.149907   8.031898   7.788704   8.754104
    27  C   10.135773   9.450718   8.376298   7.965691   8.746610
    28  C    9.389772   8.847970   7.762989   7.155669   7.793891
    29  C    8.381333   7.821797   6.654697   5.967865   6.662709
    30  C    8.181794   7.416567   6.170512   5.680085   6.628169
    31  H    3.017181   4.055227   4.845926   4.837052   3.981243
    32  H    4.314295   5.480499   6.452245   6.497107   5.530682
    33  H    3.699760   4.528760   5.608485   5.997012   5.378333
    34  H    2.013770   2.535754   3.911944   4.708785   4.436356
    35  H    2.186260   1.101396   2.145344   3.419562   3.888778
    36  H    3.429804   2.152680   1.103175   2.183903   3.428209
    37  H    3.422210   3.890366   3.428881   2.184496   1.103042
    38  H    2.192929   3.435956   3.899981   3.424623   2.147152
    39  H    5.979217   5.552977   4.322181   3.304369   3.966857
    40  H    4.686478   4.612065   3.689972   2.515107   2.633995
    41  H    5.569108   5.477941   4.519430   3.369464   3.484968
    42  H    7.616954   7.833184   7.013316   5.747641   5.427590
    43  H    7.159780   7.278933   6.344709   5.025143   4.843336
    44  H    6.932808   6.136982   4.753322   4.155072   5.246261
    45  H    6.885386   6.348915   5.034109   4.096456   4.867939
    46  H   10.764786   9.838681   8.757575   8.641450   9.663844
    47  H   11.000452  10.349496   9.332661   8.941322   9.666364
    48  H    9.768289   9.366703   8.349265   7.644018   8.108996
    49  H    7.954206   7.548643   6.401452   5.519555   6.040155
                   11         12         13         14         15
    11  C    0.000000
    12  N    3.735645   0.000000
    13  C    4.250554   1.445174   0.000000
    14  C    4.730265   2.506593   1.490965   0.000000
    15  C    4.917037   3.008522   2.610479   1.432552   0.000000
    16  C    5.880878   4.363612   3.758435   2.322466   1.378709
    17  S    6.491561   5.010259   3.961455   2.527212   2.525988
    18  C    5.619930   3.792753   2.520069   1.384483   2.323759
    19  C    4.816238   1.399169   2.477516   3.246012   3.376688
    20  O    4.965660   2.304961   3.615422   4.349054   4.240790
    21  C    6.166012   2.501324   2.843258   3.308792   3.488729
    22  N    7.285281   3.770341   4.270577   4.589290   4.478344
    23  N    8.006602   4.562868   5.223461   5.784922   5.778066
    24  N    8.878881   5.601470   6.327761   6.751340   6.539371
    25  C    8.854264   5.716013   6.378785   6.495647   6.006946
    26  C    9.803134   6.889744   7.554653   7.505040   6.819049
    27  C    9.794945   7.096966   7.653105   7.339886   6.446729
    28  C    8.889329   6.262436   6.671599   6.173948   5.192016
    29  C    7.840987   4.966886   5.320544   4.906632   4.074665
    30  C    7.812137   4.607355   5.121956   5.096028   4.586402
    31  H    2.988338   6.068360   6.788039   6.901528   6.515942
    32  H    4.371588   7.765953   8.387183   8.454758   8.096733
    33  H    4.256376   7.309432   8.198257   8.488736   8.134766
    34  H    3.289715   6.105358   6.976630   7.790783   7.982885
    35  H    3.430270   4.605883   5.758587   6.790201   7.005063
    36  H    3.899543   2.706215   4.019413   5.188827   5.488792
    37  H    2.147734   2.708636   2.650566   2.694783   2.968876
    38  H    1.103992   4.607501   4.890333   5.136690   5.278254
    39  H    5.278178   2.096239   1.131696   2.133906   3.300726
    40  H    3.813720   2.092113   1.131797   2.132879   3.351654
    41  H    4.673277   2.782566   2.937905   2.231395   1.092782
    42  H    6.462502   5.178440   4.751204   3.367847   2.195408
    43  H    6.010274   4.252533   2.833090   2.199370   3.368884
    44  H    6.527712   2.801826   2.877164   3.621733   4.177785
    45  H    6.223496   2.751149   2.662547   2.605797   2.654787
    46  H   10.666613   7.785163   8.513839   8.546964   7.893777
    47  H   10.666903   8.128455   8.687779   8.302189   7.324914
    48  H    9.168241   6.818301   7.126202   6.422696   5.291782
    49  H    7.256501   4.515386   4.664975   4.022294   3.094521
                   16         17         18         19         20
    16  C    0.000000
    17  S    1.667003   0.000000
    18  C    2.434853   1.662475   0.000000
    19  C    4.712164   5.585330   4.559464   0.000000
    20  O    5.558095   6.620958   5.704782   1.241421   0.000000
    21  C    4.606637   5.314263   4.379885   1.540011   2.436156
    22  N    5.455096   6.320225   5.613842   2.513858   2.821320
    23  N    6.811413   7.644659   6.825939   3.252482   3.209260
    24  N    7.479321   8.444704   7.797245   4.227260   3.951117
    25  C    6.779714   7.888965   7.510379   4.361867   4.130254
    26  C    7.424798   8.637213   8.478460   5.564385   5.238637
    27  C    6.836251   8.125944   8.228270   5.896314   5.675207
    28  C    5.473042   6.780907   6.996526   5.221012   5.210036
    29  C    4.556625   5.791281   5.787166   3.952382   4.136512
    30  C    5.352959   6.446196   6.089630   3.365513   3.447547
    31  H    7.217041   8.188361   7.807286   6.751165   6.499069
    32  H    8.658647   9.519493   9.226209   8.517035   8.272028
    33  H    8.919042   9.932937   9.468395   7.868560   7.399454
    34  H    9.055925   9.753417   8.773140   6.855088   6.517058
    35  H    8.268365   9.080682   7.964759   5.037020   4.526822
    36  H    6.857060   7.661716   6.454868   2.794230   2.368186
    37  H    3.865418   4.357495   3.512360   3.913487   4.523773
    38  H    6.033262   6.532949   5.826430   5.742608   5.962803
    39  H    4.334348   4.340194   2.834691   2.682642   3.890947
    40  H    4.360164   4.308431   2.771143   3.374164   4.388788
    41  H    2.196223   3.584524   3.358756   2.874973   3.485334
    42  H    1.089081   2.438170   3.501413   5.374615   6.066608
    43  H    3.502500   2.435472   1.089332   5.118856   6.312057
    44  H    5.258235   5.663060   4.507611   2.171945   3.109509
    45  H    3.607150   4.291145   3.549481   2.182844   3.186779
    46  H    8.522339   9.729519   9.536690   6.422391   5.984926
    47  H    7.600260   8.919117   9.152119   6.948518   6.673634
    48  H    5.318705   6.658276   7.129009   5.924184   5.970223
    49  H    3.466813   4.718251   4.822787   3.765743   4.191615
                   21         22         23         24         25
    21  C    0.000000
    22  N    1.437666   0.000000
    23  N    2.482765   1.374122   0.000000
    24  N    3.534133   2.183703   1.254902   0.000000
    25  C    3.638825   2.254266   2.196549   1.433057   0.000000
    26  C    4.914283   3.585157   3.565671   2.597317   1.394426
    27  C    5.274071   4.144645   4.525531   3.781902   2.380841
    28  C    4.599052   3.765896   4.554069   4.176077   2.775720
    29  C    3.245341   2.597677   3.644707   3.634196   2.478085
    30  C    2.528762   1.417070   2.262133   2.302968   1.448340
    31  H    8.142232   8.959905   9.669234  10.256536   9.980989
    32  H    9.905773  10.745627  11.451596  12.030891  11.743283
    33  H    9.342094  10.048020  10.575842  11.084972  10.908305
    34  H    8.365510   9.255527   9.573586  10.329397  10.559130
    35  H    6.532751   7.272198   7.408301   8.145103   8.524637
    36  H    4.194983   4.918374   5.041136   5.899284   6.370668
    37  H    4.900404   6.146118   7.128636   8.056680   7.880057
    38  H    7.010897   8.163188   8.970049   9.836136   9.725051
    39  H    2.529774   3.933931   4.785510   5.960857   6.159074
    40  H    3.913026   5.344050   6.205481   7.343469   7.466210
    41  H    3.247773   4.061814   5.302960   5.963076   5.385237
    42  H    5.272467   5.915443   7.275011   7.790101   6.916858
    43  H    4.894823   6.183649   7.297000   8.349024   8.204033
    44  H    1.129496   2.086391   2.700940   3.906435   4.320079
    45  H    1.129995   2.075042   3.359278   4.253555   4.028972
    46  H    5.810680   4.426012   4.112240   2.946778   2.174769
    47  H    6.367528   5.243563   5.566493   4.724602   3.383222
    48  H    5.370493   4.715501   5.607640   5.276014   3.876366
    49  H    3.124091   2.972356   4.234501   4.482045   3.483123
                   26         27         28         29         30
    26  C    0.000000
    27  C    1.391102   0.000000
    28  C    2.443584   1.404794   0.000000
    29  C    2.878462   2.446696   1.391034   0.000000
    30  C    2.467458   2.769613   2.374405   1.395322   0.000000
    31  H   10.612503  10.402733   9.575438   8.876974   9.091369
    32  H   12.330329  12.072736  11.238787  10.594600  10.860269
    33  H   11.496241  11.390711  10.724868  10.101381  10.193240
    34  H   11.477034  11.700492  11.081266  10.143142   9.852527
    35  H    9.509986   9.915285   9.444494   8.475173   7.961189
    36  H    7.503800   8.014940   7.559081   6.466634   5.774769
    37  H    8.843869   8.704598   7.624083   6.488761   6.629780
    38  H   10.625023  10.509467   9.524096   8.514177   8.619708
    39  H    7.411340   7.631956   6.736013   5.347652   4.970090
    40  H    8.654781   8.760771   7.769014   6.431485   6.236642
    41  H    6.150047   5.801229   4.620337   3.554173   4.040303
    42  H    7.367397   6.597043   5.201809   4.534099   5.554107
    43  H    9.248865   9.092121   7.907485   6.656971   6.823691
    44  H    5.663624   6.158243   5.565500   4.228651   3.395749
    45  H    5.142868   5.221722   4.298723   2.911289   2.680407
    46  H    1.099317   2.178527   3.445359   3.977762   3.472425
    47  H    2.155178   1.100724   2.162849   3.427557   3.869795
    48  H    3.425900   2.163244   1.101169   2.152550   3.377447
    49  H    3.976746   3.446379   2.177276   1.098322   2.181013
                   31         32         33         34         35
    31  H    0.000000
    32  H    1.787722   0.000000
    33  H    1.792404   1.788290   0.000000
    34  H    3.642985   4.275541   3.330847   0.000000
    35  H    4.588499   5.853529   4.645820   2.361586   0.000000
    36  H    5.778703   7.392483   6.389292   4.613874   2.452708
    37  H    4.440183   5.902432   6.026517   5.398025   4.991630
    38  H    2.777865   3.849956   4.183590   3.677972   4.361190
    39  H    7.868958   9.480414   9.220877   7.801502   6.399732
    40  H    6.594728   8.069112   7.990439   6.524355   5.582729
    41  H    5.996229   7.658998   7.517918   7.522979   6.421158
    42  H    7.378309   8.761490   9.065417   9.570422   8.839302
    43  H    8.424426   9.782269  10.050023   9.061588   8.298143
    44  H    8.782865  10.517720   9.955767   8.627866   6.763179
    45  H    8.143975   9.876224   9.499266   8.762668   7.138355
    46  H   11.401231  13.102910  12.170863  12.133738  10.100959
    47  H   11.057520  12.673168  11.998759  12.523018  10.789987
    48  H    9.655482  11.244996  10.867109  11.490873  10.020507
    49  H    8.379788  10.068333   9.739665   9.811630   8.314585
                   36         37         38         39         40
    36  H    0.000000
    37  H    4.351684   0.000000
    38  H    5.003102   2.444986   0.000000
    39  H    4.419610   3.772018   5.955507   0.000000
    40  H    4.207378   2.382893   4.352060   1.817159   0.000000
    41  H    4.919573   3.061924   5.158157   3.673651   3.755593
    42  H    7.515321   4.593326   6.555412   5.341219   5.379679
    43  H    6.813150   4.026609   6.193883   2.901724   2.783742
    44  H    4.374643   5.292098   7.385677   2.163812   3.801196
    45  H    4.946728   4.642129   6.935020   2.458878   3.788548
    46  H    8.142609   9.820137  11.522642   8.331352   9.599635
    47  H    8.988098   9.609245  11.344461   8.699925   9.788730
    48  H    8.265280   7.832247   9.696219   7.285639   8.186868
    49  H    6.380407   5.719844   7.839146   4.795713   5.744889
                   41         42         43         44         45
    41  H    0.000000
    42  H    2.633979   0.000000
    43  H    4.357430   4.549488   0.000000
    44  H    4.137056   6.044735   4.775915   0.000000
    45  H    2.638520   4.279887   4.186227   1.847058   0.000000
    46  H    7.200040   8.457113  10.280831   6.474544   6.141208
    47  H    6.672815   7.236395  10.045113   7.257019   6.275481
    48  H    4.786256   4.842280   8.095279   6.361019   4.893811
    49  H    2.718466   3.469593   5.746567   4.112546   2.455986
                   46         47         48         49
    46  H    0.000000
    47  H    2.505571   0.000000
    48  H    4.335377   2.467755   0.000000
    49  H    5.076033   4.334259   2.500130   0.000000
 Stoichiometry    C20H19N5O3S2
 Framework group  C1[X(C20H19N5O3S2)]
 Deg. of freedom   141
 Full point group                 C1      NOp   1
 Largest Abelian subgroup         C1      NOp   1
 Largest concise Abelian subgroup C1      NOp   1
                         Standard orientation:                         
 ---------------------------------------------------------------------
 Center     Atomic      Atomic             Coordinates (Angstroms)
 Number     Number       Type             X           Y           Z
 ---------------------------------------------------------------------
      1          6           0       -5.505731   -0.977112    2.259678
      2         16           0       -6.165175   -0.705069    0.718718
      3          8           0       -6.253303    0.685142    0.530972
      4          8           0       -7.362174   -1.440473    0.602991
      5          7           0       -5.078391   -1.392816   -0.281201
      6          6           0       -3.758069   -0.990000   -0.535523
      7          6           0       -2.840342   -1.894932   -1.113119
      8          6           0       -1.532833   -1.514856   -1.380292
      9          6           0       -1.083889   -0.214316   -1.069896
     10          6           0       -1.994689    0.683844   -0.476620
     11          6           0       -3.309107    0.312432   -0.228513
     12          7           0        0.242279    0.191248   -1.380912
     13          6           0        0.437679    1.560231   -1.800711
     14          6           0        0.827511    2.546124   -0.752367
     15          6           0        1.126513    2.257894    0.618664
     16          6           0        1.450133    3.403379    1.314346
     17         16           0        1.390362    4.754542    0.339827
     18          6           0        0.944272    3.900458   -1.014930
     19          6           0        1.330610   -0.641822   -1.099480
     20          8           0        1.170494   -1.788195   -0.650797
     21          6           0        2.728679   -0.079238   -1.416553
     22          7           0        3.828185   -0.915998   -1.019306
     23          7           0        4.198081   -2.063184   -1.679118
     24          7           0        4.981687   -2.770081   -1.000121
     25          6           0        5.175405   -2.166891    0.285293
     26          6           0        5.935350   -2.512934    1.402056
     27          6           0        5.889737   -1.658375    2.498784
     28          6           0        5.115410   -0.486268    2.493578
     29          6           0        4.350454   -0.110105    1.394341
     30          6           0        4.382474   -0.954891    0.284280
     31          1           0       -4.458565   -0.602990    2.373585
     32          1           0       -6.109996   -0.448481    3.040556
     33          1           0       -5.493935   -2.055033    2.553279
     34          1           0       -5.330776   -2.225827   -0.769182
     35          1           0       -3.153821   -2.920093   -1.365799
     36          1           0       -0.837638   -2.251457   -1.817460
     37          1           0       -1.671967    1.702343   -0.202369
     38          1           0       -3.997404    1.062458    0.198694
     39          1           0        1.229939    1.573721   -2.608719
     40          1           0       -0.523431    1.918713   -2.278960
     41          1           0        1.086722    1.253848    1.048177
     42          1           0        1.710524    3.444452    2.371042
     43          1           0        0.764782    4.368525   -1.982060
     44          1           0        2.793956    0.080345   -2.532811
     45          1           0        2.850982    0.909482   -0.883295
     46          1           0        6.545084   -3.427628    1.409635
     47          1           0        6.474089   -1.905175    3.398348
     48          1           0        5.113441    0.153557    3.389788
     49          1           0        3.744590    0.805962    1.402009
 ---------------------------------------------------------------------
 Rotational constants (GHZ):      0.1979426      0.0642892      0.0555406
 Leave Link  202 at Fri Aug 26 16:10:19 2022, MaxMem=  209715200 cpu:       0.0
 (Enter /opt/gaussian/l301.exe)
 Standard basis: 6-31G (6D, 7F)
 Ernie: Thresh=  0.10000D-02 Tol=  0.10000D-05 Strict=F.
 There are   316 symmetry adapted basis functions of A   symmetry.
 Integral buffers will be    131072 words long.
 Raffenetti 1 integral format.
 Two-electron integral symmetry is turned on.
   316 basis functions,   784 primitive gaussians,   316 cartesian basis functions
   115 alpha electrons      115 beta electrons
       nuclear repulsion energy      3110.4387926648 Hartrees.



 Warning!  S  atom    2 may be hypervalent but has no d functions.
 Warning!  S  atom   17 may be hypervalent but has no d functions.



 IExCor=    0 DFT=F Ex=HF Corr=None ExCW=0 ScaHFX=  1.000000
 ScaDFX=  1.000000  1.000000  1.000000  1.000000 ScalE2=  1.000000  1.000000
 IRadAn=      0 IRanWt=     -1 IRanGd=            0 ICorTp=0
 NAtoms=   49 NActive=   49 NUniq=   49 SFac= 1.00D+00 NAtFMM=   60 NAOKFM=F Big=F
 Leave Link  301 at Fri Aug 26 16:10:19 2022, MaxMem=  209715200 cpu:       0.2
 (Enter /opt/gaussian/l302.exe)
 NPDir=0 NMtPBC=     1 NCelOv=     1 NCel=       1 NClECP=     1 NCelD=      1
         NCelK=      1 NCelE2=     1 NClLst=     1 CellRange=     0.0.
 One-electron integrals computed using PRISM.
 NBasis=   316 RedAO= T  NBF=   316
 NBsUse=   316 1.00D-06 NBFU=   316
 Leave Link  302 at Fri Aug 26 16:10:20 2022, MaxMem=  209715200 cpu:       1.8
 (Enter /opt/gaussian/l303.exe)
 DipDrv:  MaxL=1.
 Leave Link  303 at Fri Aug 26 16:10:20 2022, MaxMem=  209715200 cpu:       0.4
 (Enter /opt/gaussian/l401.exe)
 Harris functional with IExCor=  205 diagonalized for initial guess.
 ExpMin= 1.17D-01 ExpMax= 2.19D+04 ExpMxC= 3.30D+03 IAcc=1 IRadAn=         1 AccDes= 0.00D+00
 HarFok:  IExCor=  205 AccDes= 0.00D+00 IRadAn=         1 IDoV= 1
 ScaDFX=  1.000000  1.000000  1.000000  1.000000
 FoFCou: FMM=F IPFlag=           0 FMFlag=      100000 FMFlg1=           0
         NFxFlg=           0 DoJE=T BraDBF=F KetDBF=T FulRan=T
         Omega=  0.000000  0.000000  1.000000  0.000000  0.000000 ICntrl=     500 IOpCl=  0
         NMat0=    1 NMatS0=    1 NMatT0=    0 NMatD0=    1 NMtDS0=    0 NMtDT0=    0
         I1Cent=           4 NGrid=           0.
 Petite list used in FoFCou.
 Harris En= -2060.14639743622    
 Initial guess orbital symmetries:
       Occupied  (A) (A) (A) (A) (A) (A) (A) (A) (A) (A) (A) (A)
                 (A) (A) (A) (A) (A) (A) (A) (A) (A) (A) (A) (A)
                 (A) (A) (A) (A) (A) (A) (A) (A) (A) (A) (A) (A)
                 (A) (A) (A) (A) (A) (A) (A) (A) (A) (A) (A) (A)
                 (A) (A) (A) (A) (A) (A) (A) (A) (A) (A) (A) (A)
                 (A) (A) (A) (A) (A) (A) (A) (A) (A) (A) (A) (A)
                 (A) (A) (A) (A) (A) (A) (A) (A) (A) (A) (A) (A)
                 (A) (A) (A) (A) (A) (A) (A) (A) (A) (A) (A) (A)
                 (A) (A) (A) (A) (A) (A) (A) (A) (A) (A) (A) (A)
                 (A) (A) (A) (A) (A) (A) (A)
       Virtual   (A) (A) (A) (A) (A) (A) (A) (A) (A) (A) (A) (A)
                 (A) (A) (A) (A) (A) (A) (A) (A) (A) (A) (A) (A)
                 (A) (A) (A) (A) (A) (A) (A) (A) (A) (A) (A) (A)
                 (A) (A) (A) (A) (A) (A) (A) (A) (A) (A) (A) (A)
                 (A) (A) (A) (A) (A) (A) (A) (A) (A) (A) (A) (A)
                 (A) (A) (A) (A) (A) (A) (A) (A) (A) (A) (A) (A)
                 (A) (A) (A) (A) (A) (A) (A) (A) (A) (A) (A) (A)
                 (A) (A) (A) (A) (A) (A) (A) (A) (A) (A) (A) (A)
                 (A) (A) (A) (A) (A) (A) (A) (A) (A) (A) (A) (A)
                 (A) (A) (A) (A) (A) (A) (A) (A) (A) (A) (A) (A)
                 (A) (A) (A) (A) (A) (A) (A) (A) (A) (A) (A) (A)
                 (A) (A) (A) (A) (A) (A) (A) (A) (A) (A) (A) (A)
                 (A) (A) (A) (A) (A) (A) (A) (A) (A) (A) (A) (A)
                 (A) (A) (A) (A) (A) (A) (A) (A) (A) (A) (A) (A)
                 (A) (A) (A) (A) (A) (A) (A) (A) (A) (A) (A) (A)
                 (A) (A) (A) (A) (A) (A) (A) (A) (A) (A) (A) (A)
                 (A) (A) (A) (A) (A) (A) (A) (A) (A)
 The electronic state of the initial guess is 1-A.
 Leave Link  401 at Fri Aug 26 16:10:20 2022, MaxMem=  209715200 cpu:       4.4
 (Enter /opt/gaussian/l502.exe)
 Closed shell SCF:
 Requested convergence on RMS density matrix=1.00D-08 within 128 cycles.
 Requested convergence on MAX density matrix=1.00D-06.
 Requested convergence on             energy=1.00D-06.
 No special actions if energy rises.
 Using DIIS extrapolation, IDIIS=  1040.
 Integral symmetry usage will be decided dynamically.
 IEnd=      322682 IEndB=      322682 NGot=   209715200 MDV=   209509331
 LenX=   209509331 LenY=   209409034
 Fock matrices will be formed incrementally for  20 cycles.
 Integral accuracy reduced to 1.0D-05 until final iterations.

 Cycle   1  Pass 0  IDiag  1:
 FoFCou: FMM=F IPFlag=           0 FMFlag=      100000 FMFlg1=           0
         NFxFlg=           0 DoJE=F BraDBF=F KetDBF=F FulRan=T
         Omega=  0.000000  0.000000  1.000000  0.000000  0.000000 ICntrl=       0 IOpCl=  0
         NMat0=    1 NMatS0=    1 NMatT0=    0 NMatD0=    1 NMtDS0=    0 NMtDT0=    0
         I1Cent=           0 NGrid=           0.
 Symmetry not used in FoFCou.
 E= -2058.11525880930    
 DIIS: error= 4.60D-02 at cycle   1 NSaved=   1.
 NSaved= 1 IEnMin= 1 EnMin= -2058.11525880930     IErMin= 1 ErrMin= 4.60D-02
 ErrMax= 4.60D-02 EMaxC= 1.00D-01 BMatC= 1.33D+00 BMatP= 1.33D+00
 IDIUse=3 WtCom= 5.40D-01 WtEn= 4.60D-01
 Coeff-Com:  0.100D+01
 Coeff-En:   0.100D+01
 Coeff:      0.100D+01
 Gap=     0.456 Goal=   None    Shift=    0.000
 GapD=    0.456 DampG=2.000 DampE=0.500 DampFc=1.0000 IDamp=-1.
 RMSDP=6.82D-03 MaxDP=2.85D-01              OVMax= 1.98D-01

 Cycle   2  Pass 0  IDiag  1:
 RMSU=  4.82D-03    CP:  9.93D-01
 E= -2058.94869782609     Delta-E=       -0.833439016790 Rises=F Damp=F
 DIIS: error= 2.46D-02 at cycle   2 NSaved=   2.
 NSaved= 2 IEnMin= 2 EnMin= -2058.94869782609     IErMin= 2 ErrMin= 2.46D-02
 ErrMax= 2.46D-02 EMaxC= 1.00D-01 BMatC= 2.89D-01 BMatP= 1.33D+00
 IDIUse=3 WtCom= 7.54D-01 WtEn= 2.46D-01
 Coeff-Com:  0.283D+00 0.717D+00
 Coeff-En:   0.000D+00 0.100D+01
 Coeff:      0.213D+00 0.787D+00
 Gap=     0.478 Goal=   None    Shift=    0.000
 RMSDP=3.16D-03 MaxDP=1.07D-01 DE=-8.33D-01 OVMax= 9.34D-02

 Cycle   3  Pass 0  IDiag  1:
 RMSU=  1.72D-03    CP:  9.88D-01  7.05D-01
 E= -2059.18399847557     Delta-E=       -0.235300649471 Rises=F Damp=F
 DIIS: error= 9.68D-03 at cycle   3 NSaved=   3.
 NSaved= 3 IEnMin= 3 EnMin= -2059.18399847557     IErMin= 3 ErrMin= 9.68D-03
 ErrMax= 9.68D-03 EMaxC= 1.00D-01 BMatC= 3.33D-02 BMatP= 2.89D-01
 IDIUse=3 WtCom= 9.03D-01 WtEn= 9.68D-02
 Coeff-Com:  0.674D-02 0.242D+00 0.751D+00
 Coeff-En:   0.000D+00 0.000D+00 0.100D+01
 Coeff:      0.608D-02 0.218D+00 0.775D+00
 Gap=     0.409 Goal=   None    Shift=    0.000
 RMSDP=8.12D-04 MaxDP=2.82D-02 DE=-2.35D-01 OVMax= 3.21D-02

 Cycle   4  Pass 0  IDiag  1:
 RMSU=  3.57D-04    CP:  9.89D-01  7.90D-01  8.93D-01
 E= -2059.21378210483     Delta-E=       -0.029783629262 Rises=F Damp=F
 DIIS: error= 3.19D-03 at cycle   4 NSaved=   4.
 NSaved= 4 IEnMin= 4 EnMin= -2059.21378210483     IErMin= 4 ErrMin= 3.19D-03
 ErrMax= 3.19D-03 EMaxC= 1.00D-01 BMatC= 2.56D-03 BMatP= 3.33D-02
 IDIUse=3 WtCom= 9.68D-01 WtEn= 3.19D-02
 Coeff-Com: -0.144D-01 0.196D-01 0.259D+00 0.735D+00
 Coeff-En:   0.000D+00 0.000D+00 0.000D+00 0.100D+01
 Coeff:     -0.139D-01 0.190D-01 0.251D+00 0.744D+00
 Gap=     0.401 Goal=   None    Shift=    0.000
 RMSDP=2.56D-04 MaxDP=8.93D-03 DE=-2.98D-02 OVMax= 9.70D-03

 Cycle   5  Pass 0  IDiag  1:
 RMSU=  1.35D-04    CP:  9.88D-01  7.85D-01  9.52D-01  8.39D-01
 E= -2059.21646812687     Delta-E=       -0.002686022042 Rises=F Damp=F
 DIIS: error= 1.10D-03 at cycle   5 NSaved=   5.
 NSaved= 5 IEnMin= 5 EnMin= -2059.21646812687     IErMin= 5 ErrMin= 1.10D-03
 ErrMax= 1.10D-03 EMaxC= 1.00D-01 BMatC= 1.57D-04 BMatP= 2.56D-03
 IDIUse=3 WtCom= 9.89D-01 WtEn= 1.10D-02
 Coeff-Com: -0.176D-02-0.173D-01-0.284D-01 0.824D-01 0.965D+00
 Coeff-En:   0.000D+00 0.000D+00 0.000D+00 0.000D+00 0.100D+01
 Coeff:     -0.174D-02-0.171D-01-0.280D-01 0.815D-01 0.965D+00
 Gap=     0.402 Goal=   None    Shift=    0.000
 RMSDP=1.08D-04 MaxDP=4.78D-03 DE=-2.69D-03 OVMax= 5.91D-03

 Cycle   6  Pass 0  IDiag  1:
 RMSU=  5.31D-05    CP:  9.88D-01  7.84D-01  9.75D-01  9.25D-01  1.16D+00
 E= -2059.21688125385     Delta-E=       -0.000413126982 Rises=F Damp=F
 DIIS: error= 4.89D-04 at cycle   6 NSaved=   6.
 NSaved= 6 IEnMin= 6 EnMin= -2059.21688125385     IErMin= 6 ErrMin= 4.89D-04
 ErrMax= 4.89D-04 EMaxC= 1.00D-01 BMatC= 4.56D-05 BMatP= 1.57D-04
 IDIUse=3 WtCom= 9.95D-01 WtEn= 4.89D-03
 Coeff-Com:  0.289D-02-0.980D-02-0.665D-01-0.165D+00 0.249D+00 0.989D+00
 Coeff-En:   0.000D+00 0.000D+00 0.000D+00 0.000D+00 0.000D+00 0.100D+01
 Coeff:      0.288D-02-0.976D-02-0.661D-01-0.164D+00 0.248D+00 0.989D+00
 Gap=     0.402 Goal=   None    Shift=    0.000
 RMSDP=7.01D-05 MaxDP=2.82D-03 DE=-4.13D-04 OVMax= 5.60D-03

 Cycle   7  Pass 0  IDiag  1:
 RMSU=  2.03D-05    CP:  9.88D-01  7.83D-01  9.86D-01  9.54D-01  1.44D+00
                    CP:  1.21D+00
 E= -2059.21701269022     Delta-E=       -0.000131436371 Rises=F Damp=F
 DIIS: error= 2.03D-04 at cycle   7 NSaved=   7.
 NSaved= 7 IEnMin= 7 EnMin= -2059.21701269022     IErMin= 7 ErrMin= 2.03D-04
 ErrMax= 2.03D-04 EMaxC= 1.00D-01 BMatC= 4.30D-06 BMatP= 4.56D-05
 IDIUse=3 WtCom= 9.98D-01 WtEn= 2.03D-03
 Coeff-Com:  0.387D-03 0.131D-02 0.479D-03-0.249D-01-0.850D-01 0.549D-01
 Coeff-Com:  0.105D+01
 Coeff-En:   0.000D+00 0.000D+00 0.000D+00 0.000D+00 0.000D+00 0.000D+00
 Coeff-En:   0.100D+01
 Coeff:      0.386D-03 0.131D-02 0.478D-03-0.249D-01-0.848D-01 0.547D-01
 Coeff:      0.105D+01
 Gap=     0.402 Goal=   None    Shift=    0.000
 RMSDP=2.25D-05 MaxDP=1.02D-03 DE=-1.31D-04 OVMax= 1.72D-03

 Cycle   8  Pass 0  IDiag  1:
 RMSU=  8.05D-06    CP:  9.88D-01  7.82D-01  9.87D-01  9.60D-01  1.50D+00
                    CP:  1.37D+00  1.27D+00
 E= -2059.21702884740     Delta-E=       -0.000016157182 Rises=F Damp=F
 DIIS: error= 6.59D-05 at cycle   8 NSaved=   8.
 NSaved= 8 IEnMin= 8 EnMin= -2059.21702884740     IErMin= 8 ErrMin= 6.59D-05
 ErrMax= 6.59D-05 EMaxC= 1.00D-01 BMatC= 1.02D-06 BMatP= 4.30D-06
 IDIUse=1 WtCom= 1.00D+00 WtEn= 0.00D+00
 Coeff-Com: -0.522D-03 0.231D-02 0.147D-01 0.279D-01-0.604D-01-0.214D+00
 Coeff-Com:  0.207D+00 0.102D+01
 Coeff:     -0.522D-03 0.231D-02 0.147D-01 0.279D-01-0.604D-01-0.214D+00
 Coeff:      0.207D+00 0.102D+01
 Gap=     0.402 Goal=   None    Shift=    0.000
 RMSDP=1.09D-05 MaxDP=4.55D-04 DE=-1.62D-05 OVMax= 7.87D-04

 Cycle   9  Pass 0  IDiag  1:
 RMSU=  3.25D-06    CP:  9.88D-01  7.82D-01  9.88D-01  9.59D-01  1.52D+00
                    CP:  1.43D+00  1.52D+00  1.13D+00
 E= -2059.21703233917     Delta-E=       -0.000003491765 Rises=F Damp=F
 DIIS: error= 2.61D-05 at cycle   9 NSaved=   9.
 NSaved= 9 IEnMin= 9 EnMin= -2059.21703233917     IErMin= 9 ErrMin= 2.61D-05
 ErrMax= 2.61D-05 EMaxC= 1.00D-01 BMatC= 1.15D-07 BMatP= 1.02D-06
 IDIUse=1 WtCom= 1.00D+00 WtEn= 0.00D+00
 Coeff-Com: -0.114D-03 0.204D-03 0.223D-02 0.586D-02 0.351D-02-0.398D-01
 Coeff-Com: -0.715D-01 0.127D+00 0.973D+00
 Coeff:     -0.114D-03 0.204D-03 0.223D-02 0.586D-02 0.351D-02-0.398D-01
 Coeff:     -0.715D-01 0.127D+00 0.973D+00
 Gap=     0.402 Goal=   None    Shift=    0.000
 RMSDP=2.91D-06 MaxDP=8.67D-05 DE=-3.49D-06 OVMax= 2.64D-04

 Initial convergence to 1.0D-05 achieved.  Increase integral accuracy.
 Cycle  10  Pass 1  IDiag  1:
 E= -2059.21703742124     Delta-E=       -0.000005082074 Rises=F Damp=F
 DIIS: error= 9.53D-05 at cycle   1 NSaved=   1.
 NSaved= 1 IEnMin= 1 EnMin= -2059.21703742124     IErMin= 1 ErrMin= 9.53D-05
 ErrMax= 9.53D-05 EMaxC= 1.00D-01 BMatC= 1.27D-06 BMatP= 1.27D-06
 IDIUse=1 WtCom= 1.00D+00 WtEn= 0.00D+00
 Coeff-Com:  0.100D+01
 Coeff:      0.100D+01
 Gap=     0.402 Goal=   None    Shift=    0.000
 RMSDP=2.91D-06 MaxDP=8.67D-05 DE=-5.08D-06 OVMax= 1.27D-04

 Cycle  11  Pass 1  IDiag  1:
 RMSU=  3.56D-05    CP:  1.00D+00
 E= -2059.21703871448     Delta-E=       -0.000001293231 Rises=F Damp=F
 DIIS: error= 1.05D-05 at cycle   2 NSaved=   2.
 NSaved= 2 IEnMin= 2 EnMin= -2059.21703871448     IErMin= 2 ErrMin= 1.05D-05
 ErrMax= 1.05D-05 EMaxC= 1.00D-01 BMatC= 1.40D-08 BMatP= 1.27D-06
 IDIUse=1 WtCom= 1.00D+00 WtEn= 0.00D+00
 Coeff-Com: -0.395D-01 0.104D+01
 Coeff:     -0.395D-01 0.104D+01
 Gap=     0.402 Goal=   None    Shift=    0.000
 RMSDP=2.84D-06 MaxDP=5.24D-05 DE=-1.29D-06 OVMax= 8.24D-05

 Cycle  12  Pass 1  IDiag  1:
 RMSU=  7.29D-07    CP:  1.00D+00  1.05D+00
 E= -2059.21703875351     Delta-E=       -0.000000039031 Rises=F Damp=F
 DIIS: error= 6.13D-06 at cycle   3 NSaved=   3.
 NSaved= 3 IEnMin= 3 EnMin= -2059.21703875351     IErMin= 3 ErrMin= 6.13D-06
 ErrMax= 6.13D-06 EMaxC= 1.00D-01 BMatC= 6.37D-09 BMatP= 1.40D-08
 IDIUse=1 WtCom= 1.00D+00 WtEn= 0.00D+00
 Coeff-Com: -0.193D-01 0.335D+00 0.684D+00
 Coeff:     -0.193D-01 0.335D+00 0.684D+00
 Gap=     0.402 Goal=   None    Shift=    0.000
 RMSDP=4.08D-07 MaxDP=9.71D-06 DE=-3.90D-08 OVMax= 3.45D-05

 Cycle  13  Pass 1  IDiag  1:
 RMSU=  2.81D-07    CP:  1.00D+00  1.05D+00  1.06D+00
 E= -2059.21703876603     Delta-E=       -0.000000012523 Rises=F Damp=F
 DIIS: error= 5.17D-06 at cycle   4 NSaved=   4.
 NSaved= 4 IEnMin= 4 EnMin= -2059.21703876603     IErMin= 4 ErrMin= 5.17D-06
 ErrMax= 5.17D-06 EMaxC= 1.00D-01 BMatC= 1.87D-09 BMatP= 6.37D-09
 IDIUse=1 WtCom= 1.00D+00 WtEn= 0.00D+00
 Coeff-Com:  0.223D-01-0.549D+00-0.218D+00 0.174D+01
 Coeff:      0.223D-01-0.549D+00-0.218D+00 0.174D+01
 Gap=     0.402 Goal=   None    Shift=    0.000
 RMSDP=6.24D-07 MaxDP=1.37D-05 DE=-1.25D-08 OVMax= 8.05D-05

 Cycle  14  Pass 1  IDiag  1:
 RMSU=  2.24D-07    CP:  1.00D+00  1.06D+00  1.46D+00  1.85D+00
 E= -2059.21703877858     Delta-E=       -0.000000012548 Rises=F Damp=F
 DIIS: error= 1.51D-06 at cycle   5 NSaved=   5.
 NSaved= 5 IEnMin= 5 EnMin= -2059.21703877858     IErMin= 5 ErrMin= 1.51D-06
 ErrMax= 1.51D-06 EMaxC= 1.00D-01 BMatC= 2.59D-10 BMatP= 1.87D-09
 IDIUse=1 WtCom= 1.00D+00 WtEn= 0.00D+00
 Coeff-Com:  0.834D-02-0.184D+00-0.177D+00 0.416D+00 0.937D+00
 Coeff:      0.834D-02-0.184D+00-0.177D+00 0.416D+00 0.937D+00
 Gap=     0.402 Goal=   None    Shift=    0.000
 RMSDP=1.98D-07 MaxDP=4.63D-06 DE=-1.25D-08 OVMax= 2.53D-05

 Cycle  15  Pass 1  IDiag  1:
 RMSU=  5.82D-08    CP:  1.00D+00  1.05D+00  1.54D+00  2.18D+00  1.29D+00
 E= -2059.21703877964     Delta-E=       -0.000000001062 Rises=F Damp=F
 DIIS: error= 4.45D-07 at cycle   6 NSaved=   6.
 NSaved= 6 IEnMin= 6 EnMin= -2059.21703877964     IErMin= 6 ErrMin= 4.45D-07
 ErrMax= 4.45D-07 EMaxC= 1.00D-01 BMatC= 3.62D-11 BMatP= 2.59D-10
 IDIUse=1 WtCom= 1.00D+00 WtEn= 0.00D+00
 Coeff-Com: -0.224D-02 0.598D-01 0.519D-03-0.218D+00 0.231D+00 0.928D+00
 Coeff:     -0.224D-02 0.598D-01 0.519D-03-0.218D+00 0.231D+00 0.928D+00
 Gap=     0.402 Goal=   None    Shift=    0.000
 RMSDP=5.51D-08 MaxDP=9.97D-07 DE=-1.06D-09 OVMax= 6.10D-06

 Cycle  16  Pass 1  IDiag  1:
 RMSU=  2.12D-08    CP:  1.00D+00  1.05D+00  1.54D+00  2.24D+00  1.41D+00
                    CP:  1.02D+00
 E= -2059.21703877978     Delta-E=       -0.000000000136 Rises=F Damp=F
 DIIS: error= 1.72D-07 at cycle   7 NSaved=   7.
 NSaved= 7 IEnMin= 7 EnMin= -2059.21703877978     IErMin= 7 ErrMin= 1.72D-07
 ErrMax= 1.72D-07 EMaxC= 1.00D-01 BMatC= 4.02D-12 BMatP= 3.62D-11
 IDIUse=1 WtCom= 1.00D+00 WtEn= 0.00D+00
 Coeff-Com: -0.849D-03 0.186D-01 0.188D-01-0.477D-01-0.840D-01-0.581D-01
 Coeff-Com:  0.115D+01
 Coeff:     -0.849D-03 0.186D-01 0.188D-01-0.477D-01-0.840D-01-0.581D-01
 Coeff:      0.115D+01
 Gap=     0.402 Goal=   None    Shift=    0.000
 RMSDP=2.17D-08 MaxDP=4.44D-07 DE=-1.36D-10 OVMax= 2.22D-06

 Cycle  17  Pass 1  IDiag  1:
 RMSU=  8.31D-09    CP:  1.00D+00  1.05D+00  1.54D+00  2.25D+00  1.43D+00
                    CP:  1.14D+00  1.41D+00
 E= -2059.21703877980     Delta-E=       -0.000000000024 Rises=F Damp=F
 DIIS: error= 1.05D-07 at cycle   8 NSaved=   8.
 NSaved= 8 IEnMin= 8 EnMin= -2059.21703877980     IErMin= 8 ErrMin= 1.05D-07
 ErrMax= 1.05D-07 EMaxC= 1.00D-01 BMatC= 1.01D-12 BMatP= 4.02D-12
 IDIUse=1 WtCom= 1.00D+00 WtEn= 0.00D+00
 Coeff-Com:  0.343D-03-0.102D-01 0.504D-02 0.415D-01-0.681D-01-0.258D+00
 Coeff-Com:  0.285D+00 0.100D+01
 Coeff:      0.343D-03-0.102D-01 0.504D-02 0.415D-01-0.681D-01-0.258D+00
 Coeff:      0.285D+00 0.100D+01
 Gap=     0.402 Goal=   None    Shift=    0.000
 RMSDP=9.62D-09 MaxDP=2.94D-07 DE=-2.36D-11 OVMax= 9.96D-07

 SCF Done:  E(RHF) =  -2059.21703878     A.U. after   17 cycles
             Convg  =    0.9618D-08             -V/T =  1.9992
 KE= 2.060819762715D+03 PE=-1.106617436041D+04 EE= 3.835698766247D+03
 Leave Link  502 at Fri Aug 26 16:11:35 2022, MaxMem=  209715200 cpu:     562.5
 (Enter /opt/gaussian/l601.exe)
 Copying SCF densities to generalized density rwf, IOpCl= 0 IROHF=0.

 **********************************************************************

            Population analysis using the SCF density.

 **********************************************************************

 Orbital symmetries:
       Occupied  (A) (A) (A) (A) (A) (A) (A) (A) (A) (A) (A) (A)
                 (A) (A) (A) (A) (A) (A) (A) (A) (A) (A) (A) (A)
                 (A) (A) (A) (A) (A) (A) (A) (A) (A) (A) (A) (A)
                 (A) (A) (A) (A) (A) (A) (A) (A) (A) (A) (A) (A)
                 (A) (A) (A) (A) (A) (A) (A) (A) (A) (A) (A) (A)
                 (A) (A) (A) (A) (A) (A) (A) (A) (A) (A) (A) (A)
                 (A) (A) (A) (A) (A) (A) (A) (A) (A) (A) (A) (A)
                 (A) (A) (A) (A) (A) (A) (A) (A) (A) (A) (A) (A)
                 (A) (A) (A) (A) (A) (A) (A) (A) (A) (A) (A) (A)
                 (A) (A) (A) (A) (A) (A) (A)
       Virtual   (A) (A) (A) (A) (A) (A) (A) (A) (A) (A) (A) (A)
                 (A) (A) (A) (A) (A) (A) (A) (A) (A) (A) (A) (A)
                 (A) (A) (A) (A) (A) (A) (A) (A) (A) (A) (A) (A)
                 (A) (A) (A) (A) (A) (A) (A) (A) (A) (A) (A) (A)
                 (A) (A) (A) (A) (A) (A) (A) (A) (A) (A) (A) (A)
                 (A) (A) (A) (A) (A) (A) (A) (A) (A) (A) (A) (A)
                 (A) (A) (A) (A) (A) (A) (A) (A) (A) (A) (A) (A)
                 (A) (A) (A) (A) (A) (A) (A) (A) (A) (A) (A) (A)
                 (A) (A) (A) (A) (A) (A) (A) (A) (A) (A) (A) (A)
                 (A) (A) (A) (A) (A) (A) (A) (A) (A) (A) (A) (A)
                 (A) (A) (A) (A) (A) (A) (A) (A) (A) (A) (A) (A)
                 (A) (A) (A) (A) (A) (A) (A) (A) (A) (A) (A) (A)
                 (A) (A) (A) (A) (A) (A) (A) (A) (A) (A) (A) (A)
                 (A) (A) (A) (A) (A) (A) (A) (A) (A) (A) (A) (A)
                 (A) (A) (A) (A) (A) (A) (A) (A) (A) (A) (A) (A)
                 (A) (A) (A) (A) (A) (A) (A) (A) (A) (A) (A) (A)
                 (A) (A) (A) (A) (A) (A) (A) (A) (A)
 The electronic state is 1-A.
 Alpha  occ. eigenvalues --  -92.27589 -92.00306 -20.56316 -20.55541 -20.55392
 Alpha  occ. eigenvalues --  -15.67736 -15.66326 -15.63411 -15.63123 -15.62831
 Alpha  occ. eigenvalues --  -11.40434 -11.33490 -11.32683 -11.32036 -11.31330
 Alpha  occ. eigenvalues --  -11.30792 -11.29997 -11.29804 -11.29209 -11.28819
 Alpha  occ. eigenvalues --  -11.28277 -11.27573 -11.27073 -11.27067 -11.26976
 Alpha  occ. eigenvalues --  -11.26908 -11.26778 -11.26550 -11.26155 -11.25756
 Alpha  occ. eigenvalues --   -9.29039  -9.02697  -6.97536  -6.97125  -6.96898
 Alpha  occ. eigenvalues --   -6.70848  -6.70675  -6.70397  -1.57110  -1.46990
 Alpha  occ. eigenvalues --   -1.41927  -1.40516  -1.30192  -1.29590  -1.25119
 Alpha  occ. eigenvalues --   -1.23454  -1.17701  -1.16678  -1.09935  -1.07330
 Alpha  occ. eigenvalues --   -1.05885  -1.05535  -1.04417  -1.03597  -1.02504
 Alpha  occ. eigenvalues --   -1.01110  -0.95321  -0.91653  -0.89185  -0.87144
 Alpha  occ. eigenvalues --   -0.85301  -0.85007  -0.81891  -0.80076  -0.78616
 Alpha  occ. eigenvalues --   -0.77090  -0.76861  -0.75370  -0.73490  -0.72548
 Alpha  occ. eigenvalues --   -0.72185  -0.71775  -0.71345  -0.69760  -0.66651
 Alpha  occ. eigenvalues --   -0.66143  -0.65915  -0.64802  -0.63858  -0.63588
 Alpha  occ. eigenvalues --   -0.62729  -0.62118  -0.61610  -0.60791  -0.60444
 Alpha  occ. eigenvalues --   -0.60324  -0.59850  -0.59172  -0.58208  -0.58127
 Alpha  occ. eigenvalues --   -0.56309  -0.55955  -0.54874  -0.54395  -0.54061
 Alpha  occ. eigenvalues --   -0.53722  -0.52197  -0.51372  -0.50433  -0.50187
 Alpha  occ. eigenvalues --   -0.50041  -0.49997  -0.48656  -0.47335  -0.47296
[...]
    39  H    0.000000   0.000000   0.000000   0.000000   0.000000   0.000003
    40  H    0.000000   0.000000   0.000000   0.000000   0.000000   0.000000
    41  H    0.000000   0.000000   0.000000   0.000000   0.000000   0.000000
    42  H    0.000000   0.000000   0.000000   0.000000   0.000000   0.000000
    43  H    0.000000   0.000000   0.000000   0.000000   0.000000   0.000000
    44  H   -0.000175  -0.000003   0.000000   0.000001   0.000033   0.003449
    45  H    0.000104  -0.000008  -0.000001  -0.000019  -0.000008   0.001193
    46  H   -0.020755   0.362213  -0.020378   0.002055   0.000023   0.003081
    47  H    0.002828  -0.020101   0.374945  -0.026187   0.002536   0.000364
    48  H    0.000470   0.002345  -0.024630   0.373830  -0.022306   0.002772
    49  H    0.000977   0.000173   0.001933  -0.016191   0.370443  -0.028883
             31         32         33         34         35         36
     1  C    0.338291   0.361153   0.335926   0.001788  -0.000062   0.000000
     2  S   -0.013435  -0.027334  -0.016957  -0.020031  -0.000040  -0.000003
     3  O    0.000890   0.001008   0.001399   0.000063   0.000002   0.000000
     4  O    0.001088   0.000060   0.001431   0.002585  -0.000001   0.000000
     5  N   -0.000586   0.002402   0.002935   0.320535   0.001400  -0.000121
     6  C    0.002190   0.000018   0.000169  -0.016051  -0.028010   0.001901
     7  C    0.000903  -0.000010   0.000021  -0.001808   0.369604  -0.014274
     8  C   -0.000005   0.000000   0.000005   0.000009  -0.014783   0.366939
     9  C   -0.000016   0.000000   0.000000   0.000015   0.001465  -0.022343
    10  C   -0.000023   0.000000   0.000000  -0.000030   0.000168   0.002241
    11  C    0.000312   0.000012   0.000005   0.000175   0.002738   0.000244
    12  N    0.000000   0.000000   0.000000   0.000000  -0.000105  -0.005616
    13  C    0.000000   0.000000   0.000000   0.000000   0.000001   0.000022
    14  C    0.000000   0.000000   0.000000   0.000000   0.000000  -0.000007
    15  C    0.000000   0.000000   0.000000   0.000000   0.000000   0.000001
    16  C    0.000000   0.000000   0.000000   0.000000   0.000000   0.000000
    17  S    0.000000   0.000000   0.000000   0.000000   0.000000   0.000000
    18  C    0.000000   0.000000   0.000000   0.000000   0.000000   0.000000
    19  C    0.000000   0.000000   0.000000   0.000000  -0.000001   0.001866
    20  O    0.000000   0.000000   0.000000   0.000000  -0.000010   0.003300
    21  C    0.000000   0.000000   0.000000   0.000000   0.000000  -0.000065
    22  N    0.000000   0.000000   0.000000   0.000000   0.000000  -0.000006
    23  N    0.000000   0.000000   0.000000   0.000000   0.000000   0.000002
    24  N    0.000000   0.000000   0.000000   0.000000   0.000000   0.000000
    25  C    0.000000   0.000000   0.000000   0.000000   0.000000   0.000000
    26  C    0.000000   0.000000   0.000000   0.000000   0.000000   0.000000
    27  C    0.000000   0.000000   0.000000   0.000000   0.000000   0.000000
    28  C    0.000000   0.000000   0.000000   0.000000   0.000000   0.000000
    29  C    0.000000   0.000000   0.000000   0.000000   0.000000   0.000000
    30  C    0.000000   0.000000   0.000000   0.000000   0.000000   0.000003
    31  H    0.451288  -0.014131  -0.015507  -0.000036   0.000013   0.000000
    32  H   -0.014131   0.433099  -0.012421  -0.000022   0.000004   0.000000
    33  H   -0.015507  -0.012421   0.457348   0.000003   0.000043   0.000000
    34  H   -0.000036  -0.000022   0.000003   0.280808   0.000286   0.000001
    35  H    0.000013   0.000004   0.000043   0.000286   0.436495   0.000033
    36  H    0.000000   0.000000   0.000000   0.000001   0.000033   0.416641
    37  H    0.000000   0.000000   0.000000   0.000001   0.000009  -0.000106
    38  H    0.000014   0.000002  -0.000005   0.000028  -0.000098   0.000005
    39  H    0.000000   0.000000   0.000000   0.000000   0.000000   0.000020
    40  H    0.000000   0.000000   0.000000   0.000000   0.000000   0.000013
    41  H    0.000000   0.000000   0.000000   0.000000   0.000000   0.000000
    42  H    0.000000   0.000000   0.000000   0.000000   0.000000   0.000000
    43  H    0.000000   0.000000   0.000000   0.000000   0.000000   0.000000
    44  H    0.000000   0.000000   0.000000   0.000000   0.000000  -0.000001
    45  H    0.000000   0.000000   0.000000   0.000000   0.000000  -0.000001
    46  H    0.000000   0.000000   0.000000   0.000000   0.000000   0.000000
    47  H    0.000000   0.000000   0.000000   0.000000   0.000000   0.000000
    48  H    0.000000   0.000000   0.000000   0.000000   0.000000   0.000000
    49  H    0.000000   0.000000   0.000000   0.000000   0.000000   0.000000
             37         38         39         40         41         42
     1  C    0.000000   0.000069   0.000000   0.000000   0.000000   0.000000
     2  S   -0.000007  -0.000921   0.000000   0.000000   0.000000   0.000000
     3  O   -0.000005   0.006751   0.000000   0.000000   0.000000   0.000000
     4  O    0.000000  -0.000019   0.000000   0.000000   0.000000   0.000000
     5  N   -0.000111  -0.003904   0.000000   0.000000   0.000000   0.000000
     6  C    0.001000  -0.020787  -0.000002  -0.000002  -0.000001   0.000000
     7  C    0.000399   0.002020  -0.000003  -0.000088  -0.000002   0.000000
     8  C    0.001957   0.000204   0.000119   0.000756  -0.000001   0.000000
     9  C   -0.030392   0.001248   0.001685   0.005239   0.000220   0.000000
    10  C    0.368505  -0.013442   0.000483  -0.002578   0.000571   0.000000
    11  C   -0.010065   0.362608   0.000014  -0.000270   0.000044   0.000000
    12  N   -0.002529  -0.000094  -0.050423  -0.047946  -0.000189   0.000002
    13  C    0.000005   0.000006   0.427810   0.427345  -0.001462  -0.000080
    14  C   -0.000129  -0.000001  -0.067717  -0.052853  -0.027922   0.000355
    15  C    0.002278  -0.000001   0.002916  -0.000638   0.375079  -0.011435
    16  C    0.000101   0.000000  -0.000169   0.000084  -0.022179   0.382718
    17  S   -0.000018   0.000000   0.000062   0.000019   0.002122  -0.016639
    18  C   -0.000025   0.000000   0.000253  -0.002838   0.006038   0.002776
    19  C    0.000161   0.000000  -0.000176   0.001211   0.000017   0.000000
    20  O    0.000005   0.000000   0.000037  -0.000058   0.000019   0.000000
    21  C    0.000006   0.000000  -0.002677   0.000303  -0.000054  -0.000001
    22  N    0.000000   0.000000   0.000067  -0.000001   0.000001   0.000000
    23  N    0.000000   0.000000  -0.000012   0.000000   0.000000   0.000000
    24  N    0.000000   0.000000   0.000000   0.000000   0.000000   0.000000
    25  C    0.000000   0.000000   0.000000   0.000000   0.000000   0.000000
    26  C    0.000000   0.000000   0.000000   0.000000   0.000000   0.000000
    27  C    0.000000   0.000000   0.000000   0.000000   0.000000   0.000000
    28  C    0.000000   0.000000   0.000000   0.000000   0.000000   0.000000
    29  C    0.000000   0.000000   0.000000   0.000000   0.000000   0.000000
    30  C    0.000000   0.000000   0.000003   0.000000   0.000000   0.000000
    31  H    0.000000   0.000014   0.000000   0.000000   0.000000   0.000000
    32  H    0.000000   0.000002   0.000000   0.000000   0.000000   0.000000
    33  H    0.000000  -0.000005   0.000000   0.000000   0.000000   0.000000
    34  H    0.000001   0.000028   0.000000   0.000000   0.000000   0.000000
    35  H    0.000009  -0.000098   0.000000   0.000000   0.000000   0.000000
    36  H   -0.000106   0.000005   0.000020   0.000013   0.000000   0.000000
    37  H    0.441341   0.000519   0.000034  -0.000463   0.000491   0.000001
    38  H    0.000519   0.386508   0.000000   0.000000  -0.000001   0.000000
    39  H    0.000034   0.000000   0.504030  -0.022380  -0.000014   0.000001
    40  H   -0.000463   0.000000  -0.022380   0.465402  -0.000083   0.000000
    41  H    0.000491  -0.000001  -0.000014  -0.000083   0.430001   0.000842
    42  H    0.000001   0.000000   0.000001   0.000000   0.000842   0.399565
    43  H    0.000000   0.000000   0.001076  -0.000018  -0.000073  -0.000014
    44  H    0.000000   0.000000   0.000719   0.000222  -0.000006   0.000000
    45  H   -0.000002   0.000000  -0.000189  -0.000011   0.000063   0.000001
    46  H    0.000000   0.000000   0.000000   0.000000   0.000000   0.000000
    47  H    0.000000   0.000000   0.000000   0.000000   0.000000   0.000000
    48  H    0.000000   0.000000   0.000000   0.000000   0.000000   0.000000
    49  H    0.000000   0.000000   0.000000   0.000000   0.000002   0.000000
             43         44         45         46         47         48
     1  C    0.000000   0.000000   0.000000   0.000000   0.000000   0.000000
     2  S    0.000000   0.000000   0.000000   0.000000   0.000000   0.000000
     3  O    0.000000   0.000000   0.000000   0.000000   0.000000   0.000000
     4  O    0.000000   0.000000   0.000000   0.000000   0.000000   0.000000
     5  N    0.000000   0.000000   0.000000   0.000000   0.000000   0.000000
     6  C    0.000000   0.000000   0.000000   0.000000   0.000000   0.000000
     7  C    0.000000   0.000000   0.000000   0.000000   0.000000   0.000000
     8  C    0.000000   0.000030  -0.000011   0.000000   0.000000   0.000000
     9  C    0.000001  -0.000057  -0.000232   0.000000   0.000000   0.000000
    10  C    0.000000  -0.000011   0.000021   0.000000   0.000000   0.000000
    11  C    0.000000   0.000000   0.000000   0.000000   0.000000   0.000000
    12  N    0.000012   0.004011   0.002978   0.000000   0.000000   0.000000
    13  C    0.001018  -0.000563  -0.001507   0.000000   0.000000   0.000000
    14  C   -0.018013  -0.001136   0.001023   0.000000   0.000000   0.000000
    15  C    0.001085   0.000014   0.002133   0.000000   0.000000   0.000000
    16  C    0.002010  -0.000024   0.000585   0.000000   0.000000   0.000000
    17  S   -0.013944  -0.000033  -0.000085   0.000000   0.000000   0.000000
    18  C    0.387664   0.000516  -0.000746   0.000000   0.000000   0.000000
    19  C   -0.000007  -0.039884  -0.050809   0.000000   0.000000   0.000000
    20  O    0.000000   0.002196   0.000993   0.000000   0.000000  -0.000001
    21  C   -0.000020   0.392154   0.402001   0.000001   0.000000   0.000001
    22  N    0.000001  -0.039909  -0.043535  -0.000108  -0.000006  -0.000102
    23  N    0.000000   0.008993   0.001424  -0.000084   0.000002   0.000001
    24  N    0.000000  -0.000002  -0.000126   0.001082  -0.000066  -0.000004
    25  C    0.000000  -0.000175   0.000104  -0.020755   0.002828   0.000470
    26  C    0.000000  -0.000003  -0.000008   0.362213  -0.020101   0.002345
    27  C    0.000000   0.000000  -0.000001  -0.020378   0.374945  -0.024630
    28  C    0.000000   0.000001  -0.000019   0.002055  -0.026187   0.373830
    29  C    0.000000   0.000033  -0.000008   0.000023   0.002536  -0.022306
    30  C    0.000000   0.003449   0.001193   0.003081   0.000364   0.002772
    31  H    0.000000   0.000000   0.000000   0.000000   0.000000   0.000000
    32  H    0.000000   0.000000   0.000000   0.000000   0.000000   0.000000
    33  H    0.000000   0.000000   0.000000   0.000000   0.000000   0.000000
    34  H    0.000000   0.000000   0.000000   0.000000   0.000000   0.000000
    35  H    0.000000   0.000000   0.000000   0.000000   0.000000   0.000000
    36  H    0.000000  -0.000001  -0.000001   0.000000   0.000000   0.000000
    37  H    0.000000   0.000000  -0.000002   0.000000   0.000000   0.000000
    38  H    0.000000   0.000000   0.000000   0.000000   0.000000   0.000000
    39  H    0.001076   0.000719  -0.000189   0.000000   0.000000   0.000000
    40  H   -0.000018   0.000222  -0.000011   0.000000   0.000000   0.000000
    41  H   -0.000073  -0.000006   0.000063   0.000000   0.000000   0.000000
    42  H   -0.000014   0.000000   0.000001   0.000000   0.000000   0.000000
    43  H    0.402487   0.000011   0.000001   0.000000   0.000000   0.000000
    44  H    0.000011   0.442471  -0.015157   0.000000   0.000000   0.000000
    45  H    0.000001  -0.015157   0.452413   0.000000   0.000000   0.000000
    46  H    0.000000   0.000000   0.000000   0.432849  -0.000109  -0.000088
    47  H    0.000000   0.000000   0.000000  -0.000109   0.461666  -0.000270
    48  H    0.000000   0.000000   0.000000  -0.000088  -0.000270   0.462611
    49  H    0.000000   0.000013   0.000409   0.000008  -0.000095  -0.000130
             49
     1  C    0.000000
     2  S    0.000000
     3  O    0.000000
     4  O    0.000000
     5  N    0.000000
     6  C    0.000000
     7  C    0.000000
     8  C    0.000000
     9  C    0.000000
    10  C    0.000000
    11  C    0.000000
    12  N    0.000004
    13  C    0.000000
    14  C    0.000000
    15  C    0.000005
    16  C    0.000001
    17  S    0.000000
    18  C    0.000000
    19  C    0.000218
    20  O    0.001862
    21  C   -0.000008
    22  N   -0.002900
    23  N    0.000003
    24  N   -0.000104
    25  C    0.000977
    26  C    0.000173
    27  C    0.001933
    28  C   -0.016191
    29  C    0.370443
    30  C   -0.028883
    31  H    0.000000
    32  H    0.000000
    33  H    0.000000
    34  H    0.000000
    35  H    0.000000
    36  H    0.000000
    37  H    0.000000
    38  H    0.000000
    39  H    0.000000
    40  H    0.000000
    41  H    0.000002
    42  H    0.000000
    43  H    0.000000
    44  H    0.000013
    45  H    0.000409
    46  H    0.000008
    47  H   -0.000095
    48  H   -0.000130
    49  H    0.440910
 Mulliken atomic charges:
              1
     1  C   -0.711785
     2  S    1.636695
     3  O   -0.723214
     4  O   -0.711947
     5  N   -1.085942
     6  C    0.206115
     7  C   -0.176208
     8  C   -0.147944
     9  C    0.326316
    10  C   -0.223309
    11  C   -0.141673
    12  N   -0.978305
    13  C   -0.097251
    14  C    0.051287
    15  C   -0.094944
    16  C   -0.557238
    17  S    0.489457
    18  C   -0.595984
    19  C    0.805242
    20  O   -0.588461
    21  C   -0.121735
    22  N   -0.882428
    23  N    0.086249
    24  N   -0.334827
    25  C   -0.021143
    26  C   -0.079858
    27  C   -0.232841
    28  C   -0.209159
    29  C   -0.055607
    30  C    0.481795
    31  H    0.248750
    32  H    0.256160
    33  H    0.245605
    34  H    0.431682
    35  H    0.230849
    36  H    0.249315
    37  H    0.227039
    38  H    0.279288
    39  H    0.204433
    40  H    0.229632
    41  H    0.236476
    42  H    0.241907
    43  H    0.236723
    44  H    0.242126
    45  H    0.247103
    46  H    0.240210
    47  H    0.204495
    48  H    0.205502
    49  H    0.231350
 Sum of Mulliken atomic charges =   0.00000
 Mulliken charges with hydrogens summed into heavy atoms:
              1
     1  C    0.038731
     2  S    1.636695
     3  O   -0.723214
     4  O   -0.711947
     5  N   -0.654260
     6  C    0.206115
     7  C    0.054641
     8  C    0.101371
     9  C    0.326316
    10  C    0.003730
    11  C    0.137615
    12  N   -0.978305
    13  C    0.336815
    14  C    0.051287
    15  C    0.141532
    16  C   -0.315332
    17  S    0.489457
    18  C   -0.359261
    19  C    0.805242
    20  O   -0.588461
    21  C    0.367495
    22  N   -0.882428
    23  N    0.086249
    24  N   -0.334827
    25  C   -0.021143
    26  C    0.160352
    27  C   -0.028346
    28  C   -0.003657
    29  C    0.175743
    30  C    0.481795
 Sum of Mulliken charges with hydrogens summed into heavy atoms =   0.00000
 Electronic spatial extent (au):  <R**2>=          19296.7371
 Charge=              0.0000 electrons
 Dipole moment (field-independent basis, Debye):
    X=              3.0124    Y=              0.8277    Z=              0.9452  Tot=              3.2638
 Quadrupole moment (field-independent basis, Debye-Ang):
   XX=           -259.6540   YY=           -179.0006   ZZ=           -186.0391
   XY=             15.6173   XZ=             24.2705   YZ=            -14.6618
 Traceless Quadrupole moment (field-independent basis, Debye-Ang):
   XX=            -51.4228   YY=             29.2306   ZZ=             22.1922
   XY=             15.6173   XZ=             24.2705   YZ=            -14.6618
 Octapole moment (field-independent basis, Debye-Ang**2):
  XXX=            445.7697  YYY=            -87.1128  ZZZ=             38.7966  XYY=            -40.1562
  XXY=            -82.8254  XXZ=             28.6506  XZZ=            -35.0900  YZZ=             14.7801
  YYZ=             29.1635  XYZ=            -13.2485
 Hexadecapole moment (field-independent basis, Debye-Ang**3):
 XXXX=         -23418.8986 YYYY=          -6929.4336 ZZZZ=          -1584.7578 XXXY=           -102.3942
 XXXZ=            523.4398 YYYX=            -65.0052 YYYZ=            -91.3155 ZZZX=            193.2786
 ZZZY=            -51.8097 XXYY=          -3643.1248 XXZZ=          -3367.5163 YYZZ=          -1230.4098
 XXYZ=           -499.9988 YYXZ=            -12.7880 ZZXY=            175.5542
 N-N= 3.060173434072D+03 E-N=-1.096804308129D+04  KE= 2.060537114648D+03
 No NMR shielding tensors so no spin-rotation constants.
 Leave Link  601 at Fri Aug 26 16:52:52 2022, MaxMem=  209715200 cpu:       1.3
 (Enter /opt/gaussian/l9999.exe)
 1\1\GINC-LQCAPF-6\FOpt\RHF\6-31G\C20H19N5O3S2\LQCAPF-6\26-Aug-2022\0\\
 #p opt hf/6-31G\\Mol12.out\\0,1\C,14.2214424727,-8.7994000133,-4.04090
 52401\S,13.8794032003,-10.2196446802,-2.9323253367\O,14.6829072857,-11
 .5219626667,-3.5320133792\O,12.2593888013,-10.3280047943,-2.6320983597
 \N,14.5337389963,-9.713477874,-1.415612622\C,15.9339990241,-9.66151548
 34,-1.1486137215\C,16.487762854,-8.4445718112,-0.7690011061\C,17.83477
 95555,-8.3496406425,-0.4709979027\C,18.6513382376,-9.4698247485,-0.583
 1186115\C,18.0982561283,-10.6815377889,-0.975400782\C,16.7423860244,-1
 0.7849986421,-1.2467885728\N,20.0473324512,-9.3892091191,-0.2569247925
 \C,20.5696277316,-10.3381688963,0.7413970657\C,21.6354033056,-11.27773
 3892,0.2278704856\C,21.6552961401,-11.832261139,-1.1112528678\C,22.671
 0077178,-12.6821322832,-1.330393358\S,23.701429655,-12.8749739699,0.11
 53951559\C,22.651905154,-11.7239482704,0.9883303424\C,20.8114846839,-8
 .4005688492,-0.8210615557\O,20.3684133086,-7.6300041409,-1.6620780176\
 C,22.2707686956,-8.2948224679,-0.4022855069\N,22.7777786635,-6.9629487
 663,-0.562932954\N,22.9218730489,-6.1743190911,0.5416053362\N,23.39357
 33284,-5.0481991945,0.1988337135\C,23.5833061008,-5.0400516728,-1.1731
 441948\C,24.0855266178,-4.04535692,-2.012937186\C,24.1646860625,-4.335
 2795988,-3.3519035259\C,23.7440052343,-5.5893403368,-3.8516861966\C,23
 .2435051054,-6.5719011409,-3.0327829665\C,23.176786649,-6.2728548853,-
 1.6689333224\H,15.2866389814,-8.6452026244,-4.0527628905\H,13.85655593
 65,-9.0766694516,-5.0150968262\H,13.6908878484,-7.9538525038,-3.641057
 0973\H,13.872801803,-9.8705388028,-0.6835505853\H,15.8565905285,-7.581
 0761267,-0.7000248363\H,18.2540513788,-7.408667861,-0.1852845682\H,18.
 7156756514,-11.5518093702,-1.0706959481\H,16.3220727303,-11.718019666,
 -1.5605192904\H,20.9384511455,-9.8012937417,1.6070518895\H,19.72094536
 58,-10.9110854508,1.0830221783\H,20.9360903356,-11.579594165,-1.862337
 9469\H,22.9035722932,-13.2155063593,-2.2241590361\H,22.8754100524,-11.
 4723282537,2.0015900521\H,22.4173157606,-8.5531550389,0.6312123695\H,2
 2.8542043689,-8.9841049275,-0.9994878555\H,24.3927198247,-3.1000728793
 ,-1.6133181567\H,24.5436416905,-3.6038195206,-4.0379422597\H,23.810361
 3492,-5.7715156405,-4.9067773968\H,22.8946007212,-7.5049338363,-3.4246
 018158\\Version=EM64L-G09RevC.01\State=1-A\HF=-2059.3799752\RMSD=8.412
 e-09\RMSF=9.182e-06\Dipole=1.2814439,-0.0350225,-0.0746926\Quadrupole=
 -19.6743629,-0.3585848,20.0329477,-26.9370569,-15.5899528,-17.8722135\
 PG=C01 [X(C20H19N5O3S2)]\\@


 HE WHO LAUGHS LAST PROBABLY DIDN'T GET THE JOKE.
 Job cpu time:  0 days  5 hours 21 minutes 26.8 seconds.
 File lengths (MBytes):  RWF=     69 Int=      0 D2E=      0 Chk=     10 Scr=      1
 Normal termination of Gaussian 09 at Fri Aug 26 16:52:52 2022.
