 Entering Gaussian System, Link 0=g09
 Input=Mol29.gjf
 Output=Mol29.log
 Initial command:
 /opt/gaussian/l1.exe /home/scr/lqcapf-6/Gau-287381.inp -scrdir=/home/scr/lqcapf-6/
 Entering Link 1 = /opt/gaussian/l1.exe PID=    287383.
  
 Copyright (c) 1988,1990,1992,1993,1995,1998,2003,2009,2011,
            Gaussian, Inc.  All Rights Reserved.
  
 This is part of the Gaussian(R) 09 program.  It is based on
 the Gaussian(R) 03 system (copyright 2003, Gaussian, Inc.),
 the Gaussian(R) 98 system (copyright 1998, Gaussian, Inc.),
 the Gaussian(R) 94 system (copyright 1995, Gaussian, Inc.),
 the Gaussian 92(TM) system (copyright 1992, Gaussian, Inc.),
 the Gaussian 90(TM) system (copyright 1990, Gaussian, Inc.),
 the Gaussian 88(TM) system (copyright 1988, Gaussian, Inc.),
 the Gaussian 86(TM) system (copyright 1986, Carnegie Mellon
 University), and the Gaussian 82(TM) system (copyright 1983,
 Carnegie Mellon University). Gaussian is a federally registered
 trademark of Gaussian, Inc.
  
 This software contains proprietary and confidential information,
 including trade secrets, belonging to Gaussian, Inc.
  
 This software is provided under written license and may be
 used, copied, transmitted, or stored only in accord with that
 written license.
  
 The following legend is applicable only to US Government
 contracts under FAR:
  
                    RESTRICTED RIGHTS LEGEND
  
 Use, reproduction and disclosure by the US Government is
 subject to restrictions as set forth in subparagraphs (a)
 and (c) of the Commercial Computer Software - Restricted
 Rights clause in FAR 52.227-19.
  
 Gaussian, Inc.
 340 Quinnipiac St., Bldg. 40, Wallingford CT 06492
  
  
 ---------------------------------------------------------------
 Warning -- This program may not be used in any manner that
 competes with the business of Gaussian, Inc. or will provide
 assistance to any competitor of Gaussian, Inc.  The licensee
 of this program is prohibited from giving any competitor of
 Gaussian, Inc. access to this program.  By using this program,
 the user acknowledges that Gaussian, Inc. is engaged in the
 business of creating and licensing software in the field of
 computational chemistry and represents and warrants to the
 licensee that it is not a competitor of Gaussian, Inc. and that
 it will not use this program in any manner prohibited above.
 ---------------------------------------------------------------
  

 Cite this work as:
 Gaussian 09, Revision C.01,
 M. J. Frisch, G. W. Trucks, H. B. Schlegel, G. E. Scuseria, 
 M. A. Robb, J. R. Cheeseman, G. Scalmani, V. Barone, B. Mennucci, 
 G. A. Petersson, H. Nakatsuji, M. Caricato, X. Li, H. P. Hratchian, 
 A. F. Izmaylov, J. Bloino, G. Zheng, J. L. Sonnenberg, M. Hada, 
 M. Ehara, K. Toyota, R. Fukuda, J. Hasegawa, M. Ishida, T. Nakajima, 
 Y. Honda, O. Kitao, H. Nakai, T. Vreven, J. A. Montgomery, Jr., 
 J. E. Peralta, F. Ogliaro, M. Bearpark, J. J. Heyd, E. Brothers, 
 K. N. Kudin, V. N. Staroverov, T. Keith, R. Kobayashi, J. Normand, 
 K. Raghavachari, A. Rendell, J. C. Burant, S. S. Iyengar, J. Tomasi, 
 M. Cossi, N. Rega, J. M. Millam, M. Klene, J. E. Knox, J. B. Cross, 
 V. Bakken, C. Adamo, J. Jaramillo, R. Gomperts, R. E. Stratmann, 
 O. Yazyev, A. J. Austin, R. Cammi, C. Pomelli, J. W. Ochterski, 
 R. L. Martin, K. Morokuma, V. G. Zakrzewski, G. A. Voth, 
 P. Salvador, J. J. Dannenberg, S. Dapprich, A. D. Daniels, 
 O. Farkas, J. B. Foresman, J. V. Ortiz, J. Cioslowski, 
 and D. J. Fox, Gaussian, Inc., Wallingford CT, 2010.
 
 ******************************************
 Gaussian 09:  EM64L-G09RevC.01 23-Sep-2011
                27-Aug-2022 
 ******************************************
 %nprocshared=8
 Will use up to    8 processors via shared memory.
 %mem=1600MB
 ---------------
 #p opt hf/6-31G
 ---------------
 1/18=20,19=15,38=1/1,3;
 2/9=110,12=2,17=6,18=5,40=1/2;
 3/5=1,6=6,11=9,16=1,25=1,30=1,71=1/1,2,3;
 4//1;
 5/5=2,38=5/2;
 6/7=2,8=2,9=2,10=2,28=1/1;
 7//1,2,3,16;
 1/18=20,19=15/3(2);
 2/9=110/2;
 99//99;
 2/9=110/2;
 3/5=1,6=6,11=9,16=1,25=1,30=1,71=1/1,2,3;
 4/5=5,16=3/1;
 5/5=2,38=5/2;
 7//1,2,3,16;
 1/18=20,19=15/3(-5);
 2/9=110/2;
 6/7=2,8=2,9=2,10=2,19=2,28=1/1;
 99/9=1/99;
 Leave Link    1 at Sat Aug 27 03:21:55 2022, MaxMem=  209715200 cpu:       0.1
 (Enter /opt/gaussian/l101.exe)
 ---------
 Mol29.out
 ---------
 Charge =  0 Multiplicity = 1
 Symbolic Z-Matrix:
 F                     24.2084  -13.9145  -3.0991 
 C                     23.5557  -13.1091  -2.2314 
 C                     23.3497  -11.7585  -2.5698 
 C                     22.6861  -10.909   -1.6919 
 C                     22.2167  -11.381   -0.4632 
 C                     22.4102  -12.7252  -0.1252 
 C                     23.0743  -13.5934  -0.9943 
 Cl                    23.2813  -15.2136  -0.5402 
 C                     21.5311  -10.5054   0.5526 
 N                     20.8963  -9.2995    0.0761 
 C                     21.6317  -8.1304   -0.153 
 O                     21.1125  -7.1301   -0.6722 
 C                     23.1026  -8.1239    0.3083 
 N                     23.8465  -6.9443   -0.0465 
 N                     23.6699  -5.7275    0.5769 
 N                     24.1085  -4.773    -0.1059 
 C                     24.5817  -5.266    -1.3679 
 C                     25.1546  -4.6534   -2.4804 
 C                     25.5098  -5.4697   -3.5509 
 C                     25.3124  -6.8589   -3.5195 
 C                     24.7471  -7.5006   -2.4207 
 C                     24.3759  -6.6992   -1.3421 
 C                     19.5303  -9.3941   -0.3085 
 C                     19.0217  -10.5948  -0.8511 
 C                     17.6743  -10.7093  -1.1685 
 C                     16.7924  -9.6378   -0.9728 
 C                     17.2997  -8.4384   -0.4558 
 C                     18.6439  -8.3115   -0.1235 
 C                     15.3797  -9.7753   -1.299 
 C                     14.9533  -10.5221  -2.408 
 C                     13.5882  -10.6391  -2.6663 
 C                     12.6821  -9.9983   -1.8024 
 N                     13.0662  -9.2703   -0.7354 
 C                     14.3853  -9.1658   -0.4971 
 H                     23.719   -11.3872  -3.5378 
 H                     22.5288  -9.8591   -1.9892 
 H                     22.0341  -13.1077   0.8382 
 H                     20.7396  -11.1255   1.0727 
 H                     22.2957  -10.2296   1.3388 
 H                     23.1124  -8.2179    1.4339 
 H                     23.6401  -9.0036   -0.1514 
 H                     25.3158  -3.5662   -2.5083 
 H                     25.9561  -5.0148   -4.4485 
 H                     25.6122  -7.4594   -4.3927 
 H                     24.599   -8.5885   -2.4076 
 H                     19.6878  -11.4534  -1.0324 
 H                     17.2963  -11.6599  -1.5753 
 H                     16.6284  -7.5765   -0.3143 
 H                     19.0133  -7.3487    0.2662 
 H                     15.6899  -11.0026  -3.069 
 H                     13.2239  -11.2171  -3.5254 
 H                     11.5925  -10.0685  -1.969 
 H                     14.6677  -8.5666    0.3879 
 
 NAtoms=     53 NQM=        0 NQMF=       0 NMMI=     53 NMMIF=      0
                NMic=       0 NMicF=      0.
                    Isotopes and Nuclear Properties:
 (Nuclear quadrupole moments (NQMom) in fm**2, nuclear magnetic moments (NMagM)
  in nuclear magnetons)

  Atom         1           2           3           4           5           6           7           8           9          10
 IAtWgt=          19          12          12          12          12          12          12          35          12          14
 AtmWgt=  18.9984033  12.0000000  12.0000000  12.0000000  12.0000000  12.0000000  12.0000000  34.9688527  12.0000000  14.0030740
 NucSpn=           1           0           0           0           0           0           0           3           0           2
 AtZEff=   0.0000000   0.0000000   0.0000000   0.0000000   0.0000000   0.0000000   0.0000000   0.0000000   0.0000000   0.0000000
 NQMom=    0.0000000   0.0000000   0.0000000   0.0000000   0.0000000   0.0000000   0.0000000  -8.1650000   0.0000000   2.0440000
 NMagM=    2.6288670   0.0000000   0.0000000   0.0000000   0.0000000   0.0000000   0.0000000   0.8218740   0.0000000   0.4037610

  Atom        11          12          13          14          15          16          17          18          19          20
 IAtWgt=          12          16          12          14          14          14          12          12          12          12
 AtmWgt=  12.0000000  15.9949146  12.0000000  14.0030740  14.0030740  14.0030740  12.0000000  12.0000000  12.0000000  12.0000000
 NucSpn=           0           0           0           2           2           2           0           0           0           0
 AtZEff=   0.0000000   0.0000000   0.0000000   0.0000000   0.0000000   0.0000000   0.0000000   0.0000000   0.0000000   0.0000000
 NQMom=    0.0000000   0.0000000   0.0000000   2.0440000   2.0440000   2.0440000   0.0000000   0.0000000   0.0000000   0.0000000
 NMagM=    0.0000000   0.0000000   0.0000000   0.4037610   0.4037610   0.4037610   0.0000000   0.0000000   0.0000000   0.0000000

  Atom        21          22          23          24          25          26          27          28          29          30
 IAtWgt=          12          12          12          12          12          12          12          12          12          12
 AtmWgt=  12.0000000  12.0000000  12.0000000  12.0000000  12.0000000  12.0000000  12.0000000  12.0000000  12.0000000  12.0000000
 NucSpn=           0           0           0           0           0           0           0           0           0           0
 AtZEff=   0.0000000   0.0000000   0.0000000   0.0000000   0.0000000   0.0000000   0.0000000   0.0000000   0.0000000   0.0000000
 NQMom=    0.0000000   0.0000000   0.0000000   0.0000000   0.0000000   0.0000000   0.0000000   0.0000000   0.0000000   0.0000000
 NMagM=    0.0000000   0.0000000   0.0000000   0.0000000   0.0000000   0.0000000   0.0000000   0.0000000   0.0000000   0.0000000

  Atom        31          32          33          34          35          36          37          38          39          40
 IAtWgt=          12          12          14          12           1           1           1           1           1           1
 AtmWgt=  12.0000000  12.0000000  14.0030740  12.0000000   1.0078250   1.0078250   1.0078250   1.0078250   1.0078250   1.0078250
 NucSpn=           0           0           2           0           1           1           1           1           1           1
 AtZEff=   0.0000000   0.0000000   0.0000000   0.0000000   0.0000000   0.0000000   0.0000000   0.0000000   0.0000000   0.0000000
 NQMom=    0.0000000   0.0000000   2.0440000   0.0000000   0.0000000   0.0000000   0.0000000   0.0000000   0.0000000   0.0000000
 NMagM=    0.0000000   0.0000000   0.4037610   0.0000000   2.7928460   2.7928460   2.7928460   2.7928460   2.7928460   2.7928460

  Atom        41          42          43          44          45          46          47          48          49          50
 IAtWgt=           1           1           1           1           1           1           1           1           1           1
 AtmWgt=   1.0078250   1.0078250   1.0078250   1.0078250   1.0078250   1.0078250   1.0078250   1.0078250   1.0078250   1.0078250
 NucSpn=           1           1           1           1           1           1           1           1           1           1
 AtZEff=   0.0000000   0.0000000   0.0000000   0.0000000   0.0000000   0.0000000   0.0000000   0.0000000   0.0000000   0.0000000
 NQMom=    0.0000000   0.0000000   0.0000000   0.0000000   0.0000000   0.0000000   0.0000000   0.0000000   0.0000000   0.0000000
 NMagM=    2.7928460   2.7928460   2.7928460   2.7928460   2.7928460   2.7928460   2.7928460   2.7928460   2.7928460   2.7928460

  Atom        51          52          53
 IAtWgt=           1           1           1
 AtmWgt=   1.0078250   1.0078250   1.0078250
 NucSpn=           1           1           1
 AtZEff=   0.0000000   0.0000000   0.0000000
 NQMom=    0.0000000   0.0000000   0.0000000
 NMagM=    2.7928460   2.7928460   2.7928460
 Leave Link  101 at Sat Aug 27 03:21:55 2022, MaxMem=  209715200 cpu:       0.8
 (Enter /opt/gaussian/l103.exe)

 GradGradGradGradGradGradGradGradGradGradGradGradGradGradGradGradGradGrad
 Berny optimization.
 Initialization pass.
                           ----------------------------
                           !    Initial Parameters    !
                           ! (Angstroms and Degrees)  !
 --------------------------                            --------------------------
 ! Name  Definition              Value          Derivative Info.                !
 --------------------------------------------------------------------------------
 ! R1    R(1,2)                  1.3519         estimate D2E/DX2                !
 ! R2    R(2,3)                  1.4075         estimate D2E/DX2                !
 ! R3    R(2,7)                  1.413          estimate D2E/DX2                !
 ! R4    R(3,4)                  1.3902         estimate D2E/DX2                !
 ! R5    R(3,35)                 1.1006         estimate D2E/DX2                !
 ! R6    R(4,5)                  1.3974         estimate D2E/DX2                !
 ! R7    R(4,36)                 1.1025         estimate D2E/DX2                !
 ! R8    R(5,6)                  1.3995         estimate D2E/DX2                !
 ! R9    R(5,9)                  1.5062         estimate D2E/DX2                !
 ! R10   R(6,7)                  1.3965         estimate D2E/DX2                !
 ! R11   R(6,37)                 1.1027         estimate D2E/DX2                !
 ! R12   R(7,8)                  1.6953         estimate D2E/DX2                !
 ! R13   R(9,10)                 1.4437         estimate D2E/DX2                !
 ! R14   R(9,38)                 1.132          estimate D2E/DX2                !
 ! R15   R(9,39)                 1.1308         estimate D2E/DX2                !
 ! R16   R(10,11)                1.4            estimate D2E/DX2                !
 ! R17   R(10,23)                1.4223         estimate D2E/DX2                !
 ! R18   R(11,12)                1.2409         estimate D2E/DX2                !
 ! R19   R(11,13)                1.5416         estimate D2E/DX2                !
 ! R20   R(13,14)                1.439          estimate D2E/DX2                !
 ! R21   R(13,40)                1.1296         estimate D2E/DX2                !
 ! R22   R(13,41)                1.1288         estimate D2E/DX2                !
 ! R23   R(14,15)                1.3786         estimate D2E/DX2                !
 ! R24   R(14,22)                1.4209         estimate D2E/DX2                !
 ! R25   R(15,16)                1.2529         estimate D2E/DX2                !
 ! R26   R(16,17)                1.4351         estimate D2E/DX2                !
 ! R27   R(17,18)                1.3933         estimate D2E/DX2                !
 ! R28   R(17,22)                1.4481         estimate D2E/DX2                !
 ! R29   R(18,19)                1.3923         estimate D2E/DX2                !
 ! R30   R(18,42)                1.0994         estimate D2E/DX2                !
 ! R31   R(19,20)                1.4035         estimate D2E/DX2                !
 ! R32   R(19,43)                1.1008         estimate D2E/DX2                !
 ! R33   R(20,21)                1.3924         estimate D2E/DX2                !
 ! R34   R(20,44)                1.1013         estimate D2E/DX2                !
 ! R35   R(21,22)                1.3941         estimate D2E/DX2                !
 ! R36   R(21,45)                1.098          estimate D2E/DX2                !
 ! R37   R(23,24)                1.4124         estimate D2E/DX2                !
 ! R38   R(23,28)                1.4114         estimate D2E/DX2                !
 ! R39   R(24,25)                1.389          estimate D2E/DX2                !
 ! R40   R(24,46)                1.1017         estimate D2E/DX2                !
 ! R41   R(25,26)                1.4015         estimate D2E/DX2                !
 ! R42   R(25,47)                1.1009         estimate D2E/DX2                !
 ! R43   R(26,27)                1.4011         estimate D2E/DX2                !
 ! R44   R(26,29)                1.4564         estimate D2E/DX2                !
 ! R45   R(27,28)                1.3905         estimate D2E/DX2                !
 ! R46   R(27,48)                1.1016         estimate D2E/DX2                !
 ! R47   R(28,49)                1.1024         estimate D2E/DX2                !
 ! R48   R(29,30)                1.4034         estimate D2E/DX2                !
 ! R49   R(29,34)                1.4154         estimate D2E/DX2                !
 ! R50   R(30,31)                1.3942         estimate D2E/DX2                !
 ! R51   R(30,50)                1.1002         estimate D2E/DX2                !
 ! R52   R(31,32)                1.4064         estimate D2E/DX2                !
 ! R53   R(31,51)                1.0977         estimate D2E/DX2                !
 ! R54   R(32,33)                1.3476         estimate D2E/DX2                !
 ! R55   R(32,52)                1.1045         estimate D2E/DX2                !
 ! R56   R(33,34)                1.3445         estimate D2E/DX2                !
 ! R57   R(34,53)                1.1054         estimate D2E/DX2                !
 ! A1    A(1,2,3)              119.2106         estimate D2E/DX2                !
 ! A2    A(1,2,7)              121.4813         estimate D2E/DX2                !
 ! A3    A(3,2,7)              119.308          estimate D2E/DX2                !
 ! A4    A(2,3,4)              120.2906         estimate D2E/DX2                !
 ! A5    A(2,3,35)             119.0833         estimate D2E/DX2                !
 ! A6    A(4,3,35)             120.626          estimate D2E/DX2                !
 ! A7    A(3,4,5)              120.6091         estimate D2E/DX2                !
 ! A8    A(3,4,36)             118.6681         estimate D2E/DX2                !
 ! A9    A(5,4,36)             120.7198         estimate D2E/DX2                !
 ! A10   A(4,5,6)              119.3623         estimate D2E/DX2                !
 ! A11   A(4,5,9)              123.335          estimate D2E/DX2                !
 ! A12   A(6,5,9)              117.2856         estimate D2E/DX2                !
 ! A13   A(5,6,7)              120.8367         estimate D2E/DX2                !
 ! A14   A(5,6,37)             119.8038         estimate D2E/DX2                !
 ! A15   A(7,6,37)             119.3594         estimate D2E/DX2                !
 ! A16   A(2,7,6)              119.5901         estimate D2E/DX2                !
 ! A17   A(2,7,8)              121.3626         estimate D2E/DX2                !
 ! A18   A(6,7,8)              119.047          estimate D2E/DX2                !
 ! A19   A(5,9,10)             117.5901         estimate D2E/DX2                !
 ! A20   A(5,9,38)             108.0397         estimate D2E/DX2                !
 ! A21   A(5,9,39)             107.6316         estimate D2E/DX2                !
 ! A22   A(10,9,38)            107.5632         estimate D2E/DX2                !
 ! A23   A(10,9,39)            108.8476         estimate D2E/DX2                !
 ! A24   A(38,9,39)            106.6738         estimate D2E/DX2                !
 ! A25   A(9,10,11)            121.3696         estimate D2E/DX2                !
 ! A26   A(9,10,23)            117.1299         estimate D2E/DX2                !
 ! A27   A(11,10,23)           121.0501         estimate D2E/DX2                !
 ! A28   A(10,11,12)           121.4563         estimate D2E/DX2                !
 ! A29   A(10,11,13)           117.1133         estimate D2E/DX2                !
 ! A30   A(12,11,13)           121.4028         estimate D2E/DX2                !
 ! A31   A(11,13,14)           115.0202         estimate D2E/DX2                !
 ! A32   A(11,13,40)           107.8257         estimate D2E/DX2                !
 ! A33   A(11,13,41)           109.2205         estimate D2E/DX2                !
 ! A34   A(14,13,40)           108.0247         estimate D2E/DX2                !
 ! A35   A(14,13,41)           106.9945         estimate D2E/DX2                !
 ! A36   A(40,13,41)           109.6848         estimate D2E/DX2                !
 ! A37   A(13,14,15)           123.0812         estimate D2E/DX2                !
 ! A38   A(13,14,22)           123.975          estimate D2E/DX2                !
 ! A39   A(15,14,22)           107.9274         estimate D2E/DX2                !
 ! A40   A(14,15,16)           112.4058         estimate D2E/DX2                !
 ! A41   A(15,16,17)           109.4486         estimate D2E/DX2                !
 ! A42   A(16,17,18)           133.3695         estimate D2E/DX2                !
 ! A43   A(16,17,22)           106.1083         estimate D2E/DX2                !
 ! A44   A(18,17,22)           120.5188         estimate D2E/DX2                !
 ! A45   A(17,18,19)           117.4551         estimate D2E/DX2                !
 ! A46   A(17,18,42)           121.0208         estimate D2E/DX2                !
 ! A47   A(19,18,42)           121.5239         estimate D2E/DX2                !
 ! A48   A(18,19,20)           121.8191         estimate D2E/DX2                !
 ! A49   A(18,19,43)           119.2148         estimate D2E/DX2                !
 ! A50   A(20,19,43)           118.966          estimate D2E/DX2                !
 ! A51   A(19,20,21)           122.0682         estimate D2E/DX2                !
 ! A52   A(19,20,44)           118.9248         estimate D2E/DX2                !
 ! A53   A(21,20,44)           119.0069         estimate D2E/DX2                !
 ! A54   A(20,21,22)           116.9843         estimate D2E/DX2                !
 ! A55   A(20,21,45)           121.3859         estimate D2E/DX2                !
 ! A56   A(22,21,45)           121.6297         estimate D2E/DX2                !
 ! A57   A(14,22,17)           103.8815         estimate D2E/DX2                !
 ! A58   A(14,22,21)           134.8727         estimate D2E/DX2                !
 ! A59   A(17,22,21)           121.1523         estimate D2E/DX2                !
 ! A60   A(10,23,24)           120.4173         estimate D2E/DX2                !
 ! A61   A(10,23,28)           121.1135         estimate D2E/DX2                !
 ! A62   A(24,23,28)           118.444          estimate D2E/DX2                !
 ! A63   A(23,24,25)           120.4766         estimate D2E/DX2                !
 ! A64   A(23,24,46)           120.5335         estimate D2E/DX2                !
 ! A65   A(25,24,46)           118.9896         estimate D2E/DX2                !
 ! A66   A(24,25,26)           121.0295         estimate D2E/DX2                !
 ! A67   A(24,25,47)           119.2539         estimate D2E/DX2                !
 ! A68   A(26,25,47)           119.7159         estimate D2E/DX2                !
 ! A69   A(25,26,27)           118.5651         estimate D2E/DX2                !
 ! A70   A(25,26,29)           120.4596         estimate D2E/DX2                !
 ! A71   A(27,26,29)           120.9752         estimate D2E/DX2                !
 ! A72   A(26,27,28)           121.0857         estimate D2E/DX2                !
 ! A73   A(26,27,48)           119.7694         estimate D2E/DX2                !
 ! A74   A(28,27,48)           119.1438         estimate D2E/DX2                !
 ! A75   A(23,28,27)           120.3855         estimate D2E/DX2                !
 ! A76   A(23,28,49)           120.3849         estimate D2E/DX2                !
 ! A77   A(27,28,49)           119.2172         estimate D2E/DX2                !
 ! A78   A(26,29,30)           121.4647         estimate D2E/DX2                !
 ! A79   A(26,29,34)           120.9262         estimate D2E/DX2                !
 ! A80   A(30,29,34)           117.6071         estimate D2E/DX2                !
 ! A81   A(29,30,31)           119.2455         estimate D2E/DX2                !
 ! A82   A(29,30,50)           120.2503         estimate D2E/DX2                !
 ! A83   A(31,30,50)           120.5027         estimate D2E/DX2                !
 ! A84   A(30,31,32)           118.605          estimate D2E/DX2                !
 ! A85   A(30,31,51)           120.9399         estimate D2E/DX2                !
 ! A86   A(32,31,51)           120.455          estimate D2E/DX2                !
 ! A87   A(31,32,33)           123.2896         estimate D2E/DX2                !
 ! A88   A(31,32,52)           120.9284         estimate D2E/DX2                !
 ! A89   A(33,32,52)           115.7821         estimate D2E/DX2                !
 ! A90   A(32,33,34)           117.5136         estimate D2E/DX2                !
 ! A91   A(29,34,33)           123.7376         estimate D2E/DX2                !
 ! A92   A(29,34,53)           120.498          estimate D2E/DX2                !
 ! A93   A(33,34,53)           115.7633         estimate D2E/DX2                !
 ! D1    D(1,2,3,4)           -179.7362         estimate D2E/DX2                !
 ! D2    D(1,2,3,35)             0.3912         estimate D2E/DX2                !
 ! D3    D(7,2,3,4)              0.3646         estimate D2E/DX2                !
 ! D4    D(7,2,3,35)          -179.508          estimate D2E/DX2                !
 ! D5    D(1,2,7,6)            179.7303         estimate D2E/DX2                !
 ! D6    D(1,2,7,8)             -0.4525         estimate D2E/DX2                !
 ! D7    D(3,2,7,6)             -0.3729         estimate D2E/DX2                !
 ! D8    D(3,2,7,8)            179.4443         estimate D2E/DX2                !
 ! D9    D(2,3,4,5)              0.0947         estimate D2E/DX2                !
 ! D10   D(2,3,4,36)          -179.2806         estimate D2E/DX2                !
 ! D11   D(35,3,4,5)           179.9653         estimate D2E/DX2                !
 ! D12   D(35,3,4,36)            0.59           estimate D2E/DX2                !
 ! D13   D(3,4,5,6)             -0.5419         estimate D2E/DX2                !
 ! D14   D(3,4,5,9)            177.9129         estimate D2E/DX2                !
 ! D15   D(36,4,5,6)           178.8205         estimate D2E/DX2                !
 ! D16   D(36,4,5,9)            -2.7247         estimate D2E/DX2                !
 ! D17   D(4,5,6,7)              0.532          estimate D2E/DX2                !
 ! D18   D(4,5,6,37)          -179.405          estimate D2E/DX2                !
 ! D19   D(9,5,6,7)           -178.0154         estimate D2E/DX2                !
 ! D20   D(9,5,6,37)             2.0476         estimate D2E/DX2                !
 ! D21   D(4,5,9,10)            23.4808         estimate D2E/DX2                !
 ! D22   D(4,5,9,38)           145.3695         estimate D2E/DX2                !
 ! D23   D(4,5,9,39)           -99.7871         estimate D2E/DX2                !
 ! D24   D(6,5,9,10)          -158.0345         estimate D2E/DX2                !
 ! D25   D(6,5,9,38)           -36.1458         estimate D2E/DX2                !
 ! D26   D(6,5,9,39)            78.6976         estimate D2E/DX2                !
 ! D27   D(5,6,7,2)             -0.0749         estimate D2E/DX2                !
 ! D28   D(5,6,7,8)           -179.8964         estimate D2E/DX2                !
 ! D29   D(37,6,7,2)           179.8624         estimate D2E/DX2                !
 ! D30   D(37,6,7,8)             0.041          estimate D2E/DX2                !
 ! D31   D(5,9,10,11)          -82.0161         estimate D2E/DX2                !
 ! D32   D(5,9,10,23)           90.3594         estimate D2E/DX2                !
 ! D33   D(38,9,10,11)         155.8505         estimate D2E/DX2                !
 ! D34   D(38,9,10,23)         -31.774          estimate D2E/DX2                !
 ! D35   D(39,9,10,11)          40.6336         estimate D2E/DX2                !
 ! D36   D(39,9,10,23)        -146.9908         estimate D2E/DX2                !
 ! D37   D(9,10,11,12)         173.5892         estimate D2E/DX2                !
 ! D38   D(9,10,11,13)          -8.295          estimate D2E/DX2                !
 ! D39   D(23,10,11,12)          1.5115         estimate D2E/DX2                !
 ! D40   D(23,10,11,13)        179.6273         estimate D2E/DX2                !
 ! D41   D(9,10,23,24)         -31.2905         estimate D2E/DX2                !
 ! D42   D(9,10,23,28)         146.8558         estimate D2E/DX2                !
 ! D43   D(11,10,23,24)        141.1109         estimate D2E/DX2                !
 ! D44   D(11,10,23,28)        -40.7428         estimate D2E/DX2                !
 ! D45   D(10,11,13,14)        175.121          estimate D2E/DX2                !
 ! D46   D(10,11,13,40)        -64.2968         estimate D2E/DX2                !
 ! D47   D(10,11,13,41)         54.8354         estimate D2E/DX2                !
 ! D48   D(12,11,13,14)         -6.7621         estimate D2E/DX2                !
 ! D49   D(12,11,13,40)        113.8201         estimate D2E/DX2                !
 ! D50   D(12,11,13,41)       -127.0476         estimate D2E/DX2                !
 ! D51   D(11,13,14,15)         73.6261         estimate D2E/DX2                !
 ! D52   D(11,13,14,22)        -78.2543         estimate D2E/DX2                !
 ! D53   D(40,13,14,15)        -46.8469         estimate D2E/DX2                !
 ! D54   D(40,13,14,22)        161.2727         estimate D2E/DX2                !
 ! D55   D(41,13,14,15)       -164.8717         estimate D2E/DX2                !
 ! D56   D(41,13,14,22)         43.2479         estimate D2E/DX2                !
 ! D57   D(13,14,15,16)       -160.8599         estimate D2E/DX2                !
 ! D58   D(22,14,15,16)         -5.1148         estimate D2E/DX2                !
 ! D59   D(13,14,22,17)        159.7027         estimate D2E/DX2                !
 ! D60   D(13,14,22,21)        -23.9489         estimate D2E/DX2                !
 ! D61   D(15,14,22,17)          4.2261         estimate D2E/DX2                !
 ! D62   D(15,14,22,21)       -179.4255         estimate D2E/DX2                !
 ! D63   D(14,15,16,17)          3.6132         estimate D2E/DX2                !
 ! D64   D(15,16,17,18)        179.9588         estimate D2E/DX2                !
 ! D65   D(15,16,17,22)         -0.7355         estimate D2E/DX2                !
 ! D66   D(16,17,18,19)        179.4511         estimate D2E/DX2                !
 ! D67   D(16,17,18,42)         -0.6961         estimate D2E/DX2                !
 ! D68   D(22,17,18,19)          0.2254         estimate D2E/DX2                !
 ! D69   D(22,17,18,42)       -179.9217         estimate D2E/DX2                !
 ! D70   D(16,17,22,14)         -2.2165         estimate D2E/DX2                !
 ! D71   D(16,17,22,21)       -179.1934         estimate D2E/DX2                !
 ! D72   D(18,17,22,14)        177.1976         estimate D2E/DX2                !
 ! D73   D(18,17,22,21)          0.2208         estimate D2E/DX2                !
 ! D74   D(17,18,19,20)         -0.4417         estimate D2E/DX2                !
 ! D75   D(17,18,19,43)        179.4342         estimate D2E/DX2                !
 ! D76   D(42,18,19,20)        179.7062         estimate D2E/DX2                !
 ! D77   D(42,18,19,43)         -0.4179         estimate D2E/DX2                !
 ! D78   D(18,19,20,21)          0.2185         estimate D2E/DX2                !
 ! D79   D(18,19,20,44)       -179.9232         estimate D2E/DX2                !
 ! D80   D(43,19,20,21)       -179.6577         estimate D2E/DX2                !
 ! D81   D(43,19,20,44)          0.2007         estimate D2E/DX2                !
 ! D82   D(19,20,21,22)          0.2319         estimate D2E/DX2                !
 ! D83   D(19,20,21,45)       -179.9187         estimate D2E/DX2                !
 ! D84   D(44,20,21,22)       -179.6263         estimate D2E/DX2                !
 ! D85   D(44,20,21,45)          0.2231         estimate D2E/DX2                !
 ! D86   D(20,21,22,14)       -176.2987         estimate D2E/DX2                !
 ! D87   D(20,21,22,17)         -0.4418         estimate D2E/DX2                !
 ! D88   D(45,21,22,14)          3.8523         estimate D2E/DX2                !
 ! D89   D(45,21,22,17)        179.7093         estimate D2E/DX2                !
 ! D90   D(10,23,24,25)        176.9535         estimate D2E/DX2                !
 ! D91   D(10,23,24,46)         -3.2645         estimate D2E/DX2                !
 ! D92   D(28,23,24,25)         -1.2415         estimate D2E/DX2                !
 ! D93   D(28,23,24,46)        178.5405         estimate D2E/DX2                !
 ! D94   D(10,23,28,27)       -177.4363         estimate D2E/DX2                !
 ! D95   D(10,23,28,49)          3.8557         estimate D2E/DX2                !
 ! D96   D(24,23,28,27)          0.7457         estimate D2E/DX2                !
 ! D97   D(24,23,28,49)       -177.9623         estimate D2E/DX2                !
 ! D98   D(23,24,25,26)          0.674          estimate D2E/DX2                !
 ! D99   D(23,24,25,47)       -179.0241         estimate D2E/DX2                !
 ! D100  D(46,24,25,26)       -179.1113         estimate D2E/DX2                !
 ! D101  D(46,24,25,47)          1.1906         estimate D2E/DX2                !
 ! D102  D(24,25,26,27)          0.4058         estimate D2E/DX2                !
 ! D103  D(24,25,26,29)       -179.4622         estimate D2E/DX2                !
 ! D104  D(47,25,26,27)       -179.8975         estimate D2E/DX2                !
 ! D105  D(47,25,26,29)          0.2345         estimate D2E/DX2                !
 ! D106  D(25,26,27,28)         -0.9077         estimate D2E/DX2                !
 ! D107  D(25,26,27,48)        178.6918         estimate D2E/DX2                !
 ! D108  D(29,26,27,28)        178.9596         estimate D2E/DX2                !
 ! D109  D(29,26,27,48)         -1.4408         estimate D2E/DX2                !
 ! D110  D(25,26,29,30)        -36.5547         estimate D2E/DX2                !
 ! D111  D(25,26,29,34)        142.9179         estimate D2E/DX2                !
 ! D112  D(27,26,29,30)        143.5805         estimate D2E/DX2                !
 ! D113  D(27,26,29,34)        -36.9469         estimate D2E/DX2                !
 ! D114  D(26,27,28,23)          0.328          estimate D2E/DX2                !
 ! D115  D(26,27,28,49)        179.051          estimate D2E/DX2                !
 ! D116  D(48,27,28,23)       -179.274          estimate D2E/DX2                !
 ! D117  D(48,27,28,49)         -0.551          estimate D2E/DX2                !
 ! D118  D(26,29,30,31)        179.08           estimate D2E/DX2                !
 ! D119  D(26,29,30,50)         -1.3753         estimate D2E/DX2                !
 ! D120  D(34,29,30,31)         -0.4094         estimate D2E/DX2                !
 ! D121  D(34,29,30,50)        179.1353         estimate D2E/DX2                !
 ! D122  D(26,29,34,33)       -179.0921         estimate D2E/DX2                !
 ! D123  D(26,29,34,53)          0.5152         estimate D2E/DX2                !
 ! D124  D(30,29,34,33)          0.4002         estimate D2E/DX2                !
 ! D125  D(30,29,34,53)       -179.9924         estimate D2E/DX2                !
 ! D126  D(29,30,31,32)          0.1278         estimate D2E/DX2                !
 ! D127  D(29,30,31,51)       -179.9494         estimate D2E/DX2                !
 ! D128  D(50,30,31,32)       -179.4158         estimate D2E/DX2                !
 ! D129  D(50,30,31,51)          0.5071         estimate D2E/DX2                !
 ! D130  D(30,31,32,33)          0.2125         estimate D2E/DX2                !
 ! D131  D(30,31,32,52)       -179.7879         estimate D2E/DX2                !
 ! D132  D(51,31,32,33)       -179.7107         estimate D2E/DX2                !
 ! D133  D(51,31,32,52)          0.2889         estimate D2E/DX2                !
 ! D134  D(31,32,33,34)         -0.2376         estimate D2E/DX2                !
 ! D135  D(52,32,33,34)        179.7629         estimate D2E/DX2                !
 ! D136  D(32,33,34,29)         -0.0774         estimate D2E/DX2                !
 ! D137  D(32,33,34,53)       -179.7018         estimate D2E/DX2                !
 --------------------------------------------------------------------------------
 Trust Radius=3.00D-01 FncErr=1.00D-07 GrdErr=1.00D-07
 Number of steps in this run=    297 maximum allowed number of steps=    318.
 GradGradGradGradGradGradGradGradGradGradGradGradGradGradGradGradGradGrad

 Leave Link  103 at Sat Aug 27 03:21:55 2022, MaxMem=  209715200 cpu:       0.1
 (Enter /opt/gaussian/l202.exe)
 Stoichiometry    C26H19ClFN5O
 Framework group  C1[X(C26H19ClFN5O)]
 Deg. of freedom   153
 Full point group                 C1      NOp   1
 Largest Abelian subgroup         C1      NOp   1
 Largest concise Abelian subgroup C1      NOp   1
                         Standard orientation:                         
 ---------------------------------------------------------------------
 Center     Atomic      Atomic             Coordinates (Angstroms)
 Number     Number       Type             X           Y           Z
 ---------------------------------------------------------------------
      1          9           0        2.348317    4.980311    1.791273
      2          6           0        1.851898    4.039249    0.957271
      3          6           0        1.944230    2.682401    1.319912
      4          6           0        1.446078    1.695741    0.476662
      5          6           0        0.849770    2.034766   -0.740837
      6          6           0        0.746576    3.382752   -1.102560
      7          6           0        1.241020    4.387626   -0.268360
      8         17           0        1.089533    6.005982   -0.750106
      9          6           0        0.331248    1.015257   -1.720790
     10          7           0       -0.021458   -0.286995   -1.207022
     11          6           0        0.949427   -1.271808   -0.988801
     12          8           0        0.667958   -2.348035   -0.439030
     13          6           0        2.373774   -0.979899   -1.501061
     14          7           0        3.359122   -1.970709   -1.157389
     15          7           0        3.421885   -3.209660   -1.758621
     16          7           0        4.072018   -4.037691   -1.079395
     17          6           0        4.470881   -3.431765    0.158899
     18          6           0        5.194144   -3.888930    1.258463
     19          6           0        5.403915   -2.995366    2.305374
     20          6           0        4.918915   -1.679000    2.263113
     21          6           0        4.197413   -1.191524    1.176602
     22          6           0        3.968628   -2.074025    0.121965
     23          6           0       -1.364161   -0.472365   -0.776199
     24          6           0       -2.095735    0.606041   -0.231578
     25          6           0       -3.426545    0.442683    0.131187
     26          6           0       -4.070055   -0.793131   -0.019872
     27          6           0       -3.339219   -1.870029   -0.538882
     28          6           0       -2.009406   -1.719759   -0.916266
     29          6           0       -5.469225   -0.947474    0.353673
     30          6           0       -6.007531   -0.284447    1.467240
     31          6           0       -7.358023   -0.450232    1.771532
     32          6           0       -8.136459   -1.283245    0.948069
     33          7           0       -7.642109   -1.935899   -0.122290
     34          6           0       -6.338563   -1.767110   -0.405149
     35          1           0        2.413407    2.415744    2.279098
     36          1           0        1.521702    0.642255    0.792683
     37          1           0        0.268551    3.659030   -2.057055
     38          1           0       -0.588582    1.445811   -2.220826
     39          1           0        1.111539    0.889815   -2.529616
     40          1           0        2.328236   -0.908257   -2.627427
     41          1           0        2.729201    0.001645   -1.071704
     42          1           0        5.580375   -4.917660    1.294627
     43          1           0        5.963646   -3.329063    3.192590
     44          1           0        5.113555   -1.011917    3.117557
     45          1           0        3.824304   -0.159079    1.154762
     46          1           0       -1.618967    1.588312   -0.084650
     47          1           0       -3.982351    1.301164    0.538741
     48          1           0       -3.819125   -2.855825   -0.645814
     49          1           0       -1.458911   -2.591627   -1.306276
     50          1           0       -5.367542    0.352392    2.095913
     51          1           0       -7.808132    0.055781    2.635363
     52          1           0       -9.210785   -1.439027    1.151704
     53          1           0       -5.964867   -2.311481   -1.291731
 ---------------------------------------------------------------------
 Rotational constants (GHZ):      0.1121045      0.0656931      0.0463083
 Leave Link  202 at Sat Aug 27 03:21:55 2022, MaxMem=  209715200 cpu:       0.0
 (Enter /opt/gaussian/l301.exe)
 Standard basis: 6-31G (6D, 7F)
 Ernie: Thresh=  0.10000D-02 Tol=  0.10000D-05 Strict=F.
 There are   348 symmetry adapted basis functions of A   symmetry.
 Integral buffers will be    131072 words long.
 Raffenetti 1 integral format.
 Two-electron integral symmetry is turned on.
   348 basis functions,   848 primitive gaussians,   348 cartesian basis functions
   122 alpha electrons      122 beta electrons
       nuclear repulsion energy      3335.4148920233 Hartrees.
 IExCor=    0 DFT=F Ex=HF Corr=None ExCW=0 ScaHFX=  1.000000
 ScaDFX=  1.000000  1.000000  1.000000  1.000000 ScalE2=  1.000000  1.000000
 IRadAn=      0 IRanWt=     -1 IRanGd=            0 ICorTp=0
 NAtoms=   53 NActive=   53 NUniq=   53 SFac= 1.00D+00 NAtFMM=   60 NAOKFM=F Big=F
 Leave Link  301 at Sat Aug 27 03:21:55 2022, MaxMem=  209715200 cpu:       0.2
 (Enter /opt/gaussian/l302.exe)
 NPDir=0 NMtPBC=     1 NCelOv=     1 NCel=       1 NClECP=     1 NCelD=      1
         NCelK=      1 NCelE2=     1 NClLst=     1 CellRange=     0.0.
 One-electron integrals computed using PRISM.
 NBasis=   348 RedAO= T  NBF=   348
 NBsUse=   348 1.00D-06 NBFU=   348
 Leave Link  302 at Sat Aug 27 03:21:55 2022, MaxMem=  209715200 cpu:       2.1
 (Enter /opt/gaussian/l303.exe)
 DipDrv:  MaxL=1.
 Leave Link  303 at Sat Aug 27 03:21:55 2022, MaxMem=  209715200 cpu:       0.5
 (Enter /opt/gaussian/l401.exe)
 Harris functional with IExCor=  205 diagonalized for initial guess.
 ExpMin= 1.43D-01 ExpMax= 2.52D+04 ExpMxC= 3.78D+03 IAcc=1 IRadAn=         1 AccDes= 0.00D+00
 HarFok:  IExCor=  205 AccDes= 0.00D+00 IRadAn=         1 IDoV= 1
 ScaDFX=  1.000000  1.000000  1.000000  1.000000
 FoFCou: FMM=F IPFlag=           0 FMFlag=      100000 FMFlg1=           0
         NFxFlg=           0 DoJE=T BraDBF=F KetDBF=T FulRan=T
         Omega=  0.000000  0.000000  1.000000  0.000000  0.000000 ICntrl=     500 IOpCl=  0
         NMat0=    1 NMatS0=    1 NMatT0=    0 NMatD0=    1 NMtDS0=    0 NMtDT0=    0
         I1Cent=           4 NGrid=           0.
 Petite list used in FoFCou.
 Harris En= -1902.03159517424    
 Initial guess orbital symmetries:
       Occupied  (A) (A) (A) (A) (A) (A) (A) (A) (A) (A) (A) (A)
                 (A) (A) (A) (A) (A) (A) (A) (A) (A) (A) (A) (A)
                 (A) (A) (A) (A) (A) (A) (A) (A) (A) (A) (A) (A)
                 (A) (A) (A) (A) (A) (A) (A) (A) (A) (A) (A) (A)
                 (A) (A) (A) (A) (A) (A) (A) (A) (A) (A) (A) (A)
                 (A) (A) (A) (A) (A) (A) (A) (A) (A) (A) (A) (A)
                 (A) (A) (A) (A) (A) (A) (A) (A) (A) (A) (A) (A)
                 (A) (A) (A) (A) (A) (A) (A) (A) (A) (A) (A) (A)
                 (A) (A) (A) (A) (A) (A) (A) (A) (A) (A) (A) (A)
                 (A) (A) (A) (A) (A) (A) (A) (A) (A) (A) (A) (A)
                 (A) (A)
       Virtual   (A) (A) (A) (A) (A) (A) (A) (A) (A) (A) (A) (A)
                 (A) (A) (A) (A) (A) (A) (A) (A) (A) (A) (A) (A)
                 (A) (A) (A) (A) (A) (A) (A) (A) (A) (A) (A) (A)
                 (A) (A) (A) (A) (A) (A) (A) (A) (A) (A) (A) (A)
                 (A) (A) (A) (A) (A) (A) (A) (A) (A) (A) (A) (A)
                 (A) (A) (A) (A) (A) (A) (A) (A) (A) (A) (A) (A)
                 (A) (A) (A) (A) (A) (A) (A) (A) (A) (A) (A) (A)
                 (A) (A) (A) (A) (A) (A) (A) (A) (A) (A) (A) (A)
                 (A) (A) (A) (A) (A) (A) (A) (A) (A) (A) (A) (A)
                 (A) (A) (A) (A) (A) (A) (A) (A) (A) (A) (A) (A)
                 (A) (A) (A) (A) (A) (A) (A) (A) (A) (A) (A) (A)
                 (A) (A) (A) (A) (A) (A) (A) (A) (A) (A) (A) (A)
                 (A) (A) (A) (A) (A) (A) (A) (A) (A) (A) (A) (A)
                 (A) (A) (A) (A) (A) (A) (A) (A) (A) (A) (A) (A)
                 (A) (A) (A) (A) (A) (A) (A) (A) (A) (A) (A) (A)
                 (A) (A) (A) (A) (A) (A) (A) (A) (A) (A) (A) (A)
                 (A) (A) (A) (A) (A) (A) (A) (A) (A) (A) (A) (A)
                 (A) (A) (A) (A) (A) (A) (A) (A) (A) (A) (A) (A)
                 (A) (A) (A) (A) (A) (A) (A) (A) (A) (A)
 The electronic state of the initial guess is 1-A.
 Leave Link  401 at Sat Aug 27 03:21:56 2022, MaxMem=  209715200 cpu:       5.1
 (Enter /opt/gaussian/l502.exe)
 Closed shell SCF:
 Requested convergence on RMS density matrix=1.00D-08 within 128 cycles.
 Requested convergence on MAX density matrix=1.00D-06.
 Requested convergence on             energy=1.00D-06.
 No special actions if energy rises.
 Using DIIS extrapolation, IDIIS=  1040.
 Integral symmetry usage will be decided dynamically.
 IEnd=      386925 IEndB=      386925 NGot=   209715200 MDV=   209466368
 LenX=   209466368 LenY=   209344823
 Fock matrices will be formed incrementally for  20 cycles.
 Integral accuracy reduced to 1.0D-05 until final iterations.

 Cycle   1  Pass 0  IDiag  1:
 FoFCou: FMM=F IPFlag=           0 FMFlag=      100000 FMFlg1=           0
         NFxFlg=           0 DoJE=F BraDBF=F KetDBF=F FulRan=T
         Omega=  0.000000  0.000000  1.000000  0.000000  0.000000 ICntrl=       0 IOpCl=  0
         NMat0=    1 NMatS0=    1 NMatT0=    0 NMatD0=    1 NMtDS0=    0 NMtDT0=    0
         I1Cent=           0 NGrid=           0.
 Symmetry not used in FoFCou.
 E= -1900.05548253286    
 DIIS: error= 2.92D-02 at cycle   1 NSaved=   1.
 NSaved= 1 IEnMin= 1 EnMin= -1900.05548253286     IErMin= 1 ErrMin= 2.92D-02
 ErrMax= 2.92D-02 EMaxC= 1.00D-01 BMatC= 1.10D+00 BMatP= 1.10D+00
 IDIUse=3 WtCom= 7.08D-01 WtEn= 2.92D-01
 Coeff-Com:  0.100D+01
 Coeff-En:   0.100D+01
 Coeff:      0.100D+01
 Gap=     0.581 Goal=   None    Shift=    0.000
 GapD=    0.581 DampG=2.000 DampE=0.500 DampFc=1.0000 IDamp=-1.
 RMSDP=5.52D-03 MaxDP=1.70D-01              OVMax= 1.65D-01

 Cycle   2  Pass 0  IDiag  1:
 RMSU=  3.87D-03    CP:  9.70D-01
 E= -1900.79222694697     Delta-E=       -0.736744414116 Rises=F Damp=F
 DIIS: error= 1.81D-02 at cycle   2 NSaved=   2.
 NSaved= 2 IEnMin= 2 EnMin= -1900.79222694697     IErMin= 2 ErrMin= 1.81D-02
 ErrMax= 1.81D-02 EMaxC= 1.00D-01 BMatC= 1.83D-01 BMatP= 1.10D+00
 IDIUse=3 WtCom= 8.19D-01 WtEn= 1.81D-01
 Coeff-Com:  0.233D+00 0.767D+00
 Coeff-En:   0.000D+00 0.100D+01
 Coeff:      0.191D+00 0.809D+00
 Gap=     0.432 Goal=   None    Shift=    0.000
 RMSDP=2.26D-03 MaxDP=8.69D-02 DE=-7.37D-01 OVMax= 1.00D-01

 Cycle   3  Pass 0  IDiag  1:
 RMSU=  1.42D-03    CP:  9.69D-01  8.12D-01
 E= -1900.94062098927     Delta-E=       -0.148394042297 Rises=F Damp=F
 DIIS: error= 9.13D-03 at cycle   3 NSaved=   3.
 NSaved= 3 IEnMin= 3 EnMin= -1900.94062098927     IErMin= 3 ErrMin= 9.13D-03
 ErrMax= 9.13D-03 EMaxC= 1.00D-01 BMatC= 3.05D-02 BMatP= 1.83D-01
 IDIUse=3 WtCom= 9.09D-01 WtEn= 9.13D-02
 Coeff-Com:  0.247D-02 0.273D+00 0.725D+00
 Coeff-En:   0.000D+00 0.000D+00 0.100D+01
 Coeff:      0.225D-02 0.248D+00 0.750D+00
 Gap=     0.384 Goal=   None    Shift=    0.000
 RMSDP=7.42D-04 MaxDP=3.28D-02 DE=-1.48D-01 OVMax= 3.62D-02

 Cycle   4  Pass 0  IDiag  1:
 RMSU=  3.22D-04    CP:  9.70D-01  9.01D-01  8.38D-01
 E= -1900.96795807987     Delta-E=       -0.027337090603 Rises=F Damp=F
 DIIS: error= 2.63D-03 at cycle   4 NSaved=   4.
 NSaved= 4 IEnMin= 4 EnMin= -1900.96795807987     IErMin= 4 ErrMin= 2.63D-03
 ErrMax= 2.63D-03 EMaxC= 1.00D-01 BMatC= 2.61D-03 BMatP= 3.05D-02
 IDIUse=3 WtCom= 9.74D-01 WtEn= 2.63D-02
 Coeff-Com: -0.130D-01 0.266D-01 0.265D+00 0.722D+00
 Coeff-En:   0.000D+00 0.000D+00 0.000D+00 0.100D+01
 Coeff:     -0.126D-01 0.259D-01 0.258D+00 0.729D+00
 Gap=     0.384 Goal=   None    Shift=    0.000
 RMSDP=2.36D-04 MaxDP=9.17D-03 DE=-2.73D-02 OVMax= 8.98D-03

 Cycle   5  Pass 0  IDiag  1:
 RMSU=  1.13D-04    CP:  9.69D-01  8.97D-01  9.08D-01  7.86D-01
 E= -1900.97045638143     Delta-E=       -0.002498301556 Rises=F Damp=F
 DIIS: error= 9.87D-04 at cycle   5 NSaved=   5.
 NSaved= 5 IEnMin= 5 EnMin= -1900.97045638143     IErMin= 5 ErrMin= 9.87D-04
 ErrMax= 9.87D-04 EMaxC= 1.00D-01 BMatC= 1.15D-04 BMatP= 2.61D-03
 IDIUse=3 WtCom= 9.90D-01 WtEn= 9.87D-03
 Coeff-Com: -0.189D-02-0.139D-01-0.230D-02 0.104D+00 0.914D+00
 Coeff-En:   0.000D+00 0.000D+00 0.000D+00 0.000D+00 0.100D+01
 Coeff:     -0.188D-02-0.138D-01-0.228D-02 0.103D+00 0.915D+00
 Gap=     0.384 Goal=   None    Shift=    0.000
 RMSDP=7.46D-05 MaxDP=2.00D-03 DE=-2.50D-03 OVMax= 5.29D-03

 Cycle   6  Pass 0  IDiag  1:
 RMSU=  4.13D-05    CP:  9.69D-01  8.98D-01  9.24D-01  8.43D-01  1.13D+00
 E= -1900.97072044657     Delta-E=       -0.000264065137 Rises=F Damp=F
 DIIS: error= 2.95D-04 at cycle   6 NSaved=   6.
 NSaved= 6 IEnMin= 6 EnMin= -1900.97072044657     IErMin= 6 ErrMin= 2.95D-04
 ErrMax= 2.95D-04 EMaxC= 1.00D-01 BMatC= 2.85D-05 BMatP= 1.15D-04
 IDIUse=3 WtCom= 9.97D-01 WtEn= 2.95D-03
 Coeff-Com:  0.234D-02-0.860D-02-0.516D-01-0.148D+00 0.155D+00 0.105D+01
 Coeff-En:   0.000D+00 0.000D+00 0.000D+00 0.000D+00 0.000D+00 0.100D+01
 Coeff:      0.233D-02-0.857D-02-0.514D-01-0.147D+00 0.155D+00 0.105D+01
 Gap=     0.384 Goal=   None    Shift=    0.000
 RMSDP=5.07D-05 MaxDP=1.91D-03 DE=-2.64D-04 OVMax= 2.96D-03

 Cycle   7  Pass 0  IDiag  1:
 RMSU=  1.61D-05    CP:  9.69D-01  8.97D-01  9.34D-01  8.55D-01  1.37D+00
                    CP:  1.16D+00
 E= -1900.97080770233     Delta-E=       -0.000087255762 Rises=F Damp=F
 DIIS: error= 1.85D-04 at cycle   7 NSaved=   7.
 NSaved= 7 IEnMin= 7 EnMin= -1900.97080770233     IErMin= 7 ErrMin= 1.85D-04
 ErrMax= 1.85D-04 EMaxC= 1.00D-01 BMatC= 3.42D-06 BMatP= 2.85D-05
 IDIUse=3 WtCom= 9.98D-01 WtEn= 1.85D-03
 Coeff-Com:  0.132D-03 0.160D-02 0.375D-02-0.127D-01-0.936D-01-0.405D-01
 Coeff-Com:  0.114D+01
 Coeff-En:   0.000D+00 0.000D+00 0.000D+00 0.000D+00 0.000D+00 0.000D+00
 Coeff-En:   0.100D+01
 Coeff:      0.132D-03 0.160D-02 0.374D-02-0.127D-01-0.934D-01-0.404D-01
 Coeff:      0.114D+01
 Gap=     0.385 Goal=   None    Shift=    0.000
 RMSDP=1.81D-05 MaxDP=6.11D-04 DE=-8.73D-05 OVMax= 1.50D-03

 Cycle   8  Pass 0  IDiag  1:
 RMSU=  6.31D-06    CP:  9.68D-01  8.96D-01  9.36D-01  8.54D-01  1.42D+00
                    CP:  1.32D+00  1.32D+00
 E= -1900.97082061041     Delta-E=       -0.000012908078 Rises=F Damp=F
 DIIS: error= 6.20D-05 at cycle   8 NSaved=   8.
 NSaved= 8 IEnMin= 8 EnMin= -1900.97082061041     IErMin= 8 ErrMin= 6.20D-05
 ErrMax= 6.20D-05 EMaxC= 1.00D-01 BMatC= 7.70D-07 BMatP= 3.42D-06
 IDIUse=1 WtCom= 1.00D+00 WtEn= 0.00D+00
 Coeff-Com: -0.510D-03 0.240D-02 0.137D-01 0.292D-01-0.483D-01-0.261D+00
 Coeff-Com:  0.232D+00 0.103D+01
 Coeff:     -0.510D-03 0.240D-02 0.137D-01 0.292D-01-0.483D-01-0.261D+00
 Coeff:      0.232D+00 0.103D+01
 Gap=     0.385 Goal=   None    Shift=    0.000
 RMSDP=8.73D-06 MaxDP=2.86D-04 DE=-1.29D-05 OVMax= 7.67D-04

 Initial convergence to 1.0D-05 achieved.  Increase integral accuracy.
 Cycle   9  Pass 1  IDiag  1:
 E= -1900.97082767305     Delta-E=       -0.000007062645 Rises=F Damp=F
 DIIS: error= 7.55D-05 at cycle   1 NSaved=   1.
 NSaved= 1 IEnMin= 1 EnMin= -1900.97082767305     IErMin= 1 ErrMin= 7.55D-05
 ErrMax= 7.55D-05 EMaxC= 1.00D-01 BMatC= 1.83D-06 BMatP= 1.83D-06
 IDIUse=1 WtCom= 1.00D+00 WtEn= 0.00D+00
 Coeff-Com:  0.100D+01
 Coeff:      0.100D+01
 Gap=     0.385 Goal=   None    Shift=    0.000
 RMSDP=8.73D-06 MaxDP=2.86D-04 DE=-7.06D-06 OVMax= 2.11D-04

 Cycle  10  Pass 1  IDiag  1:
 RMSU=  3.64D-05    CP:  1.00D+00
 E= -1900.97082959160     Delta-E=       -0.000001918546 Rises=F Damp=F
 DIIS: error= 1.74D-05 at cycle   2 NSaved=   2.
 NSaved= 2 IEnMin= 2 EnMin= -1900.97082959160     IErMin= 2 ErrMin= 1.74D-05
 ErrMax= 1.74D-05 EMaxC= 1.00D-01 BMatC= 3.44D-08 BMatP= 1.83D-06
 IDIUse=1 WtCom= 1.00D+00 WtEn= 0.00D+00
 Coeff-Com: -0.369D-01 0.104D+01
 Coeff:     -0.369D-01 0.104D+01
 Gap=     0.385 Goal=   None    Shift=    0.000
 RMSDP=2.99D-06 MaxDP=4.53D-05 DE=-1.92D-06 OVMax= 1.43D-04

 Cycle  11  Pass 1  IDiag  1:
 RMSU=  9.30D-07    CP:  1.00D+00  1.05D+00
 E= -1900.97082970511     Delta-E=       -0.000000113516 Rises=F Damp=F
 DIIS: error= 9.36D-06 at cycle   3 NSaved=   3.
 NSaved= 3 IEnMin= 3 EnMin= -1900.97082970511     IErMin= 3 ErrMin= 9.36D-06
 ErrMax= 9.36D-06 EMaxC= 1.00D-01 BMatC= 1.61D-08 BMatP= 3.44D-08
 IDIUse=1 WtCom= 1.00D+00 WtEn= 0.00D+00
 Coeff-Com: -0.224D-01 0.284D+00 0.738D+00
 Coeff:     -0.224D-01 0.284D+00 0.738D+00
 Gap=     0.385 Goal=   None    Shift=    0.000
 RMSDP=5.97D-07 MaxDP=1.51D-05 DE=-1.14D-07 OVMax= 6.75D-05

 Cycle  12  Pass 1  IDiag  1:
 RMSU=  3.93D-07    CP:  1.00D+00  1.05D+00  1.15D+00
 E= -1900.97082974242     Delta-E=       -0.000000037306 Rises=F Damp=F
 DIIS: error= 8.16D-06 at cycle   4 NSaved=   4.
 NSaved= 4 IEnMin= 4 EnMin= -1900.97082974242     IErMin= 4 ErrMin= 8.16D-06
 ErrMax= 8.16D-06 EMaxC= 1.00D-01 BMatC= 5.14D-09 BMatP= 1.61D-08
 IDIUse=1 WtCom= 1.00D+00 WtEn= 0.00D+00
 Coeff-Com:  0.244D-01-0.608D+00-0.285D+00 0.187D+01
 Coeff:      0.244D-01-0.608D+00-0.285D+00 0.187D+01
 Gap=     0.385 Goal=   None    Shift=    0.000
 RMSDP=1.05D-06 MaxDP=2.92D-05 DE=-3.73D-08 OVMax= 1.42D-04

 Cycle  13  Pass 1  IDiag  1:
 RMSU=  2.79D-07    CP:  1.00D+00  1.06D+00  1.73D+00  2.06D+00
 E= -1900.97082977970     Delta-E=       -0.000000037277 Rises=F Damp=F
 DIIS: error= 1.16D-06 at cycle   5 NSaved=   5.
 NSaved= 5 IEnMin= 5 EnMin= -1900.97082977970     IErMin= 5 ErrMin= 1.16D-06
 ErrMax= 1.16D-06 EMaxC= 1.00D-01 BMatC= 4.33D-10 BMatP= 5.14D-09
 IDIUse=1 WtCom= 1.00D+00 WtEn= 0.00D+00
 Coeff-Com:  0.796D-02-0.174D+00-0.144D+00 0.444D+00 0.865D+00
 Coeff:      0.796D-02-0.174D+00-0.144D+00 0.444D+00 0.865D+00
 Gap=     0.385 Goal=   None    Shift=    0.000
 RMSDP=2.04D-07 MaxDP=5.75D-06 DE=-3.73D-08 OVMax= 2.46D-05

 Cycle  14  Pass 1  IDiag  1:
 RMSU=  6.94D-08    CP:  1.00D+00  1.05D+00  1.80D+00  2.30D+00  1.19D+00
 E= -1900.97082978120     Delta-E=       -0.000000001509 Rises=F Damp=F
 DIIS: error= 7.38D-07 at cycle   6 NSaved=   6.
 NSaved= 6 IEnMin= 6 EnMin= -1900.97082978120     IErMin= 6 ErrMin= 7.38D-07
 ErrMax= 7.38D-07 EMaxC= 1.00D-01 BMatC= 7.17D-11 BMatP= 4.33D-10
 IDIUse=1 WtCom= 1.00D+00 WtEn= 0.00D+00
 Coeff-Com: -0.333D-02 0.869D-01 0.390D-01-0.285D+00 0.149D+00 0.101D+01
 Coeff:     -0.333D-02 0.869D-01 0.390D-01-0.285D+00 0.149D+00 0.101D+01
 Gap=     0.385 Goal=   None    Shift=    0.000
 RMSDP=6.95D-08 MaxDP=1.53D-06 DE=-1.51D-09 OVMax= 8.74D-06

 Cycle  15  Pass 1  IDiag  1:
 RMSU=  3.02D-08    CP:  1.00D+00  1.05D+00  1.80D+00  2.35D+00  1.30D+00
                    CP:  1.14D+00
 E= -1900.97082978137     Delta-E=       -0.000000000165 Rises=F Damp=F
 DIIS: error= 1.71D-07 at cycle   7 NSaved=   7.
 NSaved= 7 IEnMin= 7 EnMin= -1900.97082978137     IErMin= 7 ErrMin= 1.71D-07
 ErrMax= 1.71D-07 EMaxC= 1.00D-01 BMatC= 1.06D-11 BMatP= 7.17D-11
 IDIUse=1 WtCom= 1.00D+00 WtEn= 0.00D+00
 Coeff-Com: -0.121D-02 0.269D-01 0.244D-01-0.822D-01-0.103D+00 0.401D-01
 Coeff-Com:  0.109D+01
 Coeff:     -0.121D-02 0.269D-01 0.244D-01-0.822D-01-0.103D+00 0.401D-01
 Coeff:      0.109D+01
 Gap=     0.385 Goal=   None    Shift=    0.000
 RMSDP=3.09D-08 MaxDP=8.42D-07 DE=-1.65D-10 OVMax= 3.59D-06

 Cycle  16  Pass 1  IDiag  1:
 RMSU=  1.25D-08    CP:  1.00D+00  1.05D+00  1.81D+00  2.36D+00  1.32D+00
                    CP:  1.30D+00  1.30D+00
 E= -1900.97082978146     Delta-E=       -0.000000000086 Rises=F Damp=F
 DIIS: error= 1.31D-07 at cycle   8 NSaved=   8.
 NSaved= 8 IEnMin= 8 EnMin= -1900.97082978146     IErMin= 8 ErrMin= 1.31D-07
 ErrMax= 1.31D-07 EMaxC= 1.00D-01 BMatC= 2.94D-12 BMatP= 1.06D-11
 IDIUse=1 WtCom= 1.00D+00 WtEn= 0.00D+00
 Coeff-Com:  0.415D-03-0.123D-01 0.684D-03 0.405D-01-0.618D-01-0.236D+00
 Coeff-Com:  0.347D+00 0.922D+00
 Coeff:      0.415D-03-0.123D-01 0.684D-03 0.405D-01-0.618D-01-0.236D+00
 Coeff:      0.347D+00 0.922D+00
 Gap=     0.385 Goal=   None    Shift=    0.000
 RMSDP=1.36D-08 MaxDP=3.87D-07 DE=-8.64D-11 OVMax= 1.34D-06

 Cycle  17  Pass 1  IDiag  1:
 RMSU=  5.63D-09    CP:  1.00D+00  1.05D+00  1.81D+00  2.36D+00  1.32D+00
                    CP:  1.33D+00  1.54D+00  1.05D+00
 E= -1900.97082978146     Delta-E=       -0.000000000005 Rises=F Damp=F
 DIIS: error= 5.15D-08 at cycle   9 NSaved=   9.
 NSaved= 9 IEnMin= 9 EnMin= -1900.97082978146     IErMin= 9 ErrMin= 5.15D-08
 ErrMax= 5.15D-08 EMaxC= 1.00D-01 BMatC= 2.86D-13 BMatP= 2.94D-12
 IDIUse=1 WtCom= 1.00D+00 WtEn= 0.00D+00
 Coeff-Com:  0.134D-03-0.306D-02-0.192D-02 0.810D-02 0.107D-01-0.133D-01
 Coeff-Com: -0.952D-01 0.972D-02 0.108D+01
 Coeff:      0.134D-03-0.306D-02-0.192D-02 0.810D-02 0.107D-01-0.133D-01
 Coeff:     -0.952D-01 0.972D-02 0.108D+01
 Gap=     0.385 Goal=   None    Shift=    0.000
 RMSDP=5.25D-09 MaxDP=1.67D-07 DE=-4.55D-12 OVMax= 5.57D-07

 SCF Done:  E(RHF) =  -1900.97082978     A.U. after   17 cycles
             Convg  =    0.5255D-08             -V/T =  2.0002
 KE= 1.900559521868D+03 PE=-1.113169059444D+04 EE= 3.994745350772D+03
 Leave Link  502 at Sat Aug 27 03:23:27 2022, MaxMem=  209715200 cpu:     720.2
 (Enter /opt/gaussian/l601.exe)
 Copying SCF densities to generalized density rwf, IOpCl= 0 IROHF=0.

 **********************************************************************

            Population analysis using the SCF density.

 **********************************************************************

 Orbital symmetries:
       Occupied  (A) (A) (A) (A) (A) (A) (A) (A) (A) (A) (A) (A)
                 (A) (A) (A) (A) (A) (A) (A) (A) (A) (A) (A) (A)
                 (A) (A) (A) (A) (A) (A) (A) (A) (A) (A) (A) (A)
                 (A) (A) (A) (A) (A) (A) (A) (A) (A) (A) (A) (A)
                 (A) (A) (A) (A) (A) (A) (A) (A) (A) (A) (A) (A)
                 (A) (A) (A) (A) (A) (A) (A) (A) (A) (A) (A) (A)
                 (A) (A) (A) (A) (A) (A) (A) (A) (A) (A) (A) (A)
                 (A) (A) (A) (A) (A) (A) (A) (A) (A) (A) (A) (A)
                 (A) (A) (A) (A) (A) (A) (A) (A) (A) (A) (A) (A)
                 (A) (A) (A) (A) (A) (A) (A) (A) (A) (A) (A) (A)
                 (A) (A)
       Virtual   (A) (A) (A) (A) (A) (A) (A) (A) (A) (A) (A) (A)
                 (A) (A) (A) (A) (A) (A) (A) (A) (A) (A) (A) (A)
                 (A) (A) (A) (A) (A) (A) (A) (A) (A) (A) (A) (A)
                 (A) (A) (A) (A) (A) (A) (A) (A) (A) (A) (A) (A)
                 (A) (A) (A) (A) (A) (A) (A) (A) (A) (A) (A) (A)
                 (A) (A) (A) (A) (A) (A) (A) (A) (A) (A) (A) (A)
                 (A) (A) (A) (A) (A) (A) (A) (A) (A) (A) (A) (A)
                 (A) (A) (A) (A) (A) (A) (A) (A) (A) (A) (A) (A)
                 (A) (A) (A) (A) (A) (A) (A) (A) (A) (A) (A) (A)
                 (A) (A) (A) (A) (A) (A) (A) (A) (A) (A) (A) (A)
                 (A) (A) (A) (A) (A) (A) (A) (A) (A) (A) (A) (A)
                 (A) (A) (A) (A) (A) (A) (A) (A) (A) (A) (A) (A)
                 (A) (A) (A) (A) (A) (A) (A) (A) (A) (A) (A) (A)
                 (A) (A) (A) (A) (A) (A) (A) (A) (A) (A) (A) (A)
                 (A) (A) (A) (A) (A) (A) (A) (A) (A) (A) (A) (A)
                 (A) (A) (A) (A) (A) (A) (A) (A) (A) (A) (A) (A)
                 (A) (A) (A) (A) (A) (A) (A) (A) (A) (A) (A) (A)
                 (A) (A) (A) (A) (A) (A) (A) (A) (A) (A) (A) (A)
                 (A) (A) (A) (A) (A) (A) (A) (A) (A) (A)
 The electronic state is 1-A.
 Alpha  occ. eigenvalues -- -104.85112 -26.33752 -20.56706 -15.67996 -15.66523
 Alpha  occ. eigenvalues --  -15.63937 -15.63233 -15.58456 -11.40828 -11.38379
 Alpha  occ. eigenvalues --  -11.35303 -11.33995 -11.32861 -11.31629 -11.31038
 Alpha  occ. eigenvalues --  -11.30133 -11.29919 -11.29824 -11.29472 -11.29116
 Alpha  occ. eigenvalues --  -11.28876 -11.28799 -11.27457 -11.27328 -11.27219
 Alpha  occ. eigenvalues --  -11.27153 -11.26759 -11.26435 -11.26348 -11.26020
 Alpha  occ. eigenvalues --  -11.25994 -11.25989 -11.25593 -11.25453 -10.59295
 Alpha  occ. eigenvalues --   -8.06171  -8.05704  -8.05697  -1.65472  -1.47221
 Alpha  occ. eigenvalues --   -1.42341  -1.30096  -1.27204  -1.25455  -1.23927
 Alpha  occ. eigenvalues --   -1.18007  -1.17891  -1.16984  -1.11086  -1.09092
 Alpha  occ. eigenvalues --   -1.06795  -1.05847  -1.05315  -1.04102  -1.03453
 Alpha  occ. eigenvalues --   -1.03090  -1.00343  -0.97614  -0.90028  -0.89221
 Alpha  occ. eigenvalues --   -0.89041  -0.87459  -0.85915  -0.85532  -0.84236
 Alpha  occ. eigenvalues --   -0.83374  -0.81008  -0.77769  -0.76787  -0.75224
 Alpha  occ. eigenvalues --   -0.73522  -0.72978  -0.72882  -0.71850  -0.71652
 Alpha  occ. eigenvalues --   -0.70860  -0.69428  -0.68231  -0.67243  -0.66433
 Alpha  occ. eigenvalues --   -0.66129  -0.65235  -0.64584  -0.64493  -0.63537
 Alpha  occ. eigenvalues --   -0.63166  -0.62524  -0.62380  -0.62073  -0.61211
 Alpha  occ. eigenvalues --   -0.60406  -0.59647  -0.59100  -0.58618  -0.57496
 Alpha  occ. eigenvalues --   -0.56759  -0.55354  -0.55143  -0.54612  -0.54397
 Alpha  occ. eigenvalues --   -0.53967  -0.53922  -0.51971  -0.51717  -0.51498
 Alpha  occ. eigenvalues --   -0.50520  -0.50405  -0.49430  -0.48274  -0.46475
 Alpha  occ. eigenvalues --   -0.43810  -0.43425  -0.42213  -0.40973  -0.38908
 Alpha  occ. eigenvalues --   -0.38155  -0.36695  -0.36453  -0.35247  -0.34682
 Alpha  occ. eigenvalues --   -0.33590  -0.30316
 Alpha virt. eigenvalues --    0.08134   0.08291   0.08555   0.09383   0.11354
 Alpha virt. eigenvalues --    0.12670   0.13272   0.13716   0.17135   0.17354
 Alpha virt. eigenvalues --    0.18956   0.19865   0.21210   0.22790   0.22989
 Alpha virt. eigenvalues --    0.23652   0.24414   0.25381   0.26336   0.26976
 Alpha virt. eigenvalues --    0.27768   0.28556   0.28833   0.29173   0.30240
 Alpha virt. eigenvalues --    0.30477   0.31072   0.31342   0.32220   0.32222
 Alpha virt. eigenvalues --    0.32505   0.33608   0.33995   0.35362   0.36037
 Alpha virt. eigenvalues --    0.36520   0.36964   0.38050   0.38431   0.39978
 Alpha virt. eigenvalues --    0.40234   0.40865   0.42457   0.42536   0.42750
 Alpha virt. eigenvalues --    0.43679   0.44833   0.46474   0.47493   0.48156
 Alpha virt. eigenvalues --    0.48314   0.49450   0.49865   0.50568   0.50864
 Alpha virt. eigenvalues --    0.51619   0.54215   0.54788   0.55248   0.55763
 Alpha virt. eigenvalues --    0.56293   0.56641   0.59840   0.60994   0.61240
 Alpha virt. eigenvalues --    0.61454   0.62526   0.63127   0.65241   0.69857
 Alpha virt. eigenvalues --    0.70432   0.70559   0.71509   0.72344   0.72694
 Alpha virt. eigenvalues --    0.72882   0.73500   0.74256   0.75071   0.75444
 Alpha virt. eigenvalues --    0.75972   0.76346   0.76864   0.77090   0.77536
 Alpha virt. eigenvalues --    0.78578   0.78661   0.79579   0.79731   0.81367
 Alpha virt. eigenvalues --    0.81505   0.81856   0.82481   0.82905   0.83217
 Alpha virt. eigenvalues --    0.83613   0.83787   0.83974   0.84332   0.84855
 Alpha virt. eigenvalues --    0.85054   0.85636   0.85845   0.85959   0.86286
 Alpha virt. eigenvalues --    0.86564   0.87136   0.87484   0.87875   0.88608
 Alpha virt. eigenvalues --    0.88923   0.89164   0.89938   0.90763   0.90898
 Alpha virt. eigenvalues --    0.91420   0.92574   0.93577   0.94030   0.94447
 Alpha virt. eigenvalues --    0.94613   0.95141   0.96203   0.96491   0.97348
 Alpha virt. eigenvalues --    0.98251   0.98928   0.99951   1.00342   1.00735
 Alpha virt. eigenvalues --    1.01373   1.02776   1.03514   1.05733   1.06028
 Alpha virt. eigenvalues --    1.07805   1.08779   1.09100   1.09444   1.09983
 Alpha virt. eigenvalues --    1.10483   1.11045   1.11214   1.11596   1.12013
 Alpha virt. eigenvalues --    1.12186   1.13081   1.13223   1.13825   1.14622
 Alpha virt. eigenvalues --    1.14765   1.15101   1.15870   1.16526   1.17301
 Alpha virt. eigenvalues --    1.18029   1.19610   1.19837   1.20707   1.21615
 Alpha virt. eigenvalues --    1.22036   1.22757   1.23062   1.24763   1.25211
 Alpha virt. eigenvalues --    1.26186   1.27292   1.27667   1.29415   1.29487
 Alpha virt. eigenvalues --    1.29778   1.30181   1.31098   1.31810   1.32517
 Alpha virt. eigenvalues --    1.34580   1.35167   1.36231   1.37187   1.37523
 Alpha virt. eigenvalues --    1.38116   1.40380   1.41034   1.41512   1.41798
 Alpha virt. eigenvalues --    1.42510   1.43224   1.44487   1.47022   1.47300
 Alpha virt. eigenvalues --    1.48891   1.49732   1.51406   1.51696   1.52714
 Alpha virt. eigenvalues --    1.54226   1.54810   1.57179   1.58345   1.58399
 Alpha virt. eigenvalues --    1.58987   1.62005   1.64632   1.66394   1.67392
 Alpha virt. eigenvalues --    1.69147   1.69830   1.70840   1.71062   1.73374
 Alpha virt. eigenvalues --    1.73764   1.76622   1.78892   1.83102   1.85340
 Alpha virt. eigenvalues --    1.86548   1.98486   1.99799   2.02318   2.05506
 Alpha virt. eigenvalues --    2.09539   2.13379   2.22150   2.22264   2.32005
 Alpha virt. eigenvalues --    2.66333
          Condensed to atoms (all electrons):
 Mulliken atomic charges:
              1
     1  F   -0.424753
     2  C    0.481340
     3  C   -0.227182
     4  C   -0.202341
     5  C   -0.005723
     6  C   -0.138912
     7  C   -0.426145
     8  Cl   0.208075
     9  C   -0.139331
    10  N   -0.982182
    11  C    0.778874
    12  O   -0.576252
    13  C   -0.151412
    14  N   -0.776562
    15  N    0.117642
    16  N   -0.307161
    17  C    0.035430
    18  C   -0.102566
    19  C   -0.233307
    20  C   -0.199651
    21  C   -0.126421
    22  C    0.378124
    23  C    0.346434
    24  C   -0.221385
    25  C   -0.200817
    26  C   -0.025996
    27  C   -0.207645
    28  C   -0.155894
    29  C   -0.088082
    30  C   -0.142026
    31  C   -0.246719
    32  C    0.049323
    33  N   -0.529390
    34  C    0.056063
    35  H    0.247841
    36  H    0.249404
    37  H    0.253403
    38  H    0.225183
    39  H    0.207597
    40  H    0.252462
    41  H    0.226675
    42  H    0.250187
    43  H    0.212985
    44  H    0.213113
    45  H    0.219988
    46  H    0.228657
    47  H    0.220683
    48  H    0.230653
    49  H    0.266340
    50  H    0.228194
    51  H    0.218119
    52  H    0.212606
    53  H    0.222460
 Sum of Mulliken atomic charges =   0.00000
 Mulliken charges with hydrogens summed into heavy atoms:
              1
     1  F   -0.424753
     2  C    0.481340
     3  C    0.020659
     4  C    0.047063
     5  C   -0.005723
     6  C    0.114491
     7  C   -0.426145
     8  Cl   0.208075
     9  C    0.293449
    10  N   -0.982182
    11  C    0.778874
    12  O   -0.576252
    13  C    0.327725
    14  N   -0.776562
    15  N    0.117642
    16  N   -0.307161
    17  C    0.035430
    18  C    0.147621
    19  C   -0.020322
    20  C    0.013463
    21  C    0.093567
    22  C    0.378124
    23  C    0.346434
    24  C    0.007272
    25  C    0.019866
    26  C   -0.025996
    27  C    0.023008
    28  C    0.110446
    29  C   -0.088082
    30  C    0.086168
    31  C   -0.028599
    32  C    0.261928
    33  N   -0.529390
    34  C    0.278523
 Sum of Mulliken charges with hydrogens summed into heavy atoms =   0.00000
 Electronic spatial extent (au):  <R**2>=          21941.8904
 Charge=              0.0000 electrons
 Dipole moment (field-independent basis, Debye):
    X=              1.0078    Y=              4.9099    Z=              1.9580  Tot=              5.3811
 Quadrupole moment (field-independent basis, Debye-Ang):
   XX=           -216.1631   YY=           -246.6611   ZZ=           -195.6438
   XY=            -10.7163   XZ=              0.6363   YZ=            -16.1923
 Traceless Quadrupole moment (field-independent basis, Debye-Ang):
   XX=              3.3262   YY=            -27.1718   ZZ=             23.8455
   XY=            -10.7163   XZ=              0.6363   YZ=            -16.1923
 Octapole moment (field-independent basis, Debye-Ang**2):
  XXX=            150.3346  YYY=             -6.9067  ZZZ=             17.7514  XYY=            -43.1242
  XXY=            104.5828  XXZ=            207.9998  XZZ=             11.8658  YZZ=             29.3953
  YYZ=             21.7442  XYZ=            -73.4245
 Hexadecapole moment (field-independent basis, Debye-Ang**3):
 XXXX=         -19919.6616 YYYY=         -10459.9289 ZZZZ=          -1819.9323 XXXY=           -892.7912
 XXXZ=           -625.5811 YYYX=           -159.6371 YYYZ=           -352.7944 ZZZX=             85.0314
 ZZZY=            -20.6513 XXYY=          -5155.1548 XXZZ=          -3233.4585 YYZZ=          -1973.1426
 XXYZ=           -342.9341 YYXZ=            235.4016 ZZXY=             -6.1622
 N-N= 3.335414892023D+03 E-N=-1.113169059415D+04  KE= 1.900559521868D+03
 No NMR shielding tensors so no spin-rotation constants.
 Leave Link  601 at Sat Aug 27 03:23:27 2022, MaxMem=  209715200 cpu:       1.5
 (Enter /opt/gaussian/l701.exe)
 Compute integral first derivatives.
 ... and contract with generalized density number  0.
 Leave Link  701 at Sat Aug 27 03:23:27 2022, MaxMem=  209715200 cpu:       1.3
 (Enter /opt/gaussian/l702.exe)
 L702 exits ... SP integral derivatives will be done elsewhere.
 Leave Link  702 at Sat Aug 27 03:23:27 2022, MaxMem=  209715200 cpu:       0.2
 (Enter /opt/gaussian/l703.exe)
 Compute integral first derivatives, UseDBF=F ICtDFT=           0.
 Integral derivatives from FoFDir, PRISM(SPDF).
 Calling FoFJK, ICntrl=      2127 FMM=F ISym2X=0 I1Cent= 0 IOpClX= 0 NMat=1 NMatS=1 NMatT=0.
 FoFCou: FMM=F IPFlag=           0 FMFlag=      100000 FMFlg1=         800
         NFxFlg=           0 DoJE=F BraDBF=F KetDBF=F FulRan=T
         Omega=  0.000000  0.000000  1.000000  0.000000  0.000000 ICntrl=    2127 IOpCl=  0
         NMat0=    1 NMatS0=    1 NMatT0=    0 NMatD0=    1 NMtDS0=    0 NMtDT0=    0
         I1Cent=           0 NGrid=           0.
 Symmetry not used in FoFCou.
 Leave Link  703 at Sat Aug 27 03:24:01 2022, MaxMem=  209715200 cpu:     268.4
 (Enter /opt/gaussian/l716.exe)
 Dipole        = 3.96491696D-01 1.93170369D+00 7.70349569D-01
 ***** Axes restored to original set *****
 -------------------------------------------------------------------
 Center     Atomic                   Forces (Hartrees/Bohr)
 Number     Number              X              Y              Z
 -------------------------------------------------------------------
      1        9           0.002691991   -0.006645519   -0.002430865
      2        6          -0.023931872    0.032215000    0.030781246
      3        6           0.009944108   -0.015487056   -0.011546349
      4        6          -0.002134594    0.008932258   -0.002648581
      5        6           0.004620429   -0.009303586   -0.008281521
      6        6           0.001141712    0.000026996   -0.001269053
      7        6          -0.001170025    0.059501912   -0.028867810
      8       17           0.008601491   -0.052705387    0.011149391
      9        6           0.002111718   -0.012708248    0.045849387
     10        7           0.017402758    0.018309445   -0.012245964
     11        6          -0.022830288    0.017108213   -0.007377337
     12        8           0.023423777   -0.026341106    0.013184779
     13        6           0.009745021   -0.019682218    0.022394571
     14        7          -0.001859992    0.011342705   -0.054315206
     15        7          -0.002777476   -0.010364269    0.013803057
     16        7           0.009114812   -0.007910167   -0.029049714
     17        6          -0.010556245   -0.045049733    0.016531283
     18        6          -0.000686853    0.011387950    0.004152256
     19        6           0.005583783    0.009785333   -0.010387234
     20        6           0.001518482   -0.009429630   -0.008463992
     21        6          -0.004059923   -0.010343761    0.003736462
     22        6           0.005008417    0.041463896    0.020843773
     23        6          -0.026076971    0.002753482   -0.007137950
     24        6           0.014157120   -0.000505422    0.002343279
     25        6          -0.003631589   -0.005578786   -0.003260835
     26        6           0.018907553    0.000788486    0.003988206
     27        6          -0.002287104    0.005645460    0.001976269
     28        6           0.008629197    0.007659173    0.006613606
     29        6          -0.029794755    0.001794854   -0.000508421
     30        6           0.000193793   -0.002912209   -0.003006213
     31        6          -0.007836557    0.001112410    0.001990880
     32        6          -0.012499640   -0.002235836   -0.004111588
     33        7           0.017978485   -0.011741840   -0.016099432
     34        6           0.002356563    0.004737255    0.005765121
     35        1          -0.006608185   -0.008850917    0.017752068
     36        1           0.000708629   -0.022511235    0.004651807
     37        1           0.007959858    0.005522089   -0.019328085
     38        1           0.023693780    0.020155084   -0.011424499
     39        1          -0.022877459   -0.009243911   -0.017486415
     40        1           0.002177857    0.000895004   -0.030319809
     41        1          -0.012768548    0.024775230    0.019113130
     42        1          -0.003047139   -0.019841808    0.000926406
     43        1          -0.007974439   -0.008472822    0.016698227
     44        1          -0.005438297    0.011045670    0.016041004
     45        1           0.004423125    0.018706420   -0.001393340
     46        1          -0.013783643    0.017441246    0.003550205
     47        1           0.007698990    0.016909493    0.008950230
     48        1           0.013908717   -0.015905525   -0.003268461
     49        1          -0.007688113   -0.022882142   -0.008771266
     50        1          -0.013847671    0.009548770    0.011177018
     51        1           0.005300321    0.010442068    0.014942051
     52        1           0.023697206    0.001371062    0.003097531
     53        1          -0.006532317   -0.014723832   -0.019003300
 -------------------------------------------------------------------
 Cartesian Forces:  Max     0.059501912 RMS     0.016123766
 Leave Link  716 at Sat Aug 27 03:24:01 2022, MaxMem=  209715200 cpu:       0.2
 (Enter /opt/gaussian/l103.exe)

 GradGradGradGradGradGradGradGradGradGradGradGradGradGradGradGradGradGrad
 Berny optimization.
 Internal  Forces:  Max     0.054406726 RMS     0.010182792
 Search for a local minimum.
 Step number   1 out of a maximum of  297
 All quantities printed in internal units (Hartrees-Bohrs-Radians)
 RMS Force = .10183D-01 SwitMx=.10000D-02 MixMth= 1
 Mixed Optimization -- RFO/linear search
 Second derivative matrix not updated -- first step.
 ITU=  0
     Eigenvalues ---    0.00230   0.00684   0.00818   0.01114   0.01176
     Eigenvalues ---    0.01343   0.01397   0.01398   0.01533   0.01572
     Eigenvalues ---    0.01682   0.01691   0.01763   0.01771   0.01775
     Eigenvalues ---    0.01785   0.01849   0.01950   0.01973   0.01977
     Eigenvalues ---    0.01997   0.02025   0.02050   0.02054   0.02060
     Eigenvalues ---    0.02072   0.02075   0.02095   0.02096   0.02096
     Eigenvalues ---    0.02107   0.02109   0.02112   0.02115   0.02126
     Eigenvalues ---    0.02126   0.02130   0.02142   0.02144   0.02155
     Eigenvalues ---    0.02164   0.02174   0.02179   0.02182   0.02184
     Eigenvalues ---    0.02318   0.04561   0.04810   0.06485   0.06499
     Eigenvalues ---    0.10291   0.10821   0.13455   0.13762   0.15996
     Eigenvalues ---    0.15999   0.15999   0.16000   0.16000   0.16000
     Eigenvalues ---    0.16000   0.16000   0.16000   0.16000   0.16000
     Eigenvalues ---    0.16000   0.16000   0.16000   0.16000   0.21999
     Eigenvalues ---    0.22000   0.22000   0.22082   0.22154   0.22367
     Eigenvalues ---    0.22514   0.22597   0.22955   0.23196   0.23444
     Eigenvalues ---    0.23483   0.23997   0.24381   0.24534   0.24603
     Eigenvalues ---    0.24807   0.24866   0.24964   0.24986   0.24988
     Eigenvalues ---    0.24991   0.24999   0.25000   0.25000   0.25000
     Eigenvalues ---    0.25000   0.28382   0.30374   0.30490   0.30614
     Eigenvalues ---    0.30692   0.31738   0.33087   0.33190   0.33388
     Eigenvalues ---    0.33411   0.33417   0.33494   0.33505   0.33534
     Eigenvalues ---    0.33581   0.33592   0.33618   0.33663   0.33744
     Eigenvalues ---    0.33903   0.33943   0.35029   0.36460   0.37422
     Eigenvalues ---    0.37996   0.39085   0.39723   0.40492   0.40857
     Eigenvalues ---    0.41065   0.41438   0.41509   0.41676   0.42122
     Eigenvalues ---    0.42774   0.43243   0.43405   0.44011   0.44501
     Eigenvalues ---    0.44625   0.44718   0.45140   0.45615   0.45761
     Eigenvalues ---    0.46008   0.46080   0.46119   0.46784   0.46836
     Eigenvalues ---    0.46909   0.47372   0.47511   0.53776   0.54623
     Eigenvalues ---    0.55115   0.77763   0.86707
 RFO step:  Lambda=-7.22147310D-02 EMin= 2.30000000D-03
 Linear search not attempted -- first point.
 Maximum step size (   0.300) exceeded in Quadratic search.
    -- Step size scaled by   0.740
 Iteration  1 RMS(Cart)=  0.11108076 RMS(Int)=  0.00213672
 Iteration  2 RMS(Cart)=  0.00564677 RMS(Int)=  0.00010417
 Iteration  3 RMS(Cart)=  0.00001213 RMS(Int)=  0.00010408
 Iteration  4 RMS(Cart)=  0.00000000 RMS(Int)=  0.00010408
 Variable       Old X    -DE/DX   Delta X   Delta X   Delta X     New X
                                 (Linear)    (Quad)   (Total)
    R1        2.55469   0.00682   0.00000   0.00816   0.00816   2.56285
    R2        2.65980  -0.03053   0.00000  -0.04461  -0.04457   2.61523
    R3        2.67028  -0.03362   0.00000  -0.05027  -0.05023   2.62005
    R4        2.62714  -0.00742   0.00000  -0.00973  -0.00973   2.61741
    R5        2.07979  -0.02082   0.00000  -0.03772  -0.03772   2.04207
    R6        2.64077  -0.00916   0.00000  -0.01155  -0.01159   2.62918
    R7        2.08335  -0.02279   0.00000  -0.04152  -0.04152   2.04183
    R8        2.64464  -0.00897   0.00000  -0.01172  -0.01176   2.63288
    R9        2.84626   0.01301   0.00000   0.02471   0.02471   2.87098
   R10        2.63895  -0.01301   0.00000  -0.01835  -0.01835   2.62060
   R11        2.08376  -0.02152   0.00000  -0.03921  -0.03921   2.04454
   R12        3.20369   0.05441   0.00000   0.09218   0.09218   3.29587
   R13        2.72816   0.01364   0.00000   0.02180   0.02180   2.74996
   R14        2.13923  -0.03286   0.00000  -0.06468  -0.06468   2.07456
   R15        2.13697  -0.02988   0.00000  -0.05864  -0.05864   2.07833
   R16        2.64568  -0.01590   0.00000  -0.02228  -0.02228   2.62340
   R17        2.68768   0.01067   0.00000   0.01600   0.01600   2.70369
   R18        2.34489  -0.03655   0.00000  -0.02880  -0.02880   2.31609
   R19        2.91311  -0.01098   0.00000  -0.02282  -0.02282   2.89029
   R20        2.71932  -0.00917   0.00000  -0.01446  -0.01446   2.70486
   R21        2.13456  -0.03027   0.00000  -0.05921  -0.05921   2.07535
[...]
 ! D134  D(31,32,33,34)          0.0822         -DE/DX =    0.0                 !
 ! D135  D(52,32,33,34)       -179.8818         -DE/DX =    0.0                 !
 ! D136  D(32,33,34,29)          0.1269         -DE/DX =    0.0                 !
 ! D137  D(32,33,34,53)       -178.9112         -DE/DX =    0.0                 !
 --------------------------------------------------------------------------------
 GradGradGradGradGradGradGradGradGradGradGradGradGradGradGradGradGradGrad

 Largest change from initial coordinates is atom    8       1.404 Angstoms.
 Leave Link  103 at Sat Aug 27 03:58:55 2022, MaxMem=  209715200 cpu:       0.8
 (Enter /opt/gaussian/l202.exe)
 Stoichiometry    C26H19ClFN5O
 Framework group  C1[X(C26H19ClFN5O)]
 Deg. of freedom   153
 Full point group                 C1      NOp   1
 RotChk:  IX=0 Diff= 5.83D-16
 Largest Abelian subgroup         C1      NOp   1
 Largest concise Abelian subgroup C1      NOp   1
                         Standard orientation:                         
 ---------------------------------------------------------------------
 Center     Atomic      Atomic             Coordinates (Angstroms)
 Number     Number       Type             X           Y           Z
 ---------------------------------------------------------------------
      1          9           0        3.184502    4.743210    1.930796
      2          6           0        2.496778    3.889361    1.119010
      3          6           0        1.823442    2.831126    1.683325
      4          6           0        1.121639    1.958182    0.864100
      5          6           0        1.096674    2.145042   -0.513263
      6          6           0        1.792823    3.222038   -1.057329
      7          6           0        2.487467    4.092351   -0.243544
      8         17           0        3.375994    5.473670   -0.954172
      9          6           0        0.322396    1.235031   -1.457226
     10          7           0       -0.155926   -0.017166   -0.869843
     11          6           0        0.681077   -1.080947   -0.631115
     12          8           0        0.317403   -2.084469   -0.039812
     13          6           0        2.112727   -0.962928   -1.141040
     14          7           0        2.855461   -2.168207   -0.944550
     15          7           0        3.026398   -3.027313   -1.991069
     16          7           0        3.672596   -4.044970   -1.601060
     17          6           0        3.955516   -3.907740   -0.251145
     18          6           0        4.641898   -4.750255    0.622174
     19          6           0        4.769223   -4.336280    1.925369
     20          6           0        4.220453   -3.107599    2.355584
     21          6           0        3.540084   -2.272854    1.501475
     22          6           0        3.419549   -2.699712    0.176711
     23          6           0       -1.558094   -0.125316   -0.571394
     24          6           0       -2.211789    0.901859    0.095085
     25          6           0       -3.575841    0.829107    0.332439
     26          6           0       -4.317255   -0.274878   -0.076162
     27          6           0       -3.646963   -1.302945   -0.739381
     28          6           0       -2.289330   -1.230022   -0.992423
     29          6           0       -5.776173   -0.355912    0.184096
     30          6           0       -6.322502   -0.012288    1.419018
     31          6           0       -7.691314   -0.103409    1.614202
     32          6           0       -8.485759   -0.540897    0.567332
     33          7           0       -7.973527   -0.870420   -0.616681
     34          6           0       -6.660710   -0.780545   -0.805643
     35          1           0        1.851838    2.702330    2.745890
     36          1           0        0.593746    1.136482    1.304743
     37          1           0        1.797697    3.389041   -2.116733
     38          1           0       -0.547818    1.760446   -1.822788
     39          1           0        0.931331    1.028084   -2.328285
     40          1           0        2.110949   -0.774999   -2.204414
     41          1           0        2.618761   -0.138930   -0.656550
     42          1           0        5.047032   -5.679465    0.275838
     43          1           0        5.287691   -4.950038    2.634992
     44          1           0        4.335942   -2.823676    3.383624
     45          1           0        3.113942   -1.351226    1.843218
     46          1           0       -1.669733    1.764968    0.426707
     47          1           0       -4.063468    1.646943    0.826746
     48          1           0       -4.186623   -2.176285   -1.049362
     49          1           0       -1.797669   -2.040026   -1.488021
     50          1           0       -5.682766    0.302658    2.220542
     51          1           0       -8.130486    0.149868    2.558211
     52          1           0       -9.547137   -0.631819    0.670866
     53          1           0       -6.305979   -1.040776   -1.782052
 ---------------------------------------------------------------------
 Rotational constants (GHZ):      0.1124071      0.0619913      0.0445182
 Leave Link  202 at Sat Aug 27 03:58:55 2022, MaxMem=  209715200 cpu:       0.0
 (Enter /opt/gaussian/l601.exe)
 Copying SCF densities to generalized density rwf, IOpCl= 0 IROHF=0.

 **********************************************************************

            Population analysis using the SCF density.

 **********************************************************************

 Orbital symmetries:
       Occupied  (A) (A) (A) (A) (A) (A) (A) (A) (A) (A) (A) (A)
                 (A) (A) (A) (A) (A) (A) (A) (A) (A) (A) (A) (A)
                 (A) (A) (A) (A) (A) (A) (A) (A) (A) (A) (A) (A)
                 (A) (A) (A) (A) (A) (A) (A) (A) (A) (A) (A) (A)
                 (A) (A) (A) (A) (A) (A) (A) (A) (A) (A) (A) (A)
                 (A) (A) (A) (A) (A) (A) (A) (A) (A) (A) (A) (A)
                 (A) (A) (A) (A) (A) (A) (A) (A) (A) (A) (A) (A)
                 (A) (A) (A) (A) (A) (A) (A) (A) (A) (A) (A) (A)
                 (A) (A) (A) (A) (A) (A) (A) (A) (A) (A) (A) (A)
                 (A) (A) (A) (A) (A) (A) (A) (A) (A) (A) (A) (A)
                 (A) (A)
       Virtual   (A) (A) (A) (A) (A) (A) (A) (A) (A) (A) (A) (A)
                 (A) (A) (A) (A) (A) (A) (A) (A) (A) (A) (A) (A)
                 (A) (A) (A) (A) (A) (A) (A) (A) (A) (A) (A) (A)
                 (A) (A) (A) (A) (A) (A) (A) (A) (A) (A) (A) (A)
                 (A) (A) (A) (A) (A) (A) (A) (A) (A) (A) (A) (A)
                 (A) (A) (A) (A) (A) (A) (A) (A) (A) (A) (A) (A)
                 (A) (A) (A) (A) (A) (A) (A) (A) (A) (A) (A) (A)
                 (A) (A) (A) (A) (A) (A) (A) (A) (A) (A) (A) (A)
                 (A) (A) (A) (A) (A) (A) (A) (A) (A) (A) (A) (A)
                 (A) (A) (A) (A) (A) (A) (A) (A) (A) (A) (A) (A)
                 (A) (A) (A) (A) (A) (A) (A) (A) (A) (A) (A) (A)
                 (A) (A) (A) (A) (A) (A) (A) (A) (A) (A) (A) (A)
                 (A) (A) (A) (A) (A) (A) (A) (A) (A) (A) (A) (A)
                 (A) (A) (A) (A) (A) (A) (A) (A) (A) (A) (A) (A)
                 (A) (A) (A) (A) (A) (A) (A) (A) (A) (A) (A) (A)
                 (A) (A) (A) (A) (A) (A) (A) (A) (A) (A) (A) (A)
                 (A) (A) (A) (A) (A) (A) (A) (A) (A) (A) (A) (A)
                 (A) (A) (A) (A) (A) (A) (A) (A) (A) (A) (A) (A)
                 (A) (A) (A) (A) (A) (A) (A) (A) (A) (A)
 The electronic state is 1-A.
 Alpha  occ. eigenvalues -- -104.84762 -26.32941 -20.56108 -15.66948 -15.66078
 Alpha  occ. eigenvalues --  -15.63395 -15.61783 -15.57999 -11.39922 -11.37601
 Alpha  occ. eigenvalues --  -11.35189 -11.32219 -11.32122 -11.30773 -11.30068
 Alpha  occ. eigenvalues --  -11.30041 -11.29557 -11.29014 -11.28867 -11.28361
 Alpha  occ. eigenvalues --  -11.28264 -11.27066 -11.26917 -11.26846 -11.26733
 Alpha  occ. eigenvalues --  -11.26130 -11.25967 -11.25895 -11.25814 -11.25752
 Alpha  occ. eigenvalues --  -11.25581 -11.25495 -11.25444 -11.24571 -10.58648
 Alpha  occ. eigenvalues --   -8.05503  -8.05089  -8.05080  -1.64372  -1.48077
 Alpha  occ. eigenvalues --   -1.43398  -1.29919  -1.28446  -1.25609  -1.23645
 Alpha  occ. eigenvalues --   -1.18673  -1.18293  -1.15526  -1.11689  -1.09721
 Alpha  occ. eigenvalues --   -1.07694  -1.06814  -1.05727  -1.04895  -1.04365
 Alpha  occ. eigenvalues --   -1.03138  -1.01346  -0.98660  -0.90107  -0.90024
 Alpha  occ. eigenvalues --   -0.89350  -0.88169  -0.86323  -0.85713  -0.84976
 Alpha  occ. eigenvalues --   -0.84468  -0.81943  -0.78570  -0.76934  -0.75234
 Alpha  occ. eigenvalues --   -0.74337  -0.73657  -0.72940  -0.72515  -0.71137
 Alpha  occ. eigenvalues --   -0.70953  -0.70233  -0.68623  -0.68107  -0.66639
 Alpha  occ. eigenvalues --   -0.66171  -0.66037  -0.64948  -0.64587  -0.64146
 Alpha  occ. eigenvalues --   -0.63666  -0.63285  -0.62769  -0.62155  -0.61685
 Alpha  occ. eigenvalues --   -0.61601  -0.61017  -0.59427  -0.58553  -0.58174
 Alpha  occ. eigenvalues --   -0.56492  -0.56153  -0.55633  -0.54809  -0.54187
 Alpha  occ. eigenvalues --   -0.53857  -0.53766  -0.52620  -0.52034  -0.51213
 Alpha  occ. eigenvalues --   -0.51132  -0.50012  -0.49271  -0.47862  -0.45600
 Alpha  occ. eigenvalues --   -0.43831  -0.43380  -0.42833  -0.40828  -0.39265
 Alpha  occ. eigenvalues --   -0.38596  -0.37484  -0.36968  -0.35845  -0.34243
 Alpha  occ. eigenvalues --   -0.32638  -0.31859
 Alpha virt. eigenvalues --    0.08435   0.09074   0.09318   0.10053   0.11623
 Alpha virt. eigenvalues --    0.12047   0.14404   0.15398   0.15482   0.17391
 Alpha virt. eigenvalues --    0.19532   0.20429   0.22516   0.23686   0.24105
 Alpha virt. eigenvalues --    0.24353   0.24682   0.25383   0.26695   0.27388
 Alpha virt. eigenvalues --    0.28531   0.29141   0.29302   0.30026   0.30745
 Alpha virt. eigenvalues --    0.31065   0.31714   0.31821   0.32423   0.32732
 Alpha virt. eigenvalues --    0.33186   0.33792   0.34557   0.35820   0.36231
 Alpha virt. eigenvalues --    0.36763   0.37155   0.38974   0.39433   0.40553
 Alpha virt. eigenvalues --    0.40878   0.41812   0.42611   0.43111   0.43971
 Alpha virt. eigenvalues --    0.44247   0.45675   0.46674   0.47140   0.48328
 Alpha virt. eigenvalues --    0.48629   0.50322   0.50640   0.50932   0.51752
 Alpha virt. eigenvalues --    0.52273   0.53490   0.55359   0.55592   0.56318
 Alpha virt. eigenvalues --    0.56994   0.58707   0.59508   0.60212   0.61382
 Alpha virt. eigenvalues --    0.61965   0.63033   0.63778   0.65246   0.69580
 Alpha virt. eigenvalues --    0.70311   0.71048   0.71715   0.72230   0.72912
 Alpha virt. eigenvalues --    0.73571   0.73779   0.74525   0.74889   0.75365
 Alpha virt. eigenvalues --    0.75979   0.76600   0.76915   0.77407   0.77865
 Alpha virt. eigenvalues --    0.79301   0.79641   0.80178   0.80434   0.81647
 Alpha virt. eigenvalues --    0.81764   0.82181   0.82681   0.82772   0.83191
 Alpha virt. eigenvalues --    0.83374   0.84062   0.84462   0.84671   0.85079
 Alpha virt. eigenvalues --    0.85248   0.85471   0.85860   0.86066   0.86550
 Alpha virt. eigenvalues --    0.87058   0.87363   0.87974   0.88188   0.89234
 Alpha virt. eigenvalues --    0.89351   0.90305   0.90485   0.90783   0.91315
 Alpha virt. eigenvalues --    0.92568   0.93216   0.93498   0.94491   0.95282
 Alpha virt. eigenvalues --    0.95293   0.95866   0.96372   0.96672   0.98016
 Alpha virt. eigenvalues --    0.98782   0.99873   1.00023   1.00650   1.01238
 Alpha virt. eigenvalues --    1.01733   1.02772   1.05239   1.07166   1.08087
 Alpha virt. eigenvalues --    1.08567   1.09336   1.10095   1.10842   1.11514
 Alpha virt. eigenvalues --    1.11759   1.11955   1.12244   1.12780   1.13174
 Alpha virt. eigenvalues --    1.13503   1.14330   1.14607   1.14931   1.15291
 Alpha virt. eigenvalues --    1.15725   1.16063   1.16705   1.17173   1.17831
 Alpha virt. eigenvalues --    1.18567   1.19187   1.20469   1.20890   1.21138
 Alpha virt. eigenvalues --    1.22473   1.22863   1.23946   1.24992   1.26202
 Alpha virt. eigenvalues --    1.26956   1.27509   1.28547   1.29118   1.29512
 Alpha virt. eigenvalues --    1.29550   1.30617   1.31458   1.31690   1.32704
 Alpha virt. eigenvalues --    1.33896   1.34196   1.35452   1.37387   1.37848
 Alpha virt. eigenvalues --    1.38279   1.39108   1.40029   1.41544   1.42187
 Alpha virt. eigenvalues --    1.43726   1.44040   1.45510   1.46542   1.47653
 Alpha virt. eigenvalues --    1.48063   1.48634   1.49871   1.52060   1.52517
 Alpha virt. eigenvalues --    1.53755   1.54435   1.57620   1.58850   1.59709
 Alpha virt. eigenvalues --    1.61121   1.61890   1.63149   1.66081   1.67629
 Alpha virt. eigenvalues --    1.70528   1.70819   1.71712   1.73928   1.74175
 Alpha virt. eigenvalues --    1.74642   1.78529   1.80334   1.86461   1.87095
 Alpha virt. eigenvalues --    1.89335   1.95940   2.03298   2.06993   2.07813
 Alpha virt. eigenvalues --    2.10478   2.15032   2.24550   2.24701   2.33834
 Alpha virt. eigenvalues --    2.64945
          Condensed to atoms (all electrons):
 Mulliken atomic charges:
              1
     1  F   -0.430509
     2  C    0.465303
     3  C   -0.213400
     4  C   -0.201740
     5  C   -0.034007
     6  C   -0.156971
     7  C   -0.372523
     8  Cl   0.171877
     9  C   -0.078022
    10  N   -0.992196
    11  C    0.784666
    12  O   -0.564895
    13  C   -0.129656
    14  N   -0.884986
    15  N    0.095553
    16  N   -0.331907
    17  C   -0.020694
    18  C   -0.077205
    19  C   -0.233635
    20  C   -0.203715
    21  C   -0.065870
    22  C    0.490019
    23  C    0.327847
    24  C   -0.215129
    25  C   -0.201625
    26  C   -0.017186
    27  C   -0.207122
    28  C   -0.144452
    29  C   -0.089456
    30  C   -0.139218
    31  C   -0.245130
    32  C    0.059295
    33  N   -0.531992
    34  C    0.060773
    35  H    0.251464
    36  H    0.252938
    37  H    0.248732
    38  H    0.232057
    39  H    0.198252
    40  H    0.251364
    41  H    0.234597
    42  H    0.242534
    43  H    0.206032
    44  H    0.205954
    45  H    0.218737
    46  H    0.220413
    47  H    0.218727
    48  H    0.227526
    49  H    0.246128
    50  H    0.224093
    51  H    0.215962
    52  H    0.212766
    53  H    0.219633
 Sum of Mulliken atomic charges =   0.00000
 Mulliken charges with hydrogens summed into heavy atoms:
              1
     1  F   -0.430509
     2  C    0.465303
     3  C    0.038064
     4  C    0.051198
     5  C   -0.034007
     6  C    0.091761
     7  C   -0.372523
     8  Cl   0.171877
     9  C    0.352286
    10  N   -0.992196
    11  C    0.784666
    12  O   -0.564895
    13  C    0.356304
    14  N   -0.884986
    15  N    0.095553
    16  N   -0.331907
    17  C   -0.020694
    18  C    0.165329
    19  C   -0.027604
    20  C    0.002239
    21  C    0.152868
    22  C    0.490019
    23  C    0.327847
    24  C    0.005284
    25  C    0.017102
    26  C   -0.017186
    27  C    0.020404
    28  C    0.101676
    29  C   -0.089456
    30  C    0.084875
    31  C   -0.029167
    32  C    0.272062
    33  N   -0.531992
    34  C    0.280406
 Sum of Mulliken charges with hydrogens summed into heavy atoms =   0.00000
 Electronic spatial extent (au):  <R**2>=          22750.5887
 Charge=              0.0000 electrons
 Dipole moment (field-independent basis, Debye):
    X=             -0.9866    Y=              3.6740    Z=              3.1442  Tot=              4.9353
 Quadrupole moment (field-independent basis, Debye-Ang):
   XX=           -223.4235   YY=           -237.8980   ZZ=           -197.2802
   XY=            -14.8297   XZ=             -5.7906   YZ=            -16.3800
 Traceless Quadrupole moment (field-independent basis, Debye-Ang):
   XX=             -3.8896   YY=            -18.3641   ZZ=             22.2537
   XY=            -14.8297   XZ=             -5.7906   YZ=            -16.3800
 Octapole moment (field-independent basis, Debye-Ang**2):
  XXX=            102.2662  YYY=            -47.9665  ZZZ=             43.1252  XYY=            -55.0223
  XXY=              3.1126  XXZ=            210.0992  XZZ=             -3.7546  YZZ=             39.0381
  YYZ=             33.9908  XYZ=            -87.0782
 Hexadecapole moment (field-independent basis, Debye-Ang**3):
 XXXX=         -20974.8018 YYYY=         -10235.7388 ZZZZ=          -1804.0301 XXXY=           -565.3476
 XXXZ=          -1182.2152 YYYX=           -382.4124 YYYZ=           -335.7256 ZZZX=             87.2687
 ZZZY=            -89.2754 XXYY=          -5187.0221 XXZZ=          -3560.8084 YYZZ=          -2023.0277
 XXYZ=           -328.3579 YYXZ=            211.6524 ZZXY=             58.7197
 N-N= 3.322633187209D+03 E-N=-1.110804269622D+04  KE= 1.902463620157D+03
 No NMR shielding tensors so no spin-rotation constants.
 Leave Link  601 at Sat Aug 27 03:58:55 2022, MaxMem=  209715200 cpu:       1.5
 (Enter /opt/gaussian/l9999.exe)
 1\1\GINC-LQCAPF-6\FOpt\RHF\6-31G\C26H19Cl1F1N5O1\LQCAPF-6\27-Aug-2022\
 0\\#p opt hf/6-31G\\Mol29.out\\0,1\F,24.6074296948,-14.208884028,-2.53
 85962809\C,23.8463777612,-13.3397237045,-1.8130764801\C,23.1053189229,
 -12.3896597947,-2.4763286016\C,22.3287052762,-11.5019234492,-1.7452440
 669\C,22.2968524646,-11.5660997483,-0.3568873019\C,23.0623512901,-12.5
 349002746,0.2880869595\C,23.8315487607,-13.4200722048,-0.4378779456\Cl
 ,24.8088398792,-14.6617990488,0.4020817371\C,21.4433540764,-10.6358136
 019,0.4944651371\N,20.8827790996,-9.4805715476,-0.2076599311\C,21.6424
 477651,-8.3827361548,-0.5345475177\O,21.2146157868,-7.4662336827,-1.21
 71437291\C,23.0710561449,-8.3470788754,-0.0040954281\N,23.7256382994,-
 7.1119921658,-0.3024947363\N,23.8168802054,-6.1522889899,0.6634905231\
 N,24.3919713835,-5.1280928747,0.1885206407\C,24.7045630025,-5.36401446
 18,-1.1410561188\C,25.339940718,-4.5540112538,-2.0811766547\C,25.51711
 19662,-5.0722589784,-3.3405161287\C,25.0671141212,-6.3721514146,-3.662
 4984531\C,24.4374486566,-7.1757067293,-2.7421603594\C,24.2657722016,-6
 .6422252971,-1.4624486924\C,19.4811102109,-9.5048948377,-0.526371178\C
 ,18.9151676987,-10.6336628545,-1.1027300826\C,17.5531994289,-10.684818
 7564,-1.3570807846\C,16.7262152609,-9.6073381847,-1.0561370786\C,17.30
 86911166,-8.4767328752,-0.4829661497\C,18.664034831,-8.4248238745,-0.2
 130301749\C,15.2693847232,-9.6594240044,-1.3348382304\C,14.7685940868,
 -10.1521474159,-2.5381732636\C,13.3998872553,-10.1816423319,-2.7522276
 838\C,12.5596204771,-9.7129500106,-1.7558568161\N,13.0282200635,-9.241
 3414402,-0.6022310268\C,14.3410918305,-9.215360422,-0.3949534876\H,23.
 1401360547,-12.3547182805,-3.5459108865\H,21.7482780406,-10.7648164552
 ,-2.262742627\H,23.0635773944,-12.6055782814,1.3582513382\H,20.6089033
 356,-11.1900984657,0.8987296393\H,22.0221484081,-10.3067106332,1.34831
 50034\H,23.0671349867,-8.4386831197,1.0718595668\H,23.6437981327,-9.17
 09072057,-0.4078870235\H,25.6700889216,-3.5698087543,-1.8168628293\H,2
 5.9994782766,-4.4873746554,-4.0983455877\H,25.2187328924,-6.7374959949
 ,-4.6596697112\H,24.0857236423,-8.1535414303,-3.0027607185\H,19.524413
 3474,-11.4799543515,-1.3504487896\H,17.1347992841,-11.577830238,-1.779
 5105241\H,16.7014058693,-7.6220369156,-0.2577038746\H,19.0870169841,-7
 .539172713,0.2114267933\H,15.441845395,-10.488763438,-3.3025792225\H,1
 2.9948929527,-10.5505726581,-3.6731209847\H,11.4961077751,-9.711412866
 5,-1.8760520109\H,14.6608838463,-8.8429482542,0.5568718347\\Version=EM
 64L-G09RevC.01\State=1-A\HF=-1901.0177668\RMSD=3.629e-09\RMSF=2.213e-0
 6\Dipole=-0.2616746,-1.5753692,-1.1045114\Quadrupole=-4.7262527,-13.81
 79793,18.544232,12.2631692,3.7896856,-8.9068487\PG=C01 [X(C26H19Cl1F1N
 5O1)]\\@


 QUANTUM MECHANICS IS BOHRING -- M.S. GORDON
 Job cpu time:  0 days  4 hours 54 minutes 11.8 seconds.
 File lengths (MBytes):  RWF=     82 Int=      0 D2E=      0 Chk=     12 Scr=      1
 Normal termination of Gaussian 09 at Sat Aug 27 03:58:55 2022.
