 Entering Gaussian System, Link 0=g09
 Input=Mol22.gjf
 Output=Mol22.log
 Initial command:
 /opt/gaussian/l1.exe /home/scr/lqcapf-6/Gau-265178.inp -scrdir=/home/scr/lqcapf-6/
 Entering Link 1 = /opt/gaussian/l1.exe PID=    265180.
  
 Copyright (c) 1988,1990,1992,1993,1995,1998,2003,2009,2011,
            Gaussian, Inc.  All Rights Reserved.
  
 This is part of the Gaussian(R) 09 program.  It is based on
 the Gaussian(R) 03 system (copyright 2003, Gaussian, Inc.),
 the Gaussian(R) 98 system (copyright 1998, Gaussian, Inc.),
 the Gaussian(R) 94 system (copyright 1995, Gaussian, Inc.),
 the Gaussian 92(TM) system (copyright 1992, Gaussian, Inc.),
 the Gaussian 90(TM) system (copyright 1990, Gaussian, Inc.),
 the Gaussian 88(TM) system (copyright 1988, Gaussian, Inc.),
 the Gaussian 86(TM) system (copyright 1986, Carnegie Mellon
 University), and the Gaussian 82(TM) system (copyright 1983,
 Carnegie Mellon University). Gaussian is a federally registered
 trademark of Gaussian, Inc.
  
 This software contains proprietary and confidential information,
 including trade secrets, belonging to Gaussian, Inc.
  
 This software is provided under written license and may be
 used, copied, transmitted, or stored only in accord with that
 written license.
  
 The following legend is applicable only to US Government
 contracts under FAR:
  
                    RESTRICTED RIGHTS LEGEND
  
 Use, reproduction and disclosure by the US Government is
 subject to restrictions as set forth in subparagraphs (a)
 and (c) of the Commercial Computer Software - Restricted
 Rights clause in FAR 52.227-19.
  
 Gaussian, Inc.
 340 Quinnipiac St., Bldg. 40, Wallingford CT 06492
  
  
 ---------------------------------------------------------------
 Warning -- This program may not be used in any manner that
 competes with the business of Gaussian, Inc. or will provide
 assistance to any competitor of Gaussian, Inc.  The licensee
 of this program is prohibited from giving any competitor of
 Gaussian, Inc. access to this program.  By using this program,
 the user acknowledges that Gaussian, Inc. is engaged in the
 business of creating and licensing software in the field of
 computational chemistry and represents and warrants to the
 licensee that it is not a competitor of Gaussian, Inc. and that
 it will not use this program in any manner prohibited above.
 ---------------------------------------------------------------
  

 Cite this work as:
 Gaussian 09, Revision C.01,
 M. J. Frisch, G. W. Trucks, H. B. Schlegel, G. E. Scuseria, 
 M. A. Robb, J. R. Cheeseman, G. Scalmani, V. Barone, B. Mennucci, 
 G. A. Petersson, H. Nakatsuji, M. Caricato, X. Li, H. P. Hratchian, 
 A. F. Izmaylov, J. Bloino, G. Zheng, J. L. Sonnenberg, M. Hada, 
 M. Ehara, K. Toyota, R. Fukuda, J. Hasegawa, M. Ishida, T. Nakajima, 
 Y. Honda, O. Kitao, H. Nakai, T. Vreven, J. A. Montgomery, Jr., 
 J. E. Peralta, F. Ogliaro, M. Bearpark, J. J. Heyd, E. Brothers, 
 K. N. Kudin, V. N. Staroverov, T. Keith, R. Kobayashi, J. Normand, 
 K. Raghavachari, A. Rendell, J. C. Burant, S. S. Iyengar, J. Tomasi, 
 M. Cossi, N. Rega, J. M. Millam, M. Klene, J. E. Knox, J. B. Cross, 
 V. Bakken, C. Adamo, J. Jaramillo, R. Gomperts, R. E. Stratmann, 
 O. Yazyev, A. J. Austin, R. Cammi, C. Pomelli, J. W. Ochterski, 
 R. L. Martin, K. Morokuma, V. G. Zakrzewski, G. A. Voth, 
 P. Salvador, J. J. Dannenberg, S. Dapprich, A. D. Daniels, 
 O. Farkas, J. B. Foresman, J. V. Ortiz, J. Cioslowski, 
 and D. J. Fox, Gaussian, Inc., Wallingford CT, 2010.
 
 ******************************************
 Gaussian 09:  EM64L-G09RevC.01 23-Sep-2011
                26-Aug-2022 
 ******************************************
 %nprocshared=8
 Will use up to    8 processors via shared memory.
 %mem=1600MB
 ---------------
 #p opt hf/6-31G
 ---------------
 1/18=20,19=15,38=1/1,3;
 2/9=110,12=2,17=6,18=5,40=1/2;
 3/5=1,6=6,11=9,16=1,25=1,30=1,71=1/1,2,3;
 4//1;
 5/5=2,38=5/2;
 6/7=2,8=2,9=2,10=2,28=1/1;
 7//1,2,3,16;
 1/18=20,19=15/3(2);
 2/9=110/2;
 99//99;
 2/9=110/2;
 3/5=1,6=6,11=9,16=1,25=1,30=1,71=1/1,2,3;
 4/5=5,16=3/1;
 5/5=2,38=5/2;
 7//1,2,3,16;
 1/18=20,19=15/3(-5);
 2/9=110/2;
 6/7=2,8=2,9=2,10=2,19=2,28=1/1;
 99/9=1/99;
 Leave Link    1 at Fri Aug 26 22:43:21 2022, MaxMem=  209715200 cpu:       0.1
 (Enter /opt/gaussian/l101.exe)
 ---------
 Mol22.out
 ---------
 Charge =  0 Multiplicity = 1
 Symbolic Z-Matrix:
 C                     17.2348  -14.7239   0.5663 
 C                     16.3778  -13.6348  -0.0454 
 C                     15.515   -14.2104  -1.1499 
 C                     17.2327  -12.496   -0.5859 
 C                     17.6493  -11.5583   0.5512 
 N                     18.613   -10.5363   0.2081 
 C                     19.9778  -10.8214   0.1104 
 O                     20.7938  -9.966    -0.27 
 C                     20.434   -12.236    0.5163 
 N                     21.8543  -12.4621   0.4537 
 N                     22.734   -11.9663   1.39 
 N                     23.9203  -11.9791   0.985 
 C                     23.955   -12.4421  -0.3715 
 C                     24.9889  -12.6513  -1.2825 
 C                     24.6458  -13.1312  -2.5427 
 C                     23.3135  -13.402   -2.893 
 C                     22.2603  -13.213   -2.0029 
 C                     22.582   -12.7273  -0.7355 
 C                     18.122   -9.2303   -0.0594 
 C                     16.8897  -9.0453   -0.7239 
 C                     16.3959  -7.7669   -0.9543 
 C                     17.106   -6.6335   -0.5375 
 C                     18.3314  -6.8132    0.1178 
 C                     18.8367  -8.0855    0.3571 
 C                     16.5817  -5.2975   -0.7853 
 C                     15.9343  -4.9765   -1.9879 
 C                     15.4444  -3.6842   -2.1736 
 C                     15.618   -2.7438   -1.1425 
 N                     16.24    -3.0257    0.0193 
 C                     16.7088  -4.275     0.1851 
 H                     17.9088  -15.1728  -0.2031 
 H                     17.8657  -14.3162   1.3927 
 H                     16.5883  -15.5335   0.9835 
 H                     15.6978  -13.2246   0.7552 
 H                     16.1503  -14.5885  -1.9864 
 H                     14.9036  -15.0586  -0.7579 
 H                     14.8237  -13.4318  -1.553 
 H                     18.1287  -12.9161  -1.1113 
 H                     16.6489  -11.9211  -1.3521 
 H                     16.7209  -11.0494   0.9445 
 H                     18.0646  -12.1772   1.3987 
 H                     20.1041  -12.4244   1.5803 
 H                     19.9449  -12.9885  -0.1658 
 H                     26.0332  -12.4408  -1.0105 
 H                     25.4376  -13.3023  -3.2879 
 H                     23.095   -13.7707  -3.9074 
 H                     21.2243  -13.4307  -2.2918 
 H                     16.3032  -9.9096   -1.0702 
 H                     15.431   -7.6462   -1.4706 
 H                     18.9111  -5.9344    0.4417 
 H                     19.8146  -8.1914    0.8554 
 H                     15.8245  -5.7354   -2.7767 
 H                     14.9362  -3.4014   -3.1045 
 H                     15.2421  -1.7104   -1.2473 
 H                     17.211   -4.4768    1.1488 
 
 NAtoms=     55 NQM=        0 NQMF=       0 NMMI=     55 NMMIF=      0
                NMic=       0 NMicF=      0.
                    Isotopes and Nuclear Properties:
 (Nuclear quadrupole moments (NQMom) in fm**2, nuclear magnetic moments (NMagM)
  in nuclear magnetons)

  Atom         1           2           3           4           5           6           7           8           9          10
 IAtWgt=          12          12          12          12          12          14          12          16          12          14
 AtmWgt=  12.0000000  12.0000000  12.0000000  12.0000000  12.0000000  14.0030740  12.0000000  15.9949146  12.0000000  14.0030740
 NucSpn=           0           0           0           0           0           2           0           0           0           2
 AtZEff=   0.0000000   0.0000000   0.0000000   0.0000000   0.0000000   0.0000000   0.0000000   0.0000000   0.0000000   0.0000000
 NQMom=    0.0000000   0.0000000   0.0000000   0.0000000   0.0000000   2.0440000   0.0000000   0.0000000   0.0000000   2.0440000
 NMagM=    0.0000000   0.0000000   0.0000000   0.0000000   0.0000000   0.4037610   0.0000000   0.0000000   0.0000000   0.4037610

  Atom        11          12          13          14          15          16          17          18          19          20
 IAtWgt=          14          14          12          12          12          12          12          12          12          12
 AtmWgt=  14.0030740  14.0030740  12.0000000  12.0000000  12.0000000  12.0000000  12.0000000  12.0000000  12.0000000  12.0000000
 NucSpn=           2           2           0           0           0           0           0           0           0           0
 AtZEff=   0.0000000   0.0000000   0.0000000   0.0000000   0.0000000   0.0000000   0.0000000   0.0000000   0.0000000   0.0000000
 NQMom=    2.0440000   2.0440000   0.0000000   0.0000000   0.0000000   0.0000000   0.0000000   0.0000000   0.0000000   0.0000000
 NMagM=    0.4037610   0.4037610   0.0000000   0.0000000   0.0000000   0.0000000   0.0000000   0.0000000   0.0000000   0.0000000

  Atom        21          22          23          24          25          26          27          28          29          30
 IAtWgt=          12          12          12          12          12          12          12          12          14          12
 AtmWgt=  12.0000000  12.0000000  12.0000000  12.0000000  12.0000000  12.0000000  12.0000000  12.0000000  14.0030740  12.0000000
 NucSpn=           0           0           0           0           0           0           0           0           2           0
 AtZEff=   0.0000000   0.0000000   0.0000000   0.0000000   0.0000000   0.0000000   0.0000000   0.0000000   0.0000000   0.0000000
 NQMom=    0.0000000   0.0000000   0.0000000   0.0000000   0.0000000   0.0000000   0.0000000   0.0000000   2.0440000   0.0000000
 NMagM=    0.0000000   0.0000000   0.0000000   0.0000000   0.0000000   0.0000000   0.0000000   0.0000000   0.4037610   0.0000000

  Atom        31          32          33          34          35          36          37          38          39          40
 IAtWgt=           1           1           1           1           1           1           1           1           1           1
 AtmWgt=   1.0078250   1.0078250   1.0078250   1.0078250   1.0078250   1.0078250   1.0078250   1.0078250   1.0078250   1.0078250
 NucSpn=           1           1           1           1           1           1           1           1           1           1
 AtZEff=   0.0000000   0.0000000   0.0000000   0.0000000   0.0000000   0.0000000   0.0000000   0.0000000   0.0000000   0.0000000
 NQMom=    0.0000000   0.0000000   0.0000000   0.0000000   0.0000000   0.0000000   0.0000000   0.0000000   0.0000000   0.0000000
 NMagM=    2.7928460   2.7928460   2.7928460   2.7928460   2.7928460   2.7928460   2.7928460   2.7928460   2.7928460   2.7928460

  Atom        41          42          43          44          45          46          47          48          49          50
 IAtWgt=           1           1           1           1           1           1           1           1           1           1
 AtmWgt=   1.0078250   1.0078250   1.0078250   1.0078250   1.0078250   1.0078250   1.0078250   1.0078250   1.0078250   1.0078250
 NucSpn=           1           1           1           1           1           1           1           1           1           1
 AtZEff=   0.0000000   0.0000000   0.0000000   0.0000000   0.0000000   0.0000000   0.0000000   0.0000000   0.0000000   0.0000000
 NQMom=    0.0000000   0.0000000   0.0000000   0.0000000   0.0000000   0.0000000   0.0000000   0.0000000   0.0000000   0.0000000
 NMagM=    2.7928460   2.7928460   2.7928460   2.7928460   2.7928460   2.7928460   2.7928460   2.7928460   2.7928460   2.7928460

  Atom        51          52          53          54          55
 IAtWgt=           1           1           1           1           1
 AtmWgt=   1.0078250   1.0078250   1.0078250   1.0078250   1.0078250
 NucSpn=           1           1           1           1           1
 AtZEff=   0.0000000   0.0000000   0.0000000   0.0000000   0.0000000
 NQMom=    0.0000000   0.0000000   0.0000000   0.0000000   0.0000000
 NMagM=    2.7928460   2.7928460   2.7928460   2.7928460   2.7928460
 Leave Link  101 at Fri Aug 26 22:43:21 2022, MaxMem=  209715200 cpu:       0.7
 (Enter /opt/gaussian/l103.exe)

 GradGradGradGradGradGradGradGradGradGradGradGradGradGradGradGradGradGrad
 Berny optimization.
 Initialization pass.
                           ----------------------------
                           !    Initial Parameters    !
                           ! (Angstroms and Degrees)  !
 --------------------------                            --------------------------
 ! Name  Definition              Value          Derivative Info.                !
 --------------------------------------------------------------------------------
 ! R1    R(1,2)                  1.5148         estimate D2E/DX2                !
 ! R2    R(1,31)                 1.117          estimate D2E/DX2                !
 ! R3    R(1,32)                 1.1168         estimate D2E/DX2                !
 ! R4    R(1,33)                 1.1169         estimate D2E/DX2                !
 ! R5    R(2,3)                  1.5151         estimate D2E/DX2                !
 ! R6    R(2,4)                  1.5231         estimate D2E/DX2                !
 ! R7    R(2,34)                 1.1277         estimate D2E/DX2                !
 ! R8    R(3,35)                 1.1164         estimate D2E/DX2                !
 ! R9    R(3,36)                 1.1167         estimate D2E/DX2                !
 ! R10   R(3,37)                 1.1165         estimate D2E/DX2                !
 ! R11   R(4,5)                  1.5316         estimate D2E/DX2                !
 ! R12   R(4,38)                 1.1204         estimate D2E/DX2                !
 ! R13   R(4,39)                 1.1218         estimate D2E/DX2                !
 ! R14   R(5,6)                  1.446          estimate D2E/DX2                !
 ! R15   R(5,40)                 1.1294         estimate D2E/DX2                !
 ! R16   R(5,41)                 1.1286         estimate D2E/DX2                !
 ! R17   R(6,7)                  1.3977         estimate D2E/DX2                !
 ! R18   R(6,19)                 1.4207         estimate D2E/DX2                !
 ! R19   R(7,8)                  1.2419         estimate D2E/DX2                !
 ! R20   R(7,9)                  1.5408         estimate D2E/DX2                !
 ! R21   R(9,10)                 1.4395         estimate D2E/DX2                !
 ! R22   R(9,42)                 1.1298         estimate D2E/DX2                !
 ! R23   R(9,43)                 1.1273         estimate D2E/DX2                !
 ! R24   R(10,11)                1.3771         estimate D2E/DX2                !
 ! R25   R(10,18)                1.4192         estimate D2E/DX2                !
 ! R26   R(11,12)                1.2536         estimate D2E/DX2                !
 ! R27   R(12,13)                1.4338         estimate D2E/DX2                !
 ! R28   R(13,14)                1.3938         estimate D2E/DX2                !
 ! R29   R(13,18)                1.4488         estimate D2E/DX2                !
 ! R30   R(14,15)                1.3914         estimate D2E/DX2                !
 ! R31   R(14,44)                1.0995         estimate D2E/DX2                !
 ! R32   R(15,16)                1.4039         estimate D2E/DX2                !
 ! R33   R(15,45)                1.1007         estimate D2E/DX2                !
 ! R34   R(16,17)                1.3918         estimate D2E/DX2                !
 ! R35   R(16,46)                1.1012         estimate D2E/DX2                !
 ! R36   R(17,18)                1.3949         estimate D2E/DX2                !
 ! R37   R(17,47)                1.0973         estimate D2E/DX2                !
 ! R38   R(19,20)                1.4122         estimate D2E/DX2                !
 ! R39   R(19,24)                1.4124         estimate D2E/DX2                !
 ! R40   R(20,21)                1.3897         estimate D2E/DX2                !
 ! R41   R(20,48)                1.1004         estimate D2E/DX2                !
 ! R42   R(21,22)                1.4009         estimate D2E/DX2                !
 ! R43   R(21,49)                1.101          estimate D2E/DX2                !
 ! R44   R(22,23)                1.4012         estimate D2E/DX2                !
 ! R45   R(22,25)                1.4564         estimate D2E/DX2                !
 ! R46   R(23,24)                1.3897         estimate D2E/DX2                !
 ! R47   R(23,50)                1.1015         estimate D2E/DX2                !
 ! R48   R(24,51)                1.1026         estimate D2E/DX2                !
 ! R49   R(25,26)                1.403          estimate D2E/DX2                !
 ! R50   R(25,30)                1.4154         estimate D2E/DX2                !
 ! R51   R(26,27)                1.3945         estimate D2E/DX2                !
 ! R52   R(26,52)                1.1001         estimate D2E/DX2                !
 ! R53   R(27,28)                1.4063         estimate D2E/DX2                !
 ! R54   R(27,53)                1.0976         estimate D2E/DX2                !
 ! R55   R(28,29)                1.3476         estimate D2E/DX2                !
 ! R56   R(28,54)                1.1046         estimate D2E/DX2                !
 ! R57   R(29,30)                1.3446         estimate D2E/DX2                !
 ! R58   R(30,55)                1.1053         estimate D2E/DX2                !
 ! A1    A(2,1,31)             110.6184         estimate D2E/DX2                !
 ! A2    A(2,1,32)             110.8512         estimate D2E/DX2                !
 ! A3    A(2,1,33)             110.1518         estimate D2E/DX2                !
 ! A4    A(31,1,32)            108.3931         estimate D2E/DX2                !
 ! A5    A(31,1,33)            108.3756         estimate D2E/DX2                !
 ! A6    A(32,1,33)            108.3738         estimate D2E/DX2                !
 ! A7    A(1,2,3)              110.0836         estimate D2E/DX2                !
 ! A8    A(1,2,4)              111.3032         estimate D2E/DX2                !
 ! A9    A(1,2,34)             108.4204         estimate D2E/DX2                !
 ! A10   A(3,2,4)              110.1805         estimate D2E/DX2                !
 ! A11   A(3,2,34)             108.2008         estimate D2E/DX2                !
 ! A12   A(4,2,34)             108.568          estimate D2E/DX2                !
 ! A13   A(2,3,35)             110.5378         estimate D2E/DX2                !
 ! A14   A(2,3,36)             110.1484         estimate D2E/DX2                !
 ! A15   A(2,3,37)             110.539          estimate D2E/DX2                !
 ! A16   A(35,3,36)            108.5035         estimate D2E/DX2                !
 ! A17   A(35,3,37)            108.5424         estimate D2E/DX2                !
 ! A18   A(36,3,37)            108.5078         estimate D2E/DX2                !
 ! A19   A(2,4,5)              110.3017         estimate D2E/DX2                !
 ! A20   A(2,4,38)             109.568          estimate D2E/DX2                !
 ! A21   A(2,4,39)             109.4785         estimate D2E/DX2                !
 ! A22   A(5,4,38)             111.1112         estimate D2E/DX2                !
 ! A23   A(5,4,39)             109.5654         estimate D2E/DX2                !
 ! A24   A(38,4,39)            106.7411         estimate D2E/DX2                !
 ! A25   A(4,5,6)              115.9655         estimate D2E/DX2                !
 ! A26   A(4,5,40)             108.1079         estimate D2E/DX2                !
 ! A27   A(4,5,41)             108.7754         estimate D2E/DX2                !
 ! A28   A(6,5,40)             108.1799         estimate D2E/DX2                !
 ! A29   A(6,5,41)             108.6939         estimate D2E/DX2                !
 ! A30   A(40,5,41)            106.7426         estimate D2E/DX2                !
 ! A31   A(5,6,7)              121.547          estimate D2E/DX2                !
 ! A32   A(5,6,19)             117.6503         estimate D2E/DX2                !
 ! A33   A(7,6,19)             120.7865         estimate D2E/DX2                !
 ! A34   A(6,7,8)              121.5015         estimate D2E/DX2                !
 ! A35   A(6,7,9)              117.2571         estimate D2E/DX2                !
 ! A36   A(8,7,9)              121.2341         estimate D2E/DX2                !
 ! A37   A(7,9,10)             115.1427         estimate D2E/DX2                !
 ! A38   A(7,9,42)             108.3453         estimate D2E/DX2                !
 ! A39   A(7,9,43)             108.9661         estimate D2E/DX2                !
 ! A40   A(10,9,42)            107.6294         estimate D2E/DX2                !
 ! A41   A(10,9,43)            107.2727         estimate D2E/DX2                !
 ! A42   A(42,9,43)            109.3808         estimate D2E/DX2                !
 ! A43   A(9,10,11)            122.9673         estimate D2E/DX2                !
 ! A44   A(9,10,18)            124.8685         estimate D2E/DX2                !
 ! A45   A(11,10,18)           108.0264         estimate D2E/DX2                !
 ! A46   A(10,11,12)           112.4072         estimate D2E/DX2                !
 ! A47   A(11,12,13)           109.3819         estimate D2E/DX2                !
 ! A48   A(12,13,14)           133.2213         estimate D2E/DX2                !
 ! A49   A(12,13,18)           106.1612         estimate D2E/DX2                !
 ! A50   A(14,13,18)           120.6124         estimate D2E/DX2                !
 ! A51   A(13,14,15)           117.4401         estimate D2E/DX2                !
 ! A52   A(13,14,44)           120.9393         estimate D2E/DX2                !
 ! A53   A(15,14,44)           121.6204         estimate D2E/DX2                !
 ! A54   A(14,15,16)           121.7689         estimate D2E/DX2                !
 ! A55   A(14,15,45)           119.301          estimate D2E/DX2                !
 ! A56   A(16,15,45)           118.93           estimate D2E/DX2                !
 ! A57   A(15,16,17)           122.1624         estimate D2E/DX2                !
 ! A58   A(15,16,46)           118.8625         estimate D2E/DX2                !
 ! A59   A(17,16,46)           118.9742         estimate D2E/DX2                !
 ! A60   A(16,17,18)           116.9898         estimate D2E/DX2                !
 ! A61   A(16,17,47)           121.2713         estimate D2E/DX2                !
 ! A62   A(18,17,47)           121.7375         estimate D2E/DX2                !
 ! A63   A(10,18,13)           103.8053         estimate D2E/DX2                !
 ! A64   A(10,18,17)           135.0867         estimate D2E/DX2                !
 ! A65   A(13,18,17)           121.0238         estimate D2E/DX2                !
 ! A66   A(6,19,20)            120.7044         estimate D2E/DX2                !
 ! A67   A(6,19,24)            120.9781         estimate D2E/DX2                !
 ! A68   A(20,19,24)           118.3029         estimate D2E/DX2                !
 ! A69   A(19,20,21)           120.5696         estimate D2E/DX2                !
 ! A70   A(19,20,48)           120.6815         estimate D2E/DX2                !
 ! A71   A(21,20,48)           118.7489         estimate D2E/DX2                !
 ! A72   A(20,21,22)           120.9852         estimate D2E/DX2                !
 ! A73   A(20,21,49)           119.3412         estimate D2E/DX2                !
 ! A74   A(22,21,49)           119.6735         estimate D2E/DX2                !
 ! A75   A(21,22,23)           118.599          estimate D2E/DX2                !
 ! A76   A(21,22,25)           120.6006         estimate D2E/DX2                !
 ! A77   A(23,22,25)           120.8            estimate D2E/DX2                !
 ! A78   A(22,23,24)           121.0593         estimate D2E/DX2                !
 ! A79   A(22,23,50)           119.7008         estimate D2E/DX2                !
 ! A80   A(24,23,50)           119.2374         estimate D2E/DX2                !
 ! A81   A(19,24,23)           120.4834         estimate D2E/DX2                !
 ! A82   A(19,24,51)           120.2782         estimate D2E/DX2                !
 ! A83   A(23,24,51)           119.2229         estimate D2E/DX2                !
 ! A84   A(22,25,26)           121.455          estimate D2E/DX2                !
 ! A85   A(22,25,30)           120.9107         estimate D2E/DX2                !
 ! A86   A(26,25,30)           117.6343         estimate D2E/DX2                !
 ! A87   A(25,26,27)           119.2284         estimate D2E/DX2                !
 ! A88   A(25,26,52)           120.1878         estimate D2E/DX2                !
 ! A89   A(27,26,52)           120.5814         estimate D2E/DX2                !
 ! A90   A(26,27,28)           118.6011         estimate D2E/DX2                !
 ! A91   A(26,27,53)           120.955          estimate D2E/DX2                !
 ! A92   A(28,27,53)           120.4436         estimate D2E/DX2                !
 ! A93   A(27,28,29)           123.3115         estimate D2E/DX2                !
 ! A94   A(27,28,54)           120.932          estimate D2E/DX2                !
 ! A95   A(29,28,54)           115.7564         estimate D2E/DX2                !
 ! A96   A(28,29,30)           117.4885         estimate D2E/DX2                !
 ! A97   A(25,30,29)           123.7351         estimate D2E/DX2                !
 ! A98   A(25,30,55)           120.4434         estimate D2E/DX2                !
 ! A99   A(29,30,55)           115.8208         estimate D2E/DX2                !
 ! D1    D(31,1,2,3)            60.5564         estimate D2E/DX2                !
 ! D2    D(31,1,2,4)           -61.9116         estimate D2E/DX2                !
 ! D3    D(31,1,2,34)          178.7404         estimate D2E/DX2                !
 ! D4    D(32,1,2,3)          -179.1745         estimate D2E/DX2                !
 ! D5    D(32,1,2,4)            58.3575         estimate D2E/DX2                !
 ! D6    D(32,1,2,34)          -60.9906         estimate D2E/DX2                !
 ! D7    D(33,1,2,3)           -59.2356         estimate D2E/DX2                !
 ! D8    D(33,1,2,4)           178.2964         estimate D2E/DX2                !
 ! D9    D(33,1,2,34)           58.9483         estimate D2E/DX2                !
 ! D10   D(1,2,3,35)           -64.1596         estimate D2E/DX2                !
 ! D11   D(1,2,3,36)            55.7379         estimate D2E/DX2                !
 ! D12   D(1,2,3,37)           175.6415         estimate D2E/DX2                !
 ! D13   D(4,2,3,35)            58.9681         estimate D2E/DX2                !
 ! D14   D(4,2,3,36)           178.8657         estimate D2E/DX2                !
 ! D15   D(4,2,3,37)           -61.2307         estimate D2E/DX2                !
 ! D16   D(34,2,3,35)          177.5212         estimate D2E/DX2                !
 ! D17   D(34,2,3,36)          -62.5813         estimate D2E/DX2                !
 ! D18   D(34,2,3,37)           57.3223         estimate D2E/DX2                !
 ! D19   D(1,2,4,5)            -80.8094         estimate D2E/DX2                !
 ! D20   D(1,2,4,38)            41.8113         estimate D2E/DX2                !
 ! D21   D(1,2,4,39)           158.5541         estimate D2E/DX2                !
 ! D22   D(3,2,4,5)            156.7785         estimate D2E/DX2                !
 ! D23   D(3,2,4,38)           -80.6008         estimate D2E/DX2                !
 ! D24   D(3,2,4,39)            36.142          estimate D2E/DX2                !
 ! D25   D(34,2,4,5)            38.4507         estimate D2E/DX2                !
 ! D26   D(34,2,4,38)          161.0715         estimate D2E/DX2                !
 ! D27   D(34,2,4,39)          -82.1857         estimate D2E/DX2                !
 ! D28   D(2,4,5,6)            171.9062         estimate D2E/DX2                !
 ! D29   D(2,4,5,40)           -66.4684         estimate D2E/DX2                !
 ! D30   D(2,4,5,41)            49.0805         estimate D2E/DX2                !
 ! D31   D(38,4,5,6)            50.1951         estimate D2E/DX2                !
 ! D32   D(38,4,5,40)          171.8205         estimate D2E/DX2                !
 ! D33   D(38,4,5,41)          -72.6305         estimate D2E/DX2                !
 ! D34   D(39,4,5,6)           -67.5094         estimate D2E/DX2                !
 ! D35   D(39,4,5,40)           54.1159         estimate D2E/DX2                !
 ! D36   D(39,4,5,41)          169.6649         estimate D2E/DX2                !
 ! D37   D(4,5,6,7)            -79.4526         estimate D2E/DX2                !
 ! D38   D(4,5,6,19)            99.0912         estimate D2E/DX2                !
 ! D39   D(40,5,6,7)           158.9604         estimate D2E/DX2                !
 ! D40   D(40,5,6,19)          -22.4958         estimate D2E/DX2                !
 ! D41   D(41,5,6,7)            43.4158         estimate D2E/DX2                !
 ! D42   D(41,5,6,19)         -138.0403         estimate D2E/DX2                !
 ! D43   D(5,6,7,8)            175.1625         estimate D2E/DX2                !
 ! D44   D(5,6,7,9)             -5.8059         estimate D2E/DX2                !
 ! D45   D(19,6,7,8)            -3.3361         estimate D2E/DX2                !
 ! D46   D(19,6,7,9)           175.6956         estimate D2E/DX2                !
 ! D47   D(5,6,19,20)          -36.2405         estimate D2E/DX2                !
 ! D48   D(5,6,19,24)          142.3479         estimate D2E/DX2                !
 ! D49   D(7,6,19,20)          142.315          estimate D2E/DX2                !
 ! D50   D(7,6,19,24)          -39.0967         estimate D2E/DX2                !
 ! D51   D(6,7,9,10)          -177.4129         estimate D2E/DX2                !
 ! D52   D(6,7,9,42)           -56.8752         estimate D2E/DX2                !
 ! D53   D(6,7,9,43)            62.0482         estimate D2E/DX2                !
 ! D54   D(8,7,9,10)             1.6215         estimate D2E/DX2                !
 ! D55   D(8,7,9,42)           122.1592         estimate D2E/DX2                !
 ! D56   D(8,7,9,43)          -118.9174         estimate D2E/DX2                !
 ! D57   D(7,9,10,11)           75.2403         estimate D2E/DX2                !
 ! D58   D(7,9,10,18)          -79.1147         estimate D2E/DX2                !
 ! D59   D(42,9,10,11)         -45.6883         estimate D2E/DX2                !
 ! D60   D(42,9,10,18)         159.9567         estimate D2E/DX2                !
 ! D61   D(43,9,10,11)        -163.2986         estimate D2E/DX2                !
 ! D62   D(43,9,10,18)          42.3464         estimate D2E/DX2                !
 ! D63   D(9,10,11,12)        -163.0377         estimate D2E/DX2                !
 ! D64   D(18,10,11,12)         -4.9646         estimate D2E/DX2                !
 ! D65   D(9,10,18,13)         161.7667         estimate D2E/DX2                !
 ! D66   D(9,10,18,17)         -21.7062         estimate D2E/DX2                !
 ! D67   D(11,10,18,13)          4.215          estimate D2E/DX2                !
 ! D68   D(11,10,18,17)       -179.2578         estimate D2E/DX2                !
 ! D69   D(10,11,12,13)          3.3822         estimate D2E/DX2                !
 ! D70   D(11,12,13,14)       -179.6786         estimate D2E/DX2                !
 ! D71   D(11,12,13,18)         -0.5234         estimate D2E/DX2                !
 ! D72   D(12,13,14,15)        179.4766         estimate D2E/DX2                !
 ! D73   D(12,13,14,44)         -0.6764         estimate D2E/DX2                !
 ! D74   D(18,13,14,15)          0.4195         estimate D2E/DX2                !
 ! D75   D(18,13,14,44)       -179.7335         estimate D2E/DX2                !
 ! D76   D(12,13,18,10)         -2.3256         estimate D2E/DX2                !
 ! D77   D(12,13,18,17)       -179.4649         estimate D2E/DX2                !
 ! D78   D(14,13,18,10)        176.959          estimate D2E/DX2                !
 ! D79   D(14,13,18,17)         -0.1803         estimate D2E/DX2                !
 ! D80   D(13,14,15,16)         -0.2034         estimate D2E/DX2                !
 ! D81   D(13,14,15,45)        179.6739         estimate D2E/DX2                !
 ! D82   D(44,14,15,16)        179.9507         estimate D2E/DX2                !
 ! D83   D(44,14,15,45)         -0.1719         estimate D2E/DX2                !
 ! D84   D(14,15,16,17)         -0.2761         estimate D2E/DX2                !
 ! D85   D(14,15,16,46)        179.3761         estimate D2E/DX2                !
 ! D86   D(45,15,16,17)        179.8461         estimate D2E/DX2                !
 ! D87   D(45,15,16,46)         -0.5017         estimate D2E/DX2                !
 ! D88   D(15,16,17,18)          0.5106         estimate D2E/DX2                !
 ! D89   D(15,16,17,47)       -179.9182         estimate D2E/DX2                !
 ! D90   D(46,16,17,18)       -179.1412         estimate D2E/DX2                !
 ! D91   D(46,16,17,47)          0.43           estimate D2E/DX2                !
 ! D92   D(16,17,18,10)       -176.3483         estimate D2E/DX2                !
 ! D93   D(16,17,18,13)         -0.2845         estimate D2E/DX2                !
 ! D94   D(47,17,18,10)          4.0826         estimate D2E/DX2                !
 ! D95   D(47,17,18,13)       -179.8536         estimate D2E/DX2                !
 ! D96   D(6,19,20,21)         178.3749         estimate D2E/DX2                !
 ! D97   D(6,19,20,48)          -1.7138         estimate D2E/DX2                !
 ! D98   D(24,19,20,21)         -0.2505         estimate D2E/DX2                !
 ! D99   D(24,19,20,48)        179.6608         estimate D2E/DX2                !
 ! D100  D(6,19,24,23)        -178.4764         estimate D2E/DX2                !
 ! D101  D(6,19,24,51)           2.9666         estimate D2E/DX2                !
 ! D102  D(20,19,24,23)          0.145          estimate D2E/DX2                !
 ! D103  D(20,19,24,51)       -178.412          estimate D2E/DX2                !
 ! D104  D(19,20,21,22)          0.1278         estimate D2E/DX2                !
 ! D105  D(19,20,21,49)       -179.7521         estimate D2E/DX2                !
 ! D106  D(48,20,21,22)       -179.7852         estimate D2E/DX2                !
 ! D107  D(48,20,21,49)          0.3349         estimate D2E/DX2                !
 ! D108  D(20,21,22,23)          0.1038         estimate D2E/DX2                !
 ! D109  D(20,21,22,25)        179.8973         estimate D2E/DX2                !
 ! D110  D(49,21,22,23)        179.9833         estimate D2E/DX2                !
 ! D111  D(49,21,22,25)         -0.2231         estimate D2E/DX2                !
 ! D112  D(21,22,23,24)         -0.2105         estimate D2E/DX2                !
 ! D113  D(21,22,23,50)        179.2112         estimate D2E/DX2                !
 ! D114  D(25,22,23,24)        179.9964         estimate D2E/DX2                !
 ! D115  D(25,22,23,50)         -0.5819         estimate D2E/DX2                !
 ! D116  D(21,22,25,26)        -39.1448         estimate D2E/DX2                !
 ! D117  D(21,22,25,30)        140.8218         estimate D2E/DX2                !
 ! D118  D(23,22,25,26)        140.6442         estimate D2E/DX2                !
 ! D119  D(23,22,25,30)        -39.3892         estimate D2E/DX2                !
 ! D120  D(22,23,24,19)          0.0854         estimate D2E/DX2                !
 ! D121  D(22,23,24,51)        178.6575         estimate D2E/DX2                !
 ! D122  D(50,23,24,19)       -179.3389         estimate D2E/DX2                !
 ! D123  D(50,23,24,51)         -0.7668         estimate D2E/DX2                !
 ! D124  D(22,25,26,27)        179.6956         estimate D2E/DX2                !
 ! D125  D(22,25,26,52)         -0.8664         estimate D2E/DX2                !
 ! D126  D(30,25,26,27)         -0.2721         estimate D2E/DX2                !
 ! D127  D(30,25,26,52)        179.1659         estimate D2E/DX2                !
 ! D128  D(22,25,30,29)       -179.6162         estimate D2E/DX2                !
 ! D129  D(22,25,30,55)          0.0588         estimate D2E/DX2                !
 ! D130  D(26,25,30,29)          0.3517         estimate D2E/DX2                !
 ! D131  D(26,25,30,55)       -179.9733         estimate D2E/DX2                !
 ! D132  D(25,26,27,28)         -0.0021         estimate D2E/DX2                !
 ! D133  D(25,26,27,53)        179.8026         estimate D2E/DX2                !
 ! D134  D(52,26,27,28)       -179.4378         estimate D2E/DX2                !
 ! D135  D(52,26,27,53)          0.3669         estimate D2E/DX2                !
 ! D136  D(26,27,28,29)          0.2433         estimate D2E/DX2                !
 ! D137  D(26,27,28,54)       -179.7878         estimate D2E/DX2                !
 ! D138  D(53,27,28,29)       -179.5624         estimate D2E/DX2                !
 ! D139  D(53,27,28,54)          0.4065         estimate D2E/DX2                !
 ! D140  D(27,28,29,30)         -0.179          estimate D2E/DX2                !
 ! D141  D(54,28,29,30)        179.8507         estimate D2E/DX2                !
 ! D142  D(28,29,30,25)         -0.1264         estimate D2E/DX2                !
 ! D143  D(28,29,30,55)       -179.8151         estimate D2E/DX2                !
 --------------------------------------------------------------------------------
 Trust Radius=3.00D-01 FncErr=1.00D-07 GrdErr=1.00D-07
 Number of steps in this run=    310 maximum allowed number of steps=    330.
 GradGradGradGradGradGradGradGradGradGradGradGradGradGradGradGradGradGrad

 Leave Link  103 at Fri Aug 26 22:43:21 2022, MaxMem=  209715200 cpu:       0.1
 (Enter /opt/gaussian/l202.exe)
 Stoichiometry    C24H25N5O
 Framework group  C1[X(C24H25N5O)]
 Deg. of freedom   159
 Full point group                 C1      NOp   1
 Largest Abelian subgroup         C1      NOp   1
 Largest concise Abelian subgroup C1      NOp   1
                         Standard orientation:                         
 ---------------------------------------------------------------------
 Center     Atomic      Atomic             Coordinates (Angstroms)
 Number     Number       Type             X           Y           Z
 ---------------------------------------------------------------------
      1          6           0        2.699849    4.391294   -0.703965
      2          6           0        1.306567    4.393338   -0.109386
      3          6           0        1.244102    5.346737    1.066534
      4          6           0        0.888389    2.994757    0.325309
      5          6           0        0.395280    2.188800   -0.880141
      6          7           0        0.138318    0.785966   -0.641503
      7          6           0        1.175187   -0.150232   -0.597450
      8          8           0        0.964416   -1.338693   -0.305210
      9          6           0        2.590430    0.347167   -0.949089
     10          7           0        3.613130   -0.665931   -0.946011
     11          7           0        3.747606   -1.598012   -1.950745
     12          7           0        4.455221   -2.573642   -1.605894
     13          6           0        4.830343   -2.426582   -0.229913
     14          6           0        5.599016   -3.200430    0.637805
     15          6           0        5.765237   -2.732651    1.937681
     16          6           0        5.189332   -1.526985    2.368691
     17          6           0        4.425213   -0.727212    1.523875
     18          6           0        4.241740   -1.180686    0.217583
     19          6           0       -1.208187    0.390663   -0.420290
     20          6           0       -2.096260    1.224180    0.294499
     21          6           0       -3.421688    0.850104    0.480339
     22          6           0       -3.908323   -0.359513   -0.032081
     23          6           0       -3.028731   -1.191276   -0.737634
     24          6           0       -1.701283   -0.829401   -0.933256
     25          6           0       -5.298453   -0.744318    0.169547
     26          6           0       -5.956860   -0.500330    1.384201
     27          6           0       -7.290569   -0.882507    1.524517
     28          6           0       -7.931249   -1.502353    0.436870
     29          7           0       -7.319939   -1.751947   -0.737920
     30          6           0       -6.033637   -1.379623   -0.859642
     31          1           0        3.450309    4.058536    0.053562
     32          1           0        2.756406    3.703291   -1.581828
     33          1           0        2.974643    5.419107   -1.043905
     34          1           0        0.584149    4.756018   -0.895642
     35          1           0        1.913695    4.998453    1.889117
     36          1           0        1.570441    6.367281    0.752035
     37          1           0        0.201923    5.413897    1.461447
     38          1           0        1.750476    2.484181    0.826770
     39          1           0        0.069057    3.069387    1.087883
     40          1           0       -0.559322    2.663454   -1.253009
     41          1           0        1.151333    2.281507   -1.712941
     42          1           0        2.561169    0.800684   -1.983444
     43          1           0        2.897575    1.135087   -0.203718
     44          1           0        6.051813   -4.144618    0.302630
     45          1           0        6.362042   -3.322312    2.650191
     46          1           0        5.343129   -1.207206    3.411177
     47          1           0        3.982904    0.213326    1.875873
     48          1           0       -1.752209    2.180719    0.715905
     49          1           0       -4.097544    1.517299    1.037327
     50          1           0       -3.388795   -2.152527   -1.137138
     51          1           0       -1.029892   -1.517087   -1.473745
     52          1           0       -5.421299   -0.021338    2.217226
     53          1           0       -7.832056   -0.708217    2.463257
     54          1           0       -8.987778   -1.817545    0.504699
     55          1           0       -5.560506   -1.594513   -1.835150
 ---------------------------------------------------------------------
 Rotational constants (GHZ):      0.2142427      0.0674766      0.0565655
 Leave Link  202 at Fri Aug 26 22:43:21 2022, MaxMem=  209715200 cpu:       0.0
 (Enter /opt/gaussian/l301.exe)
 Standard basis: 6-31G (6D, 7F)
 Ernie: Thresh=  0.10000D-02 Tol=  0.10000D-05 Strict=F.
 There are   320 symmetry adapted basis functions of A   symmetry.
 Integral buffers will be    131072 words long.
 Raffenetti 1 integral format.
 Two-electron integral symmetry is turned on.
   320 basis functions,   760 primitive gaussians,   320 cartesian basis functions
   106 alpha electrons      106 beta electrons
       nuclear repulsion energy      2650.1284861393 Hartrees.
 IExCor=    0 DFT=F Ex=HF Corr=None ExCW=0 ScaHFX=  1.000000
 ScaDFX=  1.000000  1.000000  1.000000  1.000000 ScalE2=  1.000000  1.000000
 IRadAn=      0 IRanWt=     -1 IRanGd=            0 ICorTp=0
 NAtoms=   55 NActive=   55 NUniq=   55 SFac= 1.00D+00 NAtFMM=   60 NAOKFM=F Big=F
 Leave Link  301 at Fri Aug 26 22:43:21 2022, MaxMem=  209715200 cpu:       0.2
 (Enter /opt/gaussian/l302.exe)
 NPDir=0 NMtPBC=     1 NCelOv=     1 NCel=       1 NClECP=     1 NCelD=      1
         NCelK=      1 NCelE2=     1 NClLst=     1 CellRange=     0.0.
 One-electron integrals computed using PRISM.
 NBasis=   320 RedAO= T  NBF=   320
 NBsUse=   320 1.00D-06 NBFU=   320
 Leave Link  302 at Fri Aug 26 22:43:21 2022, MaxMem=  209715200 cpu:       1.8
 (Enter /opt/gaussian/l303.exe)
 DipDrv:  MaxL=1.
 Leave Link  303 at Fri Aug 26 22:43:21 2022, MaxMem=  209715200 cpu:       0.4
 (Enter /opt/gaussian/l401.exe)
 Harris functional with IExCor=  205 diagonalized for initial guess.
 ExpMin= 1.61D-01 ExpMax= 5.48D+03 ExpMxC= 8.25D+02 IAcc=1 IRadAn=         1 AccDes= 0.00D+00
 HarFok:  IExCor=  205 AccDes= 0.00D+00 IRadAn=         1 IDoV= 1
 ScaDFX=  1.000000  1.000000  1.000000  1.000000
 FoFCou: FMM=F IPFlag=           0 FMFlag=      100000 FMFlg1=           0
         NFxFlg=           0 DoJE=T BraDBF=F KetDBF=T FulRan=T
         Omega=  0.000000  0.000000  1.000000  0.000000  0.000000 ICntrl=     500 IOpCl=  0
         NMat0=    1 NMatS0=    1 NMatT0=    0 NMatD0=    1 NMtDS0=    0 NMtDT0=    0
         I1Cent=           4 NGrid=           0.
 Petite list used in FoFCou.
 Harris En= -1271.62294683784    
 Initial guess orbital symmetries:
       Occupied  (A) (A) (A) (A) (A) (A) (A) (A) (A) (A) (A) (A)
                 (A) (A) (A) (A) (A) (A) (A) (A) (A) (A) (A) (A)
                 (A) (A) (A) (A) (A) (A) (A) (A) (A) (A) (A) (A)
                 (A) (A) (A) (A) (A) (A) (A) (A) (A) (A) (A) (A)
                 (A) (A) (A) (A) (A) (A) (A) (A) (A) (A) (A) (A)
                 (A) (A) (A) (A) (A) (A) (A) (A) (A) (A) (A) (A)
                 (A) (A) (A) (A) (A) (A) (A) (A) (A) (A) (A) (A)
                 (A) (A) (A) (A) (A) (A) (A) (A) (A) (A) (A) (A)
                 (A) (A) (A) (A) (A) (A) (A) (A) (A) (A)
       Virtual   (A) (A) (A) (A) (A) (A) (A) (A) (A) (A) (A) (A)
                 (A) (A) (A) (A) (A) (A) (A) (A) (A) (A) (A) (A)
                 (A) (A) (A) (A) (A) (A) (A) (A) (A) (A) (A) (A)
                 (A) (A) (A) (A) (A) (A) (A) (A) (A) (A) (A) (A)
                 (A) (A) (A) (A) (A) (A) (A) (A) (A) (A) (A) (A)
                 (A) (A) (A) (A) (A) (A) (A) (A) (A) (A) (A) (A)
                 (A) (A) (A) (A) (A) (A) (A) (A) (A) (A) (A) (A)
                 (A) (A) (A) (A) (A) (A) (A) (A) (A) (A) (A) (A)
                 (A) (A) (A) (A) (A) (A) (A) (A) (A) (A) (A) (A)
                 (A) (A) (A) (A) (A) (A) (A) (A) (A) (A) (A) (A)
                 (A) (A) (A) (A) (A) (A) (A) (A) (A) (A) (A) (A)
                 (A) (A) (A) (A) (A) (A) (A) (A) (A) (A) (A) (A)
                 (A) (A) (A) (A) (A) (A) (A) (A) (A) (A) (A) (A)
                 (A) (A) (A) (A) (A) (A) (A) (A) (A) (A) (A) (A)
                 (A) (A) (A) (A) (A) (A) (A) (A) (A) (A) (A) (A)
                 (A) (A) (A) (A) (A) (A) (A) (A) (A) (A) (A) (A)
                 (A) (A) (A) (A) (A) (A) (A) (A) (A) (A) (A) (A)
                 (A) (A) (A) (A) (A) (A) (A) (A) (A) (A)
 The electronic state of the initial guess is 1-A.
 Leave Link  401 at Fri Aug 26 22:43:22 2022, MaxMem=  209715200 cpu:       4.4
 (Enter /opt/gaussian/l502.exe)
 Closed shell SCF:
 Requested convergence on RMS density matrix=1.00D-08 within 128 cycles.
 Requested convergence on MAX density matrix=1.00D-06.
 Requested convergence on             energy=1.00D-06.
 No special actions if energy rises.
 Using DIIS extrapolation, IDIIS=  1040.
 Integral symmetry usage will be decided dynamically.
 IEnd=      330396 IEndB=      330396 NGot=   209715200 MDV=   209504165
 LenX=   209504165 LenY=   209401324
 Fock matrices will be formed incrementally for  20 cycles.
 Integral accuracy reduced to 1.0D-05 until final iterations.

 Cycle   1  Pass 0  IDiag  1:
 FoFCou: FMM=F IPFlag=           0 FMFlag=      100000 FMFlg1=           0
         NFxFlg=           0 DoJE=F BraDBF=F KetDBF=F FulRan=T
         Omega=  0.000000  0.000000  1.000000  0.000000  0.000000 ICntrl=       0 IOpCl=  0
         NMat0=    1 NMatS0=    1 NMatT0=    0 NMatD0=    1 NMtDS0=    0 NMtDT0=    0
         I1Cent=           0 NGrid=           0.
 Symmetry not used in FoFCou.
 E= -1268.94843002613    
 DIIS: error= 4.89D-02 at cycle   1 NSaved=   1.
 NSaved= 1 IEnMin= 1 EnMin= -1268.94843002613     IErMin= 1 ErrMin= 4.89D-02
 ErrMax= 4.89D-02 EMaxC= 1.00D-01 BMatC= 1.07D+00 BMatP= 1.07D+00
 IDIUse=3 WtCom= 5.11D-01 WtEn= 4.89D-01
 Coeff-Com:  0.100D+01
 Coeff-En:   0.100D+01
 Coeff:      0.100D+01
 Gap=     0.493 Goal=   None    Shift=    0.000
 GapD=    0.493 DampG=2.000 DampE=0.500 DampFc=1.0000 IDamp=-1.
 RMSDP=5.71D-03 MaxDP=1.77D-01              OVMax= 1.67D-01

 Cycle   2  Pass 0  IDiag  1:
 RMSU=  4.00D-03    CP:  9.66D-01
 E= -1269.69791943049     Delta-E=       -0.749489404365 Rises=F Damp=F
 DIIS: error= 2.06D-02 at cycle   2 NSaved=   2.
 NSaved= 2 IEnMin= 2 EnMin= -1269.69791943049     IErMin= 2 ErrMin= 2.06D-02
 ErrMax= 2.06D-02 EMaxC= 1.00D-01 BMatC= 1.98D-01 BMatP= 1.07D+00
 IDIUse=3 WtCom= 7.94D-01 WtEn= 2.06D-01
 Coeff-Com:  0.254D+00 0.746D+00
 Coeff-En:   0.000D+00 0.100D+01
 Coeff:      0.202D+00 0.798D+00
 Gap=     0.432 Goal=   None    Shift=    0.000
 RMSDP=2.41D-03 MaxDP=9.31D-02 DE=-7.49D-01 OVMax= 1.04D-01

 Cycle   3  Pass 0  IDiag  1:
 RMSU=  1.43D-03    CP:  9.66D-01  7.71D-01
 E= -1269.86023786016     Delta-E=       -0.162318429664 Rises=F Damp=F
 DIIS: error= 9.98D-03 at cycle   3 NSaved=   3.
 NSaved= 3 IEnMin= 3 EnMin= -1269.86023786016     IErMin= 3 ErrMin= 9.98D-03
 ErrMax= 9.98D-03 EMaxC= 1.00D-01 BMatC= 2.97D-02 BMatP= 1.98D-01
 IDIUse=3 WtCom= 9.00D-01 WtEn= 9.98D-02
 Coeff-Com:  0.115D-01 0.268D+00 0.721D+00
 Coeff-En:   0.000D+00 0.000D+00 0.100D+01
 Coeff:      0.104D-01 0.241D+00 0.749D+00
 Gap=     0.392 Goal=   None    Shift=    0.000
 RMSDP=8.10D-04 MaxDP=3.40D-02 DE=-1.62D-01 OVMax= 3.62D-02

 Cycle   4  Pass 0  IDiag  1:
 RMSU=  3.44D-04    CP:  9.67D-01  8.65D-01  8.18D-01
 E= -1269.88623939183     Delta-E=       -0.026001531672 Rises=F Damp=F
 DIIS: error= 2.54D-03 at cycle   4 NSaved=   4.
 NSaved= 4 IEnMin= 4 EnMin= -1269.88623939183     IErMin= 4 ErrMin= 2.54D-03
 ErrMax= 2.54D-03 EMaxC= 1.00D-01 BMatC= 2.90D-03 BMatP= 2.97D-02
 IDIUse=3 WtCom= 9.75D-01 WtEn= 2.54D-02
 Coeff-Com: -0.137D-01 0.250D-01 0.278D+00 0.710D+00
 Coeff-En:   0.000D+00 0.000D+00 0.000D+00 0.100D+01
 Coeff:     -0.134D-01 0.243D-01 0.271D+00 0.718D+00
 Gap=     0.386 Goal=   None    Shift=    0.000
 RMSDP=2.57D-04 MaxDP=9.87D-03 DE=-2.60D-02 OVMax= 9.17D-03

 Cycle   5  Pass 0  IDiag  1:
 RMSU=  1.08D-04    CP:  9.65D-01  8.58D-01  9.03D-01  7.86D-01
 E= -1269.88894715327     Delta-E=       -0.002707761446 Rises=F Damp=F
 DIIS: error= 9.30D-04 at cycle   5 NSaved=   5.
 NSaved= 5 IEnMin= 5 EnMin= -1269.88894715327     IErMin= 5 ErrMin= 9.30D-04
 ErrMax= 9.30D-04 EMaxC= 1.00D-01 BMatC= 8.18D-05 BMatP= 2.90D-03
 IDIUse=3 WtCom= 9.91D-01 WtEn= 9.30D-03
 Coeff-Com: -0.144D-02-0.124D-01-0.131D-01 0.518D-01 0.975D+00
 Coeff-En:   0.000D+00 0.000D+00 0.000D+00 0.000D+00 0.100D+01
 Coeff:     -0.143D-02-0.123D-01-0.129D-01 0.513D-01 0.975D+00
 Gap=     0.387 Goal=   None    Shift=    0.000
 RMSDP=7.20D-05 MaxDP=2.00D-03 DE=-2.71D-03 OVMax= 5.29D-03

 Cycle   6  Pass 0  IDiag  1:
 RMSU=  3.80D-05    CP:  9.65D-01  8.58D-01  9.19D-01  8.31D-01  1.18D+00
 E= -1269.88916155607     Delta-E=       -0.000214402800 Rises=F Damp=F
 DIIS: error= 3.56D-04 at cycle   6 NSaved=   6.
 NSaved= 6 IEnMin= 6 EnMin= -1269.88916155607     IErMin= 6 ErrMin= 3.56D-04
 ErrMax= 3.56D-04 EMaxC= 1.00D-01 BMatC= 2.17D-05 BMatP= 8.18D-05
 IDIUse=3 WtCom= 9.96D-01 WtEn= 3.56D-03
 Coeff-Com:  0.228D-02-0.650D-02-0.494D-01-0.138D+00 0.142D+00 0.105D+01
 Coeff-En:   0.000D+00 0.000D+00 0.000D+00 0.000D+00 0.000D+00 0.100D+01
 Coeff:      0.227D-02-0.648D-02-0.492D-01-0.137D+00 0.142D+00 0.105D+01
 Gap=     0.387 Goal=   None    Shift=    0.000
 RMSDP=4.76D-05 MaxDP=1.59D-03 DE=-2.14D-04 OVMax= 3.03D-03

 Cycle   7  Pass 0  IDiag  1:
 RMSU=  1.47D-05    CP:  9.65D-01  8.57D-01  9.28D-01  8.39D-01  1.42D+00
                    CP:  1.19D+00
 E= -1269.88922768006     Delta-E=       -0.000066123986 Rises=F Damp=F
 DIIS: error= 1.98D-04 at cycle   7 NSaved=   7.
 NSaved= 7 IEnMin= 7 EnMin= -1269.88922768006     IErMin= 7 ErrMin= 1.98D-04
 ErrMax= 1.98D-04 EMaxC= 1.00D-01 BMatC= 2.87D-06 BMatP= 2.17D-05
 IDIUse=3 WtCom= 9.98D-01 WtEn= 1.98D-03
 Coeff-Com:  0.109D-03 0.154D-02 0.449D-02-0.908D-02-0.106D+00-0.426D-01
 Coeff-Com:  0.115D+01
 Coeff-En:   0.000D+00 0.000D+00 0.000D+00 0.000D+00 0.000D+00 0.000D+00
 Coeff-En:   0.100D+01
 Coeff:      0.108D-03 0.154D-02 0.448D-02-0.906D-02-0.105D+00-0.425D-01
 Coeff:      0.115D+01
 Gap=     0.387 Goal=   None    Shift=    0.000
 RMSDP=1.82D-05 MaxDP=6.91D-04 DE=-6.61D-05 OVMax= 1.64D-03

 Cycle   8  Pass 0  IDiag  1:
 RMSU=  5.51D-06    CP:  9.65D-01  8.56D-01  9.30D-01  8.38D-01  1.48D+00
                    CP:  1.36D+00  1.39D+00
 E= -1269.88923814037     Delta-E=       -0.000010460309 Rises=F Damp=F
 DIIS: error= 7.87D-05 at cycle   8 NSaved=   8.
 NSaved= 8 IEnMin= 8 EnMin= -1269.88923814037     IErMin= 8 ErrMin= 7.87D-05
 ErrMax= 7.87D-05 EMaxC= 1.00D-01 BMatC= 6.60D-07 BMatP= 2.87D-06
 IDIUse=1 WtCom= 1.00D+00 WtEn= 0.00D+00
 Coeff-Com: -0.518D-03 0.199D-02 0.138D-01 0.289D-01-0.510D-01-0.270D+00
 Coeff-Com:  0.260D+00 0.102D+01
 Coeff:     -0.518D-03 0.199D-02 0.138D-01 0.289D-01-0.510D-01-0.270D+00
 Coeff:      0.260D+00 0.102D+01
 Gap=     0.387 Goal=   None    Shift=    0.000
 RMSDP=8.56D-06 MaxDP=2.32D-04 DE=-1.05D-05 OVMax= 7.21D-04

 Initial convergence to 1.0D-05 achieved.  Increase integral accuracy.
 Cycle   9  Pass 1  IDiag  1:
 E= -1269.88924130714     Delta-E=       -0.000003166771 Rises=F Damp=F
 DIIS: error= 7.24D-05 at cycle   1 NSaved=   1.
 NSaved= 1 IEnMin= 1 EnMin= -1269.88924130714     IErMin= 1 ErrMin= 7.24D-05
 ErrMax= 7.24D-05 EMaxC= 1.00D-01 BMatC= 1.39D-06 BMatP= 1.39D-06
 IDIUse=1 WtCom= 1.00D+00 WtEn= 0.00D+00
 Coeff-Com:  0.100D+01
 Coeff:      0.100D+01
 Gap=     0.387 Goal=   None    Shift=    0.000
 RMSDP=8.56D-06 MaxDP=2.32D-04 DE=-3.17D-06 OVMax= 2.02D-04

 Cycle  10  Pass 1  IDiag  1:
 RMSU=  3.59D-05    CP:  1.00D+00
 E= -1269.88924282372     Delta-E=       -0.000001516582 Rises=F Damp=F
 DIIS: error= 1.62D-05 at cycle   2 NSaved=   2.
 NSaved= 2 IEnMin= 2 EnMin= -1269.88924282372     IErMin= 2 ErrMin= 1.62D-05
 ErrMax= 1.62D-05 EMaxC= 1.00D-01 BMatC= 3.83D-08 BMatP= 1.39D-06
 IDIUse=1 WtCom= 1.00D+00 WtEn= 0.00D+00
 Coeff-Com: -0.213D-01 0.102D+01
 Coeff:     -0.213D-01 0.102D+01
 Gap=     0.387 Goal=   None    Shift=    0.000
 RMSDP=3.09D-06 MaxDP=4.93D-05 DE=-1.52D-06 OVMax= 1.23D-04

 Cycle  11  Pass 1  IDiag  1:
 RMSU=  1.06D-06    CP:  1.00D+00  1.05D+00
 E= -1269.88924290928     Delta-E=       -0.000000085556 Rises=F Damp=F
 DIIS: error= 1.37D-05 at cycle   3 NSaved=   3.
 NSaved= 3 IEnMin= 3 EnMin= -1269.88924290928     IErMin= 3 ErrMin= 1.37D-05
 ErrMax= 1.37D-05 EMaxC= 1.00D-01 BMatC= 2.09D-08 BMatP= 3.83D-08
 IDIUse=1 WtCom= 1.00D+00 WtEn= 0.00D+00
 Coeff-Com: -0.281D-01 0.393D+00 0.635D+00
 Coeff:     -0.281D-01 0.393D+00 0.635D+00
 Gap=     0.387 Goal=   None    Shift=    0.000
 RMSDP=6.16D-07 MaxDP=2.32D-05 DE=-8.56D-08 OVMax= 5.73D-05

 Cycle  12  Pass 1  IDiag  1:
 RMSU=  4.19D-07    CP:  1.00D+00  1.06D+00  9.66D-01
 E= -1269.88924294314     Delta-E=       -0.000000033858 Rises=F Damp=F
 DIIS: error= 7.70D-06 at cycle   4 NSaved=   4.
 NSaved= 4 IEnMin= 4 EnMin= -1269.88924294314     IErMin= 4 ErrMin= 7.70D-06
 ErrMax= 7.70D-06 EMaxC= 1.00D-01 BMatC= 4.63D-09 BMatP= 2.09D-08
 IDIUse=1 WtCom= 1.00D+00 WtEn= 0.00D+00
 Coeff-Com:  0.279D-01-0.654D+00-0.427D+00 0.205D+01
 Coeff:      0.279D-01-0.654D+00-0.427D+00 0.205D+01
 Gap=     0.387 Goal=   None    Shift=    0.000
 RMSDP=1.07D-06 MaxDP=2.83D-05 DE=-3.39D-08 OVMax= 1.43D-04

 Cycle  13  Pass 1  IDiag  1:
 RMSU=  3.20D-07    CP:  1.00D+00  1.06D+00  1.44D+00  2.10D+00
 E= -1269.88924297470     Delta-E=       -0.000000031569 Rises=F Damp=F
 DIIS: error= 1.82D-06 at cycle   5 NSaved=   5.
 NSaved= 5 IEnMin= 5 EnMin= -1269.88924297470     IErMin= 5 ErrMin= 1.82D-06
 ErrMax= 1.82D-06 EMaxC= 1.00D-01 BMatC= 3.37D-10 BMatP= 4.63D-09
 IDIUse=1 WtCom= 1.00D+00 WtEn= 0.00D+00
 Coeff-Com:  0.951D-02-0.195D+00-0.150D+00 0.474D+00 0.862D+00
 Coeff:      0.951D-02-0.195D+00-0.150D+00 0.474D+00 0.862D+00
 Gap=     0.387 Goal=   None    Shift=    0.000
 RMSDP=1.87D-07 MaxDP=5.68D-06 DE=-3.16D-08 OVMax= 2.54D-05

 Cycle  14  Pass 1  IDiag  1:
 RMSU=  6.82D-08    CP:  1.00D+00  1.06D+00  1.49D+00  2.28D+00  1.19D+00
 E= -1269.88924297594     Delta-E=       -0.000000001237 Rises=F Damp=F
 DIIS: error= 6.22D-07 at cycle   6 NSaved=   6.
 NSaved= 6 IEnMin= 6 EnMin= -1269.88924297594     IErMin= 6 ErrMin= 6.22D-07
 ErrMax= 6.22D-07 EMaxC= 1.00D-01 BMatC= 5.24D-11 BMatP= 3.37D-10
 IDIUse=1 WtCom= 1.00D+00 WtEn= 0.00D+00
 Coeff-Com: -0.370D-02 0.882D-01 0.665D-01-0.309D+00 0.558D-01 0.110D+01
 Coeff:     -0.370D-02 0.882D-01 0.665D-01-0.309D+00 0.558D-01 0.110D+01
 Gap=     0.387 Goal=   None    Shift=    0.000
 RMSDP=8.35D-08 MaxDP=1.88D-06 DE=-1.24D-09 OVMax= 1.02D-05

 Cycle  15  Pass 1  IDiag  1:
 RMSU=  3.01D-08    CP:  1.00D+00  1.06D+00  1.50D+00  2.34D+00  1.32D+00
                    CP:  1.16D+00
 E= -1269.88924297620     Delta-E=       -0.000000000255 Rises=F Damp=F
 DIIS: error= 2.11D-07 at cycle   7 NSaved=   7.
 NSaved= 7 IEnMin= 7 EnMin= -1269.88924297620     IErMin= 7 ErrMin= 2.11D-07
 ErrMax= 2.11D-07 EMaxC= 1.00D-01 BMatC= 8.39D-12 BMatP= 5.24D-11
 IDIUse=1 WtCom= 1.00D+00 WtEn= 0.00D+00
 Coeff-Com: -0.133D-02 0.277D-01 0.269D-01-0.766D-01-0.111D+00 0.680D-01
 Coeff-Com:  0.107D+01
 Coeff:     -0.133D-02 0.277D-01 0.269D-01-0.766D-01-0.111D+00 0.680D-01
 Coeff:      0.107D+01
 Gap=     0.387 Goal=   None    Shift=    0.000
 RMSDP=2.49D-08 MaxDP=8.60D-07 DE=-2.55D-10 OVMax= 2.59D-06

 Cycle  16  Pass 1  IDiag  1:
 RMSU=  1.09D-08    CP:  1.00D+00  1.06D+00  1.50D+00  2.34D+00  1.33D+00
                    CP:  1.30D+00  1.27D+00
 E= -1269.88924297623     Delta-E=       -0.000000000034 Rises=F Damp=F
 DIIS: error= 9.43D-08 at cycle   8 NSaved=   8.
 NSaved= 8 IEnMin= 8 EnMin= -1269.88924297623     IErMin= 8 ErrMin= 9.43D-08
 ErrMax= 9.43D-08 EMaxC= 1.00D-01 BMatC= 1.86D-12 BMatP= 8.39D-12
 IDIUse=1 WtCom= 1.00D+00 WtEn= 0.00D+00
 Coeff-Com:  0.459D-03-0.122D-01-0.532D-02 0.452D-01-0.477D-01-0.225D+00
 Coeff-Com:  0.308D+00 0.937D+00
 Coeff:      0.459D-03-0.122D-01-0.532D-02 0.452D-01-0.477D-01-0.225D+00
 Coeff:      0.308D+00 0.937D+00
 Gap=     0.387 Goal=   None    Shift=    0.000
 RMSDP=1.22D-08 MaxDP=3.49D-07 DE=-3.41D-11 OVMax= 1.23D-06

 Cycle  17  Pass 1  IDiag  1:
 RMSU=  4.77D-09    CP:  1.00D+00  1.06D+00  1.50D+00  2.34D+00  1.33D+00
                    CP:  1.34D+00  1.47D+00  1.10D+00
 E= -1269.88924297624     Delta-E=       -0.000000000008 Rises=F Damp=F
 DIIS: error= 5.92D-08 at cycle   9 NSaved=   9.
 NSaved= 9 IEnMin= 9 EnMin= -1269.88924297624     IErMin= 9 ErrMin= 5.92D-08
 ErrMax= 5.92D-08 EMaxC= 1.00D-01 BMatC= 2.02D-13 BMatP= 1.86D-12
 IDIUse=1 WtCom= 1.00D+00 WtEn= 0.00D+00
 Coeff-Com:  0.117D-03-0.241D-02-0.162D-02 0.562D-02 0.115D-01-0.904D-03
 Coeff-Com: -0.117D+00-0.676D-02 0.111D+01
 Coeff:      0.117D-03-0.241D-02-0.162D-02 0.562D-02 0.115D-01-0.904D-03
 Coeff:     -0.117D+00-0.676D-02 0.111D+01
 Gap=     0.387 Goal=   None    Shift=    0.000
 RMSDP=4.93D-09 MaxDP=1.71D-07 DE=-7.73D-12 OVMax= 5.31D-07

 SCF Done:  E(RHF) =  -1269.88924298     A.U. after   17 cycles
             Convg  =    0.4931D-08             -V/T =  2.0005
 KE= 1.269310527957D+03 PE=-8.261636661357D+03 EE= 3.072308404284D+03
 Leave Link  502 at Fri Aug 26 22:44:34 2022, MaxMem=  209715200 cpu:     572.2
 (Enter /opt/gaussian/l601.exe)
 Copying SCF densities to generalized density rwf, IOpCl= 0 IROHF=0.

 **********************************************************************

            Population analysis using the SCF density.

 **********************************************************************

 Orbital symmetries:
       Occupied  (A) (A) (A) (A) (A) (A) (A) (A) (A) (A) (A) (A)
                 (A) (A) (A) (A) (A) (A) (A) (A) (A) (A) (A) (A)
                 (A) (A) (A) (A) (A) (A) (A) (A) (A) (A) (A) (A)
                 (A) (A) (A) (A) (A) (A) (A) (A) (A) (A) (A) (A)
                 (A) (A) (A) (A) (A) (A) (A) (A) (A) (A) (A) (A)
                 (A) (A) (A) (A) (A) (A) (A) (A) (A) (A) (A) (A)
                 (A) (A) (A) (A) (A) (A) (A) (A) (A) (A) (A) (A)
                 (A) (A) (A) (A) (A) (A) (A) (A) (A) (A) (A) (A)
                 (A) (A) (A) (A) (A) (A) (A) (A) (A) (A)
       Virtual   (A) (A) (A) (A) (A) (A) (A) (A) (A) (A) (A) (A)
                 (A) (A) (A) (A) (A) (A) (A) (A) (A) (A) (A) (A)
                 (A) (A) (A) (A) (A) (A) (A) (A) (A) (A) (A) (A)
                 (A) (A) (A) (A) (A) (A) (A) (A) (A) (A) (A) (A)
                 (A) (A) (A) (A) (A) (A) (A) (A) (A) (A) (A) (A)
                 (A) (A) (A) (A) (A) (A) (A) (A) (A) (A) (A) (A)
                 (A) (A) (A) (A) (A) (A) (A) (A) (A) (A) (A) (A)
                 (A) (A) (A) (A) (A) (A) (A) (A) (A) (A) (A) (A)
                 (A) (A) (A) (A) (A) (A) (A) (A) (A) (A) (A) (A)
                 (A) (A) (A) (A) (A) (A) (A) (A) (A) (A) (A) (A)
                 (A) (A) (A) (A) (A) (A) (A) (A) (A) (A) (A) (A)
                 (A) (A) (A) (A) (A) (A) (A) (A) (A) (A) (A) (A)
                 (A) (A) (A) (A) (A) (A) (A) (A) (A) (A) (A) (A)
                 (A) (A) (A) (A) (A) (A) (A) (A) (A) (A) (A) (A)
                 (A) (A) (A) (A) (A) (A) (A) (A) (A) (A) (A) (A)
                 (A) (A) (A) (A) (A) (A) (A) (A) (A) (A) (A) (A)
                 (A) (A) (A) (A) (A) (A) (A) (A) (A) (A) (A) (A)
                 (A) (A) (A) (A) (A) (A) (A) (A) (A) (A)
 The electronic state is 1-A.
 Alpha  occ. eigenvalues --  -20.55300 -15.67362 -15.65881 -15.62602 -15.62331
 Alpha  occ. eigenvalues --  -15.58117 -11.39600 -11.33126 -11.30963 -11.30376
 Alpha  occ. eigenvalues --  -11.30271 -11.28485 -11.28453 -11.28430 -11.26776
 Alpha  occ. eigenvalues --  -11.26715 -11.26674 -11.26503 -11.26350 -11.25801
 Alpha  occ. eigenvalues --  -11.25784 -11.25728 -11.25716 -11.25693 -11.25446
 Alpha  occ. eigenvalues --  -11.25345 -11.24971 -11.24740 -11.24496 -11.24090
 Alpha  occ. eigenvalues --   -1.46589  -1.40979  -1.28404  -1.26846  -1.24704
 Alpha  occ. eigenvalues --   -1.17306  -1.17057  -1.13062  -1.10399  -1.06271
 Alpha  occ. eigenvalues --   -1.05211  -1.04698  -1.03324  -1.02366  -1.01935
 Alpha  occ. eigenvalues --   -0.98758  -0.95035  -0.89933  -0.89072  -0.88463
 Alpha  occ. eigenvalues --   -0.86800  -0.84875  -0.83793  -0.82974  -0.80337
 Alpha  occ. eigenvalues --   -0.79101  -0.76761  -0.72737  -0.72286  -0.72108
 Alpha  occ. eigenvalues --   -0.71350  -0.69864  -0.67913  -0.67250  -0.66292
 Alpha  occ. eigenvalues --   -0.65740  -0.65485  -0.64354  -0.63249  -0.62680
 Alpha  occ. eigenvalues --   -0.62353  -0.61880  -0.61571  -0.60695  -0.60314
 Alpha  occ. eigenvalues --   -0.59491  -0.58888  -0.57312  -0.57081  -0.56136
 Alpha  occ. eigenvalues --   -0.55226  -0.54631  -0.54329  -0.53987  -0.53529
 Alpha  occ. eigenvalues --   -0.52674  -0.51870  -0.51450  -0.51032  -0.50882
 Alpha  occ. eigenvalues --   -0.49899  -0.49654  -0.48692  -0.47969  -0.47695
 Alpha  occ. eigenvalues --   -0.45382  -0.42594  -0.42128  -0.41645  -0.40565
 Alpha  occ. eigenvalues --   -0.38278  -0.35956  -0.34670  -0.34009  -0.32833
 Alpha  occ. eigenvalues --   -0.29678
 Alpha virt. eigenvalues --    0.09049   0.09243   0.11774   0.13132   0.14009
 Alpha virt. eigenvalues --    0.14809   0.16900   0.18096   0.19632   0.20086
 Alpha virt. eigenvalues --    0.20533   0.22963   0.23188   0.23840   0.24745
 Alpha virt. eigenvalues --    0.26388   0.26850   0.27262   0.27642   0.27851
 Alpha virt. eigenvalues --    0.28072   0.29316   0.29979   0.30380   0.30829
 Alpha virt. eigenvalues --    0.31331   0.32185   0.32397   0.32609   0.33576
 Alpha virt. eigenvalues --    0.33976   0.34499   0.34705   0.35659   0.35934
 Alpha virt. eigenvalues --    0.36571   0.37822   0.38158   0.38774   0.39192
 Alpha virt. eigenvalues --    0.39987   0.40747   0.41215   0.42049   0.42903
 Alpha virt. eigenvalues --    0.43935   0.44569   0.44813   0.45668   0.47500
 Alpha virt. eigenvalues --    0.48412   0.49333   0.50279   0.50966   0.51215
 Alpha virt. eigenvalues --    0.52331   0.53860   0.55149   0.56352   0.57000
 Alpha virt. eigenvalues --    0.57065   0.60406   0.62612   0.63386   0.65646
 Alpha virt. eigenvalues --    0.70039   0.70724   0.71962   0.72385   0.73512
 Alpha virt. eigenvalues --    0.73939   0.74265   0.74564   0.75917   0.76231
 Alpha virt. eigenvalues --    0.76583   0.76800   0.77683   0.78372   0.78717
 Alpha virt. eigenvalues --    0.79533   0.80212   0.80633   0.81345   0.82074
 Alpha virt. eigenvalues --    0.82950   0.83074   0.83487   0.83672   0.84120
 Alpha virt. eigenvalues --    0.84733   0.85056   0.85349   0.85453   0.85855
 Alpha virt. eigenvalues --    0.86084   0.86614   0.87153   0.87378   0.87959
 Alpha virt. eigenvalues --    0.88253   0.88799   0.89829   0.90191   0.90699
 Alpha virt. eigenvalues --    0.91385   0.92065   0.92587   0.93360   0.94709
 Alpha virt. eigenvalues --    0.94859   0.95159   0.95638   0.96345   0.96447
 Alpha virt. eigenvalues --    0.97821   0.98163   0.98354   0.99682   1.00457
 Alpha virt. eigenvalues --    1.00816   1.02188   1.03173   1.04350   1.05815
 Alpha virt. eigenvalues --    1.07134   1.08592   1.09069   1.09438   1.09599
 Alpha virt. eigenvalues --    1.10306   1.10444   1.11192   1.11585   1.11945
 Alpha virt. eigenvalues --    1.12067   1.12639   1.13412   1.14020   1.14348
 Alpha virt. eigenvalues --    1.14550   1.14910   1.15465   1.16230   1.16959
 Alpha virt. eigenvalues --    1.17314   1.17973   1.19219   1.19610   1.19996
 Alpha virt. eigenvalues --    1.21393   1.21493   1.21894   1.22243   1.23177
 Alpha virt. eigenvalues --    1.23586   1.23898   1.24616   1.25926   1.26427
 Alpha virt. eigenvalues --    1.26939   1.28104   1.28563   1.28911   1.30120
 Alpha virt. eigenvalues --    1.30222   1.31093   1.31315   1.32691   1.33974
 Alpha virt. eigenvalues --    1.34800   1.35436   1.36333   1.37079   1.38210
 Alpha virt. eigenvalues --    1.38504   1.39376   1.41395   1.42175   1.42675
 Alpha virt. eigenvalues --    1.43922   1.44502   1.47371   1.49984   1.51110
 Alpha virt. eigenvalues --    1.52890   1.53651   1.54744   1.57513   1.58953
 Alpha virt. eigenvalues --    1.59859   1.61373   1.64369   1.65593   1.68484
 Alpha virt. eigenvalues --    1.69133   1.70308   1.70739   1.73140   1.73747
 Alpha virt. eigenvalues --    1.75400   1.78979   1.82251   1.84648   1.89226
 Alpha virt. eigenvalues --    1.96316   1.97464   2.00944   2.04596   2.09882
 Alpha virt. eigenvalues --    2.17571   2.21334   2.25489   2.31534
          Condensed to atoms (all electrons):
 Mulliken atomic charges:
              1
     1  C   -0.439188
     2  C   -0.196183
     3  C   -0.434641
     4  C   -0.282109
     5  C   -0.091450
     6  N   -0.998115
     7  C    0.798146
     8  O   -0.585361
     9  C   -0.145216
    10  N   -0.788527
    11  N    0.113226
    12  N   -0.311139
    13  C    0.029941
    14  C   -0.103411
    15  C   -0.234382
    16  C   -0.199676
    17  C   -0.115206
    18  C    0.395123
    19  C    0.348875
    20  C   -0.214018
    21  C   -0.199828
    22  C   -0.029485
    23  C   -0.205976
    24  C   -0.156529
    25  C   -0.088894
    26  C   -0.142231
    27  C   -0.246357
    28  C    0.048357
    29  N   -0.529592
    30  C    0.055431
    31  H    0.148430
    32  H    0.145478
    33  H    0.165667
    34  H    0.163836
    35  H    0.149791
    36  H    0.156766
    37  H    0.152570
    38  H    0.147755
    39  H    0.174131
    40  H    0.207387
    41  H    0.176837
    42  H    0.246573
    43  H    0.225096
    44  H    0.247303
    45  H    0.210066
    46  H    0.211405
    47  H    0.218271
    48  H    0.213746
    49  H    0.217447
    50  H    0.228944
    51  H    0.263278
    52  H    0.227548
    53  H    0.216462
    54  H    0.211003
    55  H    0.222623
 Sum of Mulliken atomic charges =   0.00000
 Mulliken charges with hydrogens summed into heavy atoms:
              1
     1  C    0.020388
     2  C   -0.032348
     3  C    0.024486
     4  C    0.039777
     5  C    0.292774
     6  N   -0.998115
     7  C    0.798146
     8  O   -0.585361
     9  C    0.326453
    10  N   -0.788527
    11  N    0.113226
    12  N   -0.311139
    13  C    0.029941
    14  C    0.143892
    15  C   -0.024316
    16  C    0.011729
    17  C    0.103065
    18  C    0.395123
    19  C    0.348875
    20  C   -0.000272
    21  C    0.017620
    22  C   -0.029485
    23  C    0.022968
    24  C    0.106749
    25  C   -0.088894
    26  C    0.085316
    27  C   -0.029895
    28  C    0.259360
    29  N   -0.529592
    30  C    0.278054
 Sum of Mulliken charges with hydrogens summed into heavy atoms =   0.00000
 Electronic spatial extent (au):  <R**2>=          18475.3243
 Charge=              0.0000 electrons
 Dipole moment (field-independent basis, Debye):
    X=              1.1884    Y=              7.5234    Z=              4.8100  Tot=              9.0083
 Quadrupole moment (field-independent basis, Debye-Ang):
   XX=           -188.8103   YY=           -178.8749   ZZ=           -179.7082
   XY=             -1.0104   XZ=              0.5196   YZ=             -9.8564
 Traceless Quadrupole moment (field-independent basis, Debye-Ang):
   XX=             -6.3458   YY=              3.5895   ZZ=              2.7563
   XY=             -1.0104   XZ=              0.5196   YZ=             -9.8564
 Octapole moment (field-independent basis, Debye-Ang**2):
  XXX=             95.2548  YYY=             42.1597  ZZZ=             35.0995  XYY=             46.8490
  XXY=             41.5335  XXZ=            238.1831  XZZ=             -9.1133  YZZ=             17.9318
  YYZ=             18.1688  XYZ=            -38.9660
 Hexadecapole moment (field-independent basis, Debye-Ang**3):
 XXXX=         -19572.3743 YYYY=          -5472.5437 ZZZZ=          -1433.0386 XXXY=           -612.8053
 XXXZ=           -726.6804 YYYX=           -144.1595 YYYZ=            -99.9421 ZZZX=             95.8398
 ZZZY=            -61.1710 XXYY=          -4164.9271 XXZZ=          -3367.8850 YYZZ=          -1230.4564
 XXYZ=           -403.0506 YYXZ=             95.7855 ZZXY=             24.9858
 N-N= 2.650128486139D+03 E-N=-8.261636662771D+03  KE= 1.269310527957D+03
 No NMR shielding tensors so no spin-rotation constants.
 Leave Link  601 at Fri Aug 26 22:44:34 2022, MaxMem=  209715200 cpu:       1.4
 (Enter /opt/gaussian/l701.exe)
 Compute integral first derivatives.
 ... and contract with generalized density number  0.
 Leave Link  701 at Fri Aug 26 22:44:34 2022, MaxMem=  209715200 cpu:       1.2
 (Enter /opt/gaussian/l702.exe)
 L702 exits ... SP integral derivatives will be done elsewhere.
 Leave Link  702 at Fri Aug 26 22:44:34 2022, MaxMem=  209715200 cpu:       0.2
 (Enter /opt/gaussian/l703.exe)
 Compute integral first derivatives, UseDBF=F ICtDFT=           0.
 Integral derivatives from FoFDir, PRISM(SPDF).
 Calling FoFJK, ICntrl=      2127 FMM=F ISym2X=0 I1Cent= 0 IOpClX= 0 NMat=1 NMatS=1 NMatT=0.
 FoFCou: FMM=F IPFlag=           0 FMFlag=      100000 FMFlg1=         800
         NFxFlg=           0 DoJE=F BraDBF=F KetDBF=F FulRan=T
         Omega=  0.000000  0.000000  1.000000  0.000000  0.000000 ICntrl=    2127 IOpCl=  0
         NMat0=    1 NMatS0=    1 NMatT0=    0 NMatD0=    1 NMtDS0=    0 NMtDT0=    0
         I1Cent=           0 NGrid=           0.
 Symmetry not used in FoFCou.
 Leave Link  703 at Fri Aug 26 22:45:00 2022, MaxMem=  209715200 cpu:     207.0
 (Enter /opt/gaussian/l716.exe)
 Dipole        = 4.67564828D-01 2.95992144D+00 1.89238236D+00
 ***** Axes restored to original set *****
 -------------------------------------------------------------------
 Center     Atomic                   Forces (Hartrees/Bohr)
 Number     Number              X              Y              Z
 -------------------------------------------------------------------
      1        6           0.013115626   -0.018215198    0.016473452
      2        6          -0.015827487    0.007479960    0.011097087
      3        6          -0.019595032   -0.010016642   -0.015572632
      4        6           0.004174157    0.011993721   -0.020980842
      5        6          -0.016665076   -0.013358456    0.032506486
      6        7           0.026149170   -0.003612495   -0.003700427
      7        6           0.006209832    0.027030481   -0.007902941
      8        8          -0.016430077   -0.030551144    0.009886394
      9        6          -0.018873916   -0.017738100    0.017784966
     10        7           0.023010585    0.010765878   -0.048917252
     11        7          -0.014734191   -0.002485388    0.010187938
     12        7           0.003487266   -0.008120496   -0.030597478
     13        6          -0.048179780   -0.006766968    0.003990767
     14        6           0.008912113    0.003895965    0.007118311
     15        6           0.013422723   -0.000724600   -0.007157271
     16        6          -0.006315815   -0.003661377   -0.010748861
     17        6          -0.011256982   -0.000151212    0.001093093
     18        6           0.033830253    0.007238637    0.031155128
     19        6          -0.003568124    0.025513723   -0.006232576
     20        6           0.003811658   -0.012437564    0.001149130
     21        6          -0.005871907    0.001984513   -0.003511388
     22        6           0.006319514   -0.017961441    0.002882330
     23        6           0.003986888    0.003807430    0.003115282
     24        6           0.008683081   -0.007059968    0.006688098
     25        6          -0.007573032    0.028773004    0.001989696
     26        6          -0.002266029   -0.000741815   -0.003443087
     27        6          -0.001749974    0.007546520    0.002753163
     28        6          -0.005305408    0.011847060   -0.003678611
     29        7          -0.002745191   -0.018592589   -0.019226310
     30        6           0.004215432   -0.001516843    0.006288221
     31        1          -0.012144163    0.006683673    0.015181347
     32        1          -0.010904866   -0.013182720   -0.014576715
     33        1           0.015790188    0.014109542   -0.006500639
     34        1           0.013855103   -0.008388317   -0.016901461
     35        1          -0.013261347    0.006048330    0.013954199
     36        1           0.009976221    0.015520535   -0.011113000
     37        1           0.011713990   -0.017030487    0.005313612
     38        1          -0.019581718    0.009694751    0.008091047
     39        1           0.015467346   -0.012575554    0.015342016
     40        1           0.027725014   -0.013815502   -0.007775190
     41        1          -0.014801298    0.017996200   -0.020062388
     42        1           0.009114141    0.002351631   -0.030265843
     43        1           0.013457364    0.018512247    0.023687133
     44        1          -0.019143311   -0.003834218   -0.004655504
     45        1          -0.014495329    0.003206225    0.013710451
     46        1           0.003928296    0.006366160    0.018701852
     47        1           0.017466716    0.003315627    0.003516905
     48        1           0.012253654    0.017634766    0.006714991
     49        1           0.016945884   -0.003064489    0.010786937
     50        1          -0.009986981   -0.017310740   -0.006760546
     51        1          -0.022915189    0.001520790   -0.011655061
     52        1           0.002756556    0.014319723    0.013642112
     53        1           0.008735056   -0.003859698    0.016339125
     54        1           0.008114225   -0.022490958    0.001690593
     55        1          -0.012435831    0.004107885   -0.020895837
 -------------------------------------------------------------------
 Cartesian Forces:  Max     0.048917252 RMS     0.014556103
 Leave Link  716 at Fri Aug 26 22:45:00 2022, MaxMem=  209715200 cpu:       0.2
 (Enter /opt/gaussian/l103.exe)

 GradGradGradGradGradGradGradGradGradGradGradGradGradGradGradGradGradGrad
 Berny optimization.
 Internal  Forces:  Max     0.046296564 RMS     0.009616395
 Search for a local minimum.
 Step number   1 out of a maximum of  310
 All quantities printed in internal units (Hartrees-Bohrs-Radians)
 RMS Force = .96164D-02 SwitMx=.10000D-02 MixMth= 1
 Mixed Optimization -- RFO/linear search
 Second derivative matrix not updated -- first step.
 ITU=  0
     Eigenvalues ---    0.00230   0.00348   0.00460   0.00566   0.00570
     Eigenvalues ---    0.00830   0.01083   0.01169   0.01342   0.01369
     Eigenvalues ---    0.01418   0.01578   0.01665   0.01722   0.01736
     Eigenvalues ---    0.01765   0.01772   0.01776   0.01850   0.01969
     Eigenvalues ---    0.01978   0.02050   0.02051   0.02055   0.02072
     Eigenvalues ---    0.02074   0.02094   0.02096   0.02108   0.02113
     Eigenvalues ---    0.02126   0.02127   0.02130   0.02144   0.02160
     Eigenvalues ---    0.02162   0.02177   0.02183   0.02187   0.02318
     Eigenvalues ---    0.03773   0.03825   0.03907   0.04781   0.04812
     Eigenvalues ---    0.04912   0.04997   0.05465   0.05708   0.05741
     Eigenvalues ---    0.05777   0.05787   0.06467   0.07979   0.09996
     Eigenvalues ---    0.10320   0.11929   0.13229   0.13471   0.15995
     Eigenvalues ---    0.15999   0.15999   0.15999   0.16000   0.16000
     Eigenvalues ---    0.16000   0.16000   0.16000   0.16000   0.16000
     Eigenvalues ---    0.16000   0.16000   0.16000   0.16000   0.16000
     Eigenvalues ---    0.16000   0.16000   0.16520   0.16739   0.21856
     Eigenvalues ---    0.22000   0.22000   0.22000   0.22022   0.22145
     Eigenvalues ---    0.22579   0.22921   0.22957   0.23196   0.23445
     Eigenvalues ---    0.23999   0.24428   0.24585   0.24963   0.24992
     Eigenvalues ---    0.24993   0.24995   0.24997   0.25000   0.25000
     Eigenvalues ---    0.25000   0.28451   0.29275   0.30069   0.30591
     Eigenvalues ---    0.30627   0.30706   0.30799   0.30838   0.30839
     Eigenvalues ---    0.30868   0.31384   0.31521   0.31867   0.31880
     Eigenvalues ---    0.31893   0.31906   0.31920   0.31934   0.33105
     Eigenvalues ---    0.33176   0.33392   0.33519   0.33547   0.33574
     Eigenvalues ---    0.33605   0.33636   0.33673   0.33740   0.33944
     Eigenvalues ---    0.33978   0.34975   0.37415   0.38184   0.38774
     Eigenvalues ---    0.39648   0.40497   0.40834   0.41479   0.41670
     Eigenvalues ---    0.42361   0.42771   0.43188   0.43438   0.44021
     Eigenvalues ---    0.44489   0.44725   0.45748   0.46007   0.46062
     Eigenvalues ---    0.46106   0.46818   0.46856   0.47370   0.47759
     Eigenvalues ---    0.53765   0.55096   0.77523   0.86310
 RFO step:  Lambda=-6.84458071D-02 EMin= 2.30000000D-03
 Linear search not attempted -- first point.
 Maximum step size (   0.300) exceeded in Quadratic search.
    -- Step size scaled by   0.731
 Iteration  1 RMS(Cart)=  0.08104657 RMS(Int)=  0.00098055
 Iteration  2 RMS(Cart)=  0.00260283 RMS(Int)=  0.00007434
 Iteration  3 RMS(Cart)=  0.00000327 RMS(Int)=  0.00007432
 Iteration  4 RMS(Cart)=  0.00000000 RMS(Int)=  0.00007432
 Variable       Old X    -DE/DX   Delta X   Delta X   Delta X     New X
                                 (Linear)    (Quad)   (Total)
    R1        2.86265   0.01521   0.00000   0.02946   0.02946   2.89211
    R2        2.11089  -0.02047   0.00000  -0.03863  -0.03863   2.07226
    R3        2.11040  -0.02176   0.00000  -0.04104  -0.04104   2.06937
    R4        2.11064  -0.02180   0.00000  -0.04112  -0.04112   2.06952
    R5        2.86321   0.01385   0.00000   0.02684   0.02684   2.89005
    R6        2.87826   0.01585   0.00000   0.03137   0.03137   2.90963
    R7        2.13097  -0.02341   0.00000  -0.04542  -0.04542   2.08555
    R8        2.10965  -0.02005   0.00000  -0.03777  -0.03777   2.07187
    R9        2.11017  -0.02115   0.00000  -0.03988  -0.03988   2.07029
[...]
 ! D136  D(26,27,28,29)         -0.2203         -DE/DX =    0.0                 !
 ! D137  D(26,27,28,54)        179.74           -DE/DX =    0.0                 !
 ! D138  D(53,27,28,29)       -179.6461         -DE/DX =    0.0                 !
 ! D139  D(53,27,28,54)          0.3142         -DE/DX =    0.0                 !
 ! D140  D(27,28,29,30)          0.0863         -DE/DX =    0.0                 !
 ! D141  D(54,28,29,30)       -179.8758         -DE/DX =    0.0                 !
 ! D142  D(28,29,30,25)          0.1264         -DE/DX =    0.0                 !
 ! D143  D(28,29,30,55)       -178.9013         -DE/DX =    0.0                 !
 --------------------------------------------------------------------------------
 GradGradGradGradGradGradGradGradGradGradGradGradGradGradGradGradGradGrad

 Largest change from initial coordinates is atom   53       2.322 Angstoms.
 Leave Link  103 at Fri Aug 26 23:19:00 2022, MaxMem=  209715200 cpu:       0.9
 (Enter /opt/gaussian/l202.exe)
 Stoichiometry    C24H25N5O
 Framework group  C1[X(C24H25N5O)]
 Deg. of freedom   159
 Full point group                 C1      NOp   1
 RotChk:  IX=0 Diff= 1.86D-16
 Largest Abelian subgroup         C1      NOp   1
 Largest concise Abelian subgroup C1      NOp   1
                         Standard orientation:                         
 ---------------------------------------------------------------------
 Center     Atomic      Atomic             Coordinates (Angstroms)
 Number     Number       Type             X           Y           Z
 ---------------------------------------------------------------------
      1          6           0        1.695963    5.150096   -0.123769
      2          6           0        0.394856    4.613691    0.492284
      3          6           0        0.155977    5.246996    1.870067
      4          6           0        0.385185    3.077659    0.606809
      5          6           0        0.397973    2.350808   -0.742035
      6          7           0        0.262088    0.890525   -0.605503
      7          6           0        1.309181    0.014565   -0.587902
      8          8           0        1.160213   -1.186005   -0.407939
      9          6           0        2.702544    0.597168   -0.786345
     10          7           0        3.720683   -0.408497   -0.820282
     11          7           0        4.345061   -0.683063   -2.001746
     12          7           0        5.207879   -1.594324   -1.823344
     13          6           0        5.188933   -1.975131   -0.491412
     14          6           0        5.949508   -2.924118    0.191019
     15          6           0        5.707343   -3.076616    1.533718
     16          6           0        4.720687   -2.304301    2.187313
     17          6           0        3.964039   -1.370843    1.521012
     18          6           0        4.222083   -1.216202    0.156272
     19          6           0       -1.070000    0.377483   -0.444654
     20          6           0       -1.512627   -0.080087    0.787151
     21          6           0       -2.808346   -0.545971    0.932041
     22          6           0       -3.689879   -0.562301   -0.147939
     23          6           0       -3.231552   -0.103237   -1.381453
     24          6           0       -1.933499    0.357656   -1.529346
     25          6           0       -5.078599   -1.062265    0.010431
     26          6           0       -5.361044   -2.236811    0.705061
     27          6           0       -6.673579   -2.664398    0.825487
     28          6           0       -7.677269   -1.907180    0.244220
     29          7           0       -7.417793   -0.782878   -0.420223
     30          6           0       -6.158880   -0.370592   -0.533841
     31          1           0        2.554750    4.850592    0.470178
     32          1           0        1.849437    4.797574   -1.137317
     33          1           0        1.683114    6.233549   -0.159807
     34          1           0       -0.431008    4.904995   -0.154940
     35          1           0        0.952344    4.983275    2.559639
     36          1           0        0.123373    6.328426    1.799790
     37          1           0       -0.782056    4.912884    2.299504
     38          1           0        1.236634    2.756917    1.203592
     39          1           0       -0.504307    2.771002    1.146958
     40          1           0       -0.429565    2.697098   -1.346638
     41          1           0        1.295135    2.577527   -1.295132
     42          1           0        2.761558    1.111657   -1.733201
     43          1           0        2.918361    1.312760   -0.002178
     44          1           0        6.688302   -3.502664   -0.325786
     45          1           0        6.265698   -3.794199    2.101710
     46          1           0        4.554392   -2.461291    3.235484
     47          1           0        3.199947   -0.811480    2.021027
     48          1           0       -0.842731   -0.081666    1.623545
     49          1           0       -3.140927   -0.881821    1.895020
     50          1           0       -3.879616   -0.133941   -2.235553
     51          1           0       -1.584816    0.682809   -2.490394
     52          1           0       -4.562849   -2.816405    1.126627
     53          1           0       -6.911550   -3.568225    1.349557
     54          1           0       -8.705178   -2.198898    0.306838
     55          1           0       -6.009556    0.548817   -1.062459
 ---------------------------------------------------------------------
 Rotational constants (GHZ):      0.2012483      0.0698656      0.0573152
 Leave Link  202 at Fri Aug 26 23:19:00 2022, MaxMem=  209715200 cpu:       0.0
 (Enter /opt/gaussian/l601.exe)
 Copying SCF densities to generalized density rwf, IOpCl= 0 IROHF=0.

 **********************************************************************

            Population analysis using the SCF density.

 **********************************************************************

 Orbital symmetries:
       Occupied  (A) (A) (A) (A) (A) (A) (A) (A) (A) (A) (A) (A)
                 (A) (A) (A) (A) (A) (A) (A) (A) (A) (A) (A) (A)
                 (A) (A) (A) (A) (A) (A) (A) (A) (A) (A) (A) (A)
                 (A) (A) (A) (A) (A) (A) (A) (A) (A) (A) (A) (A)
                 (A) (A) (A) (A) (A) (A) (A) (A) (A) (A) (A) (A)
                 (A) (A) (A) (A) (A) (A) (A) (A) (A) (A) (A) (A)
                 (A) (A) (A) (A) (A) (A) (A) (A) (A) (A) (A) (A)
                 (A) (A) (A) (A) (A) (A) (A) (A) (A) (A) (A) (A)
                 (A) (A) (A) (A) (A) (A) (A) (A) (A) (A)
       Virtual   (A) (A) (A) (A) (A) (A) (A) (A) (A) (A) (A) (A)
                 (A) (A) (A) (A) (A) (A) (A) (A) (A) (A) (A) (A)
                 (A) (A) (A) (A) (A) (A) (A) (A) (A) (A) (A) (A)
                 (A) (A) (A) (A) (A) (A) (A) (A) (A) (A) (A) (A)
                 (A) (A) (A) (A) (A) (A) (A) (A) (A) (A) (A) (A)
                 (A) (A) (A) (A) (A) (A) (A) (A) (A) (A) (A) (A)
                 (A) (A) (A) (A) (A) (A) (A) (A) (A) (A) (A) (A)
                 (A) (A) (A) (A) (A) (A) (A) (A) (A) (A) (A) (A)
                 (A) (A) (A) (A) (A) (A) (A) (A) (A) (A) (A) (A)
                 (A) (A) (A) (A) (A) (A) (A) (A) (A) (A) (A) (A)
                 (A) (A) (A) (A) (A) (A) (A) (A) (A) (A) (A) (A)
                 (A) (A) (A) (A) (A) (A) (A) (A) (A) (A) (A) (A)
                 (A) (A) (A) (A) (A) (A) (A) (A) (A) (A) (A) (A)
                 (A) (A) (A) (A) (A) (A) (A) (A) (A) (A) (A) (A)
                 (A) (A) (A) (A) (A) (A) (A) (A) (A) (A) (A) (A)
                 (A) (A) (A) (A) (A) (A) (A) (A) (A) (A) (A) (A)
                 (A) (A) (A) (A) (A) (A) (A) (A) (A) (A) (A) (A)
                 (A) (A) (A) (A) (A) (A) (A) (A) (A) (A)
 The electronic state is 1-A.
 Alpha  occ. eigenvalues --  -20.54353 -15.66381 -15.65492 -15.61351 -15.61173
 Alpha  occ. eigenvalues --  -15.57754 -11.38508 -11.31272 -11.29455 -11.29407
 Alpha  occ. eigenvalues --  -11.29343 -11.28103 -11.28008 -11.26592 -11.26518
 Alpha  occ. eigenvalues --  -11.26515 -11.26403 -11.25384 -11.25347 -11.25281
 Alpha  occ. eigenvalues --  -11.25244 -11.25233 -11.25202 -11.25168 -11.25142
 Alpha  occ. eigenvalues --  -11.25141 -11.24369 -11.24099 -11.22954 -11.22607
 Alpha  occ. eigenvalues --   -1.47462  -1.41666  -1.28193  -1.27925  -1.24883
 Alpha  occ. eigenvalues --   -1.18011  -1.17725  -1.11974  -1.10952  -1.07193
 Alpha  occ. eigenvalues --   -1.06320  -1.05114  -1.03973  -1.02826  -1.02365
 Alpha  occ. eigenvalues --   -0.99709  -0.95377  -0.90197  -0.89262  -0.88795
 Alpha  occ. eigenvalues --   -0.87730  -0.85218  -0.84622  -0.84315  -0.81265
 Alpha  occ. eigenvalues --   -0.79534  -0.77721  -0.73789  -0.73133  -0.72210
 Alpha  occ. eigenvalues --   -0.71916  -0.70265  -0.68691  -0.67882  -0.66961
 Alpha  occ. eigenvalues --   -0.65815  -0.65561  -0.64967  -0.63537  -0.63237
 Alpha  occ. eigenvalues --   -0.62829  -0.62277  -0.61957  -0.61120  -0.60909
 Alpha  occ. eigenvalues --   -0.60687  -0.59089  -0.58140  -0.57801  -0.56356
 Alpha  occ. eigenvalues --   -0.55509  -0.55290  -0.54564  -0.53744  -0.53410
 Alpha  occ. eigenvalues --   -0.52806  -0.52449  -0.51787  -0.51400  -0.50757
 Alpha  occ. eigenvalues --   -0.50452  -0.49516  -0.48531  -0.47767  -0.47741
 Alpha  occ. eigenvalues --   -0.44264  -0.42902  -0.42290  -0.40934  -0.40055
 Alpha  occ. eigenvalues --   -0.38583  -0.36970  -0.35294  -0.33702  -0.32209
 Alpha  occ. eigenvalues --   -0.31873
 Alpha virt. eigenvalues --    0.09550   0.09920   0.11906   0.12636   0.15605
 Alpha virt. eigenvalues --    0.15867   0.17528   0.19105   0.20725   0.21741
 Alpha virt. eigenvalues --    0.23004   0.23741   0.24436   0.24621   0.24932
 Alpha virt. eigenvalues --    0.26702   0.27369   0.28176   0.28256   0.28724
 Alpha virt. eigenvalues --    0.28970   0.29280   0.30113   0.30882   0.31243
 Alpha virt. eigenvalues --    0.31603   0.31979   0.32492   0.32815   0.33198
 Alpha virt. eigenvalues --    0.33528   0.33815   0.35678   0.35812   0.36403
 Alpha virt. eigenvalues --    0.37303   0.37732   0.38910   0.39225   0.40011
 Alpha virt. eigenvalues --    0.40704   0.41364   0.42156   0.42220   0.42639
 Alpha virt. eigenvalues --    0.43493   0.44277   0.44736   0.45426   0.47372
 Alpha virt. eigenvalues --    0.48187   0.49174   0.49829   0.51964   0.52171
 Alpha virt. eigenvalues --    0.52533   0.53021   0.55092   0.56427   0.57696
 Alpha virt. eigenvalues --    0.59372   0.59938   0.62195   0.64565   0.65567
 Alpha virt. eigenvalues --    0.70013   0.70693   0.71758   0.72112   0.72894
 Alpha virt. eigenvalues --    0.73651   0.74002   0.74346   0.75470   0.76215
 Alpha virt. eigenvalues --    0.76576   0.77030   0.77768   0.77830   0.79062
 Alpha virt. eigenvalues --    0.79238   0.79786   0.80677   0.81225   0.81873
 Alpha virt. eigenvalues --    0.82463   0.82899   0.83275   0.84056   0.84369
 Alpha virt. eigenvalues --    0.84576   0.84837   0.85090   0.85456   0.85817
 Alpha virt. eigenvalues --    0.86230   0.86394   0.87518   0.87611   0.88169
 Alpha virt. eigenvalues --    0.89250   0.89338   0.90455   0.90979   0.91264
 Alpha virt. eigenvalues --    0.92269   0.92551   0.93663   0.94269   0.94883
 Alpha virt. eigenvalues --    0.95331   0.96351   0.96628   0.97404   0.97858
 Alpha virt. eigenvalues --    0.98606   0.98800   0.99152   0.99980   1.00471
 Alpha virt. eigenvalues --    1.00976   1.02639   1.03529   1.05428   1.05814
 Alpha virt. eigenvalues --    1.08788   1.09469   1.09901   1.11436   1.11701
 Alpha virt. eigenvalues --    1.11868   1.12023   1.12147   1.12963   1.13158
 Alpha virt. eigenvalues --    1.13937   1.14193   1.14813   1.15112   1.15333
 Alpha virt. eigenvalues --    1.15664   1.16369   1.17123   1.17351   1.17695
 Alpha virt. eigenvalues --    1.18558   1.19602   1.19851   1.21049   1.21512
 Alpha virt. eigenvalues --    1.21626   1.22270   1.22553   1.23260   1.23488
 Alpha virt. eigenvalues --    1.23981   1.24744   1.25811   1.26630   1.27463
 Alpha virt. eigenvalues --    1.27560   1.28147   1.28861   1.29466   1.30226
 Alpha virt. eigenvalues --    1.30792   1.30998   1.31476   1.32492   1.33535
 Alpha virt. eigenvalues --    1.34120   1.35520   1.35681   1.37386   1.38236
 Alpha virt. eigenvalues --    1.38929   1.39856   1.41109   1.42807   1.44381
 Alpha virt. eigenvalues --    1.45325   1.45691   1.47595   1.48033   1.50148
 Alpha virt. eigenvalues --    1.51709   1.52967   1.54487   1.55702   1.58144
 Alpha virt. eigenvalues --    1.58762   1.61546   1.65488   1.67127   1.70852
 Alpha virt. eigenvalues --    1.71501   1.71695   1.72508   1.73548   1.74861
 Alpha virt. eigenvalues --    1.77533   1.79134   1.80423   1.89748   1.90854
 Alpha virt. eigenvalues --    1.94068   1.99478   2.07283   2.10128   2.10966
 Alpha virt. eigenvalues --    2.18676   2.21831   2.25827   2.34283
          Condensed to atoms (all electrons):
 Mulliken atomic charges:
              1
     1  C   -0.446883
     2  C   -0.193282
     3  C   -0.439537
     4  C   -0.275460
     5  C   -0.063990
     6  N   -0.972787
     7  C    0.795309
     8  O   -0.577634
     9  C   -0.122619
    10  N   -0.889212
    11  N    0.092765
    12  N   -0.335124
    13  C   -0.022257
    14  C   -0.078950
    15  C   -0.233526
    16  C   -0.207062
    17  C   -0.059413
    18  C    0.493027
    19  C    0.291629
    20  C   -0.144203
    21  C   -0.209402
    22  C   -0.013260
    23  C   -0.201528
    24  C   -0.172170
    25  C   -0.093492
    26  C   -0.138726
    27  C   -0.245498
    28  C    0.058732
    29  N   -0.533303
    30  C    0.059797
    31  H    0.149695
    32  H    0.149229
    33  H    0.164342
    34  H    0.161479
    35  H    0.150061
    36  H    0.158245
    37  H    0.157183
    38  H    0.145317
    39  H    0.177456
    40  H    0.192652
    41  H    0.175133
    42  H    0.253970
    43  H    0.220404
    44  H    0.240241
    45  H    0.203552
    46  H    0.203502
    47  H    0.220913
    48  H    0.219466
    49  H    0.217036
    50  H    0.223235
    51  H    0.220952
    52  H    0.229330
    53  H    0.216036
    54  H    0.211635
    55  H    0.216997
 Sum of Mulliken atomic charges =   0.00000
 Mulliken charges with hydrogens summed into heavy atoms:
              1
     1  C    0.016383
     2  C   -0.031803
     3  C    0.025952
     4  C    0.047313
     5  C    0.303795
     6  N   -0.972787
     7  C    0.795309
     8  O   -0.577634
     9  C    0.351755
    10  N   -0.889212
    11  N    0.092765
    12  N   -0.335124
    13  C   -0.022257
    14  C    0.161291
    15  C   -0.029975
    16  C   -0.003560
    17  C    0.161500
    18  C    0.493027
    19  C    0.291629
    20  C    0.075263
    21  C    0.007634
    22  C   -0.013260
    23  C    0.021707
    24  C    0.048782
    25  C   -0.093492
    26  C    0.090604
    27  C   -0.029462
    28  C    0.270367
    29  N   -0.533303
    30  C    0.276794
 Sum of Mulliken charges with hydrogens summed into heavy atoms =   0.00000
 Electronic spatial extent (au):  <R**2>=          18254.6739
 Charge=              0.0000 electrons
 Dipole moment (field-independent basis, Debye):
    X=             -0.8986    Y=              3.8994    Z=              4.7748  Tot=              6.2299
 Quadrupole moment (field-independent basis, Debye-Ang):
   XX=           -207.8514   YY=           -166.3717   ZZ=           -178.2771
   XY=             14.7974   XZ=             12.4149   YZ=            -14.9415
 Traceless Quadrupole moment (field-independent basis, Debye-Ang):
   XX=            -23.6847   YY=             17.7951   ZZ=              5.8896
   XY=             14.7974   XZ=             12.4149   YZ=            -14.9415
 Octapole moment (field-independent basis, Debye-Ang**2):
  XXX=            118.5396  YYY=             15.4457  ZZZ=             26.1337  XYY=             -7.5819
  XXY=           -112.0168  XXZ=            161.2650  XZZ=            -33.2294  YZZ=              5.1464
  YYZ=             23.7657  XYZ=            -10.3307
 Hexadecapole moment (field-independent basis, Debye-Ang**3):
 XXXX=         -20106.7027 YYYY=          -5776.4507 ZZZZ=          -1472.7331 XXXY=            439.2008
 XXXZ=            -56.4143 YYYX=             27.9909 YYYZ=            -79.3829 ZZZX=            190.9671
 ZZZY=            -91.3669 XXYY=          -3499.1600 XXZZ=          -3503.4876 YYZZ=          -1233.2179
 XXYZ=           -374.3371 YYXZ=             -2.4105 ZZXY=             15.6451
 N-N= 2.657900309199D+03 E-N=-8.279157025004D+03  KE= 1.271326932915D+03
 No NMR shielding tensors so no spin-rotation constants.
 Leave Link  601 at Fri Aug 26 23:19:01 2022, MaxMem=  209715200 cpu:       1.4
 (Enter /opt/gaussian/l9999.exe)
 1\1\GINC-LQCAPF-6\FOpt\RHF\6-31G\C24H25N5O1\LQCAPF-6\26-Aug-2022\0\\#p
  opt hf/6-31G\\Mol22.out\\0,1\C,16.6463883157,-14.5423918415,1.2022024
 32\C,16.0140936204,-13.3609586719,0.4508370959\C,15.0709370664,-13.870
 5257433,-0.6478994623\C,17.0676671501,-12.4135360001,-0.1532975618\C,1
 7.9202588951,-11.6819693643,0.8886982494\N,18.8312075239,-10.692196134
 ,0.2886539256\C,20.1408998927,-10.9304100109,-0.0146307667\O,20.848629
 5961,-10.1030604769,-0.5719060233\C,20.6996256993,-12.2981418599,0.356
 0465257\N,22.0945884329,-12.4223497821,0.0597849322\N,22.9910713756,-1
 2.4682642788,1.087063315\N,24.1644493944,-12.5802164243,0.6208773943\C
 ,24.0964390949,-12.6081829599,-0.7625991396\C,25.1057608008,-12.726280
 0764,-1.7176314178\C,24.7255614268,-12.7326300537,-3.0367780001\C,23.3
 654453898,-12.6163482212,-3.4024401375\C,22.365785637,-12.4948495917,-
 2.4677009199\C,22.7603652561,-12.4970864441,-1.127060407\C,18.27297791
 3,-9.4061032946,-0.0242178879\C,18.0031480815,-9.0473273678,-1.3361265
 308\C,17.4395039781,-7.8147179872,-1.6188073063\C,17.1308349897,-6.916
 010237,-0.5986255598\C,17.4104228685,-7.2871254853,0.7153238762\C,17.9
 798810741,-8.517715497,0.9992286198\C,16.5264363221,-5.5951782615,-0.9
 047191719\C,17.0016711137,-4.7928437724,-1.9402163918\C,16.4057364277,
 -3.5665149804,-2.1873202661\C,15.3465096504,-3.1672483699,-1.389027521
 1\N,14.8842772106,-3.9272050957,-0.398233851\C,15.453870328,-5.1051932
 288,-0.1623123355\H,17.2823504552,-15.1231431224,0.5401823624\H,17.245
 1773808,-14.2220330775,2.0471445704\H,15.8792884633,-15.2053748008,1.5
 860585456\H,15.4187541625,-12.7884742135,1.1605125772\H,15.6168639908,
 -14.4471714635,-1.3886441953\H,14.300543945,-14.5102089979,-0.23221661
 5\H,14.581412762,-13.0486960528,-1.158696937\H,17.7131187198,-12.97605
 58072,-0.8248285552\H,16.5638193761,-11.6686862904,-0.7601996149\H,17.
 2744598587,-11.1517514922,1.5757880582\H,18.488966241,-12.3796451101,1
 .4820253659\H,20.6054785076,-12.4654312479,1.4180579768\H,20.144290533
 8,-13.0746695957,-0.1559823708\H,26.1310618657,-12.8074094926,-1.41797
 30346\H,25.4649790806,-12.8203477758,-3.8080549994\H,23.1105878291,-12
 .6145272101,-4.444556068\H,21.3414136494,-12.3791791952,-2.7575656569\
 H,18.2437882871,-9.7248067683,-2.1307536789\H,17.2219849605,-7.5580403
 86,-2.6374030643\H,17.2114316288,-6.6019954248,1.5162087812\H,18.21517
 11685,-8.7801488684,2.0124826435\H,17.8379662207,-5.1159556387,-2.5292
 598233\H,16.7603261597,-2.9314486165,-2.9741735477\H,14.8569827541,-2.
 2272474765,-1.5386240173\H,15.0306374738,-5.6826703625,0.6342055897\\V
 ersion=EM64L-G09RevC.01\State=1-A\HF=-1269.9352703\RMSD=9.685e-09\RMSF
 =1.941e-06\Dipole=-1.7794004,-1.0949883,-1.2814977\Quadrupole=-17.9772
 546,5.8509742,12.1262804,13.1427323,-11.9379254,-3.7812748\PG=C01 [X(C
 24H25N5O1)]\\@


  THE LARGE PRINT GIVETH,
  AND THE SMALL PRINT TAKETH AWAY.

                     -- TOM WAITS
 Job cpu time:  0 days  4 hours 43 minutes 34.4 seconds.
 File lengths (MBytes):  RWF=     71 Int=      0 D2E=      0 Chk=     11 Scr=      1
 Normal termination of Gaussian 09 at Fri Aug 26 23:19:01 2022.
