 Entering Gaussian System, Link 0=g09
 Input=Mol25.gjf
 Output=Mol25.log
 Initial command:
 /opt/gaussian/l1.exe /home/scr/lqcapf-6/Gau-273184.inp -scrdir=/home/scr/lqcapf-6/
 Entering Link 1 = /opt/gaussian/l1.exe PID=    273186.
  
 Copyright (c) 1988,1990,1992,1993,1995,1998,2003,2009,2011,
            Gaussian, Inc.  All Rights Reserved.
  
 This is part of the Gaussian(R) 09 program.  It is based on
 the Gaussian(R) 03 system (copyright 2003, Gaussian, Inc.),
 the Gaussian(R) 98 system (copyright 1998, Gaussian, Inc.),
 the Gaussian(R) 94 system (copyright 1995, Gaussian, Inc.),
 the Gaussian 92(TM) system (copyright 1992, Gaussian, Inc.),
 the Gaussian 90(TM) system (copyright 1990, Gaussian, Inc.),
 the Gaussian 88(TM) system (copyright 1988, Gaussian, Inc.),
 the Gaussian 86(TM) system (copyright 1986, Carnegie Mellon
 University), and the Gaussian 82(TM) system (copyright 1983,
 Carnegie Mellon University). Gaussian is a federally registered
 trademark of Gaussian, Inc.
  
 This software contains proprietary and confidential information,
 including trade secrets, belonging to Gaussian, Inc.
  
 This software is provided under written license and may be
 used, copied, transmitted, or stored only in accord with that
 written license.
  
 The following legend is applicable only to US Government
 contracts under FAR:
  
                    RESTRICTED RIGHTS LEGEND
  
 Use, reproduction and disclosure by the US Government is
 subject to restrictions as set forth in subparagraphs (a)
 and (c) of the Commercial Computer Software - Restricted
 Rights clause in FAR 52.227-19.
  
 Gaussian, Inc.
 340 Quinnipiac St., Bldg. 40, Wallingford CT 06492
  
  
 ---------------------------------------------------------------
 Warning -- This program may not be used in any manner that
 competes with the business of Gaussian, Inc. or will provide
 assistance to any competitor of Gaussian, Inc.  The licensee
 of this program is prohibited from giving any competitor of
 Gaussian, Inc. access to this program.  By using this program,
 the user acknowledges that Gaussian, Inc. is engaged in the
 business of creating and licensing software in the field of
 computational chemistry and represents and warrants to the
 licensee that it is not a competitor of Gaussian, Inc. and that
 it will not use this program in any manner prohibited above.
 ---------------------------------------------------------------
  

 Cite this work as:
 Gaussian 09, Revision C.01,
 M. J. Frisch, G. W. Trucks, H. B. Schlegel, G. E. Scuseria, 
 M. A. Robb, J. R. Cheeseman, G. Scalmani, V. Barone, B. Mennucci, 
 G. A. Petersson, H. Nakatsuji, M. Caricato, X. Li, H. P. Hratchian, 
 A. F. Izmaylov, J. Bloino, G. Zheng, J. L. Sonnenberg, M. Hada, 
 M. Ehara, K. Toyota, R. Fukuda, J. Hasegawa, M. Ishida, T. Nakajima, 
 Y. Honda, O. Kitao, H. Nakai, T. Vreven, J. A. Montgomery, Jr., 
 J. E. Peralta, F. Ogliaro, M. Bearpark, J. J. Heyd, E. Brothers, 
 K. N. Kudin, V. N. Staroverov, T. Keith, R. Kobayashi, J. Normand, 
 K. Raghavachari, A. Rendell, J. C. Burant, S. S. Iyengar, J. Tomasi, 
 M. Cossi, N. Rega, J. M. Millam, M. Klene, J. E. Knox, J. B. Cross, 
 V. Bakken, C. Adamo, J. Jaramillo, R. Gomperts, R. E. Stratmann, 
 O. Yazyev, A. J. Austin, R. Cammi, C. Pomelli, J. W. Ochterski, 
 R. L. Martin, K. Morokuma, V. G. Zakrzewski, G. A. Voth, 
 P. Salvador, J. J. Dannenberg, S. Dapprich, A. D. Daniels, 
 O. Farkas, J. B. Foresman, J. V. Ortiz, J. Cioslowski, 
 and D. J. Fox, Gaussian, Inc., Wallingford CT, 2010.
 
 ******************************************
 Gaussian 09:  EM64L-G09RevC.01 23-Sep-2011
                27-Aug-2022 
 ******************************************
 %nprocshared=8
 Will use up to    8 processors via shared memory.
 %mem=1600MB
 ---------------
 #p opt hf/6-31G
 ---------------
 1/18=20,19=15,38=1/1,3;
 2/9=110,12=2,17=6,18=5,40=1/2;
 3/5=1,6=6,11=9,16=1,25=1,30=1,71=1/1,2,3;
 4//1;
 5/5=2,38=5/2;
 6/7=2,8=2,9=2,10=2,28=1/1;
 7//1,2,3,16;
 1/18=20,19=15/3(2);
 2/9=110/2;
 99//99;
 2/9=110/2;
 3/5=1,6=6,11=9,16=1,25=1,30=1,71=1/1,2,3;
 4/5=5,16=3/1;
 5/5=2,38=5/2;
 7//1,2,3,16;
 1/18=20,19=15/3(-5);
 2/9=110/2;
 6/7=2,8=2,9=2,10=2,19=2,28=1/1;
 99/9=1/99;
 Leave Link    1 at Sat Aug 27 00:18:17 2022, MaxMem=  209715200 cpu:       0.1
 (Enter /opt/gaussian/l101.exe)
 ---------
 Mol25.out
 ---------
 Charge =  0 Multiplicity = 1
 Symbolic Z-Matrix:
 O                     21.0979  -6.8396   -0.2476 
 C                     21.6909  -7.8416    0.1826 
 C                     23.1302  -7.7578    0.7241 
 N                     23.7487  -6.4624    0.6216 
 N                     23.3667  -5.3734    1.3708 
 N                     23.7944  -4.2946    0.8952 
 C                     24.4885  -4.5559   -0.3321 
 C                     25.1575  -3.7434   -1.2459 
 C                     25.7472  -4.3633   -2.3434 
 C                     25.6851  -5.7535   -2.5313 
 C                     25.0306  -6.5923   -1.6344 
 C                     24.4273  -5.9893   -0.5308 
 N                     21.0617  -9.0875    0.2567 
 C                     21.8079  -10.3072   0.4683 
 C                     22.5465  -10.8641  -0.7595 
 C                     23.4459  -12.031   -0.3389 
 C                     23.0416  -13.2485  -1.1594 
 C                     21.7195  -12.9153  -1.8337 
 C                     21.5908  -11.3993  -1.8259 
 C                     19.6852  -9.2127   -0.0848 
 C                     18.8088  -9.9075    0.7771 
 C                     17.4638  -10.0379   0.4542 
 C                     16.9458  -9.4838   -0.7254 
 C                     17.8126  -8.782    -1.5739 
 C                     19.1614  -8.6439   -1.2639 
 C                     15.5336  -9.6319   -1.0511 
 C                     14.8208  -10.7922  -0.7111 
 C                     13.4671  -10.8808  -1.033 
 C                     12.8607  -9.7997   -1.697 
 N                     13.5231  -8.677    -2.0382 
 C                     14.8269  -8.6024   -1.7181 
 H                     23.1047  -8.0458    1.8162 
 H                     23.7832  -8.4811    0.1571 
 H                     25.2153  -2.6551   -1.0998 
 H                     26.2784  -3.7497   -3.0869 
 H                     26.1698  -6.1922   -3.4175 
 H                     24.9904  -7.6781   -1.7911 
 H                     22.5624  -10.129    1.2884 
 H                     21.0944  -11.1014   0.8335 
 H                     23.1791  -10.0508  -1.2075 
 H                     24.5198  -11.775   -0.5191 
 H                     23.3373  -12.2487   0.7541 
 H                     23.8235  -13.473   -1.9286 
 H                     22.9432  -14.1539  -0.5107 
 H                     21.6845  -13.3162  -2.8764 
 H                     20.8704  -13.3774  -1.2687 
 H                     20.5348  -11.0887  -1.6252 
 H                     21.8738  -10.985   -2.8269 
 H                     19.1794  -10.3433   1.7178 
 H                     16.7935  -10.5711   1.1462 
 H                     17.428   -8.336    -2.5045 
 H                     19.8157  -8.0598   -1.9314 
 H                     15.3265  -11.626   -0.202 
 H                     12.8828  -11.7737  -0.7757 
 H                     11.7913  -9.8295   -1.9716 
 H                     15.3371  -7.664    -2.0033 
 
 NAtoms=     56 NQM=        0 NQMF=       0 NMMI=     56 NMMIF=      0
                NMic=       0 NMicF=      0.
                    Isotopes and Nuclear Properties:
 (Nuclear quadrupole moments (NQMom) in fm**2, nuclear magnetic moments (NMagM)
  in nuclear magnetons)

  Atom         1           2           3           4           5           6           7           8           9          10
 IAtWgt=          16          12          12          14          14          14          12          12          12          12
 AtmWgt=  15.9949146  12.0000000  12.0000000  14.0030740  14.0030740  14.0030740  12.0000000  12.0000000  12.0000000  12.0000000
 NucSpn=           0           0           0           2           2           2           0           0           0           0
 AtZEff=   0.0000000   0.0000000   0.0000000   0.0000000   0.0000000   0.0000000   0.0000000   0.0000000   0.0000000   0.0000000
 NQMom=    0.0000000   0.0000000   0.0000000   2.0440000   2.0440000   2.0440000   0.0000000   0.0000000   0.0000000   0.0000000
 NMagM=    0.0000000   0.0000000   0.0000000   0.4037610   0.4037610   0.4037610   0.0000000   0.0000000   0.0000000   0.0000000

  Atom        11          12          13          14          15          16          17          18          19          20
 IAtWgt=          12          12          14          12          12          12          12          12          12          12
 AtmWgt=  12.0000000  12.0000000  14.0030740  12.0000000  12.0000000  12.0000000  12.0000000  12.0000000  12.0000000  12.0000000
 NucSpn=           0           0           2           0           0           0           0           0           0           0
 AtZEff=   0.0000000   0.0000000   0.0000000   0.0000000   0.0000000   0.0000000   0.0000000   0.0000000   0.0000000   0.0000000
 NQMom=    0.0000000   0.0000000   2.0440000   0.0000000   0.0000000   0.0000000   0.0000000   0.0000000   0.0000000   0.0000000
 NMagM=    0.0000000   0.0000000   0.4037610   0.0000000   0.0000000   0.0000000   0.0000000   0.0000000   0.0000000   0.0000000

  Atom        21          22          23          24          25          26          27          28          29          30
 IAtWgt=          12          12          12          12          12          12          12          12          12          14
 AtmWgt=  12.0000000  12.0000000  12.0000000  12.0000000  12.0000000  12.0000000  12.0000000  12.0000000  12.0000000  14.0030740
 NucSpn=           0           0           0           0           0           0           0           0           0           2
 AtZEff=   0.0000000   0.0000000   0.0000000   0.0000000   0.0000000   0.0000000   0.0000000   0.0000000   0.0000000   0.0000000
 NQMom=    0.0000000   0.0000000   0.0000000   0.0000000   0.0000000   0.0000000   0.0000000   0.0000000   0.0000000   2.0440000
 NMagM=    0.0000000   0.0000000   0.0000000   0.0000000   0.0000000   0.0000000   0.0000000   0.0000000   0.0000000   0.4037610

  Atom        31          32          33          34          35          36          37          38          39          40
 IAtWgt=          12           1           1           1           1           1           1           1           1           1
 AtmWgt=  12.0000000   1.0078250   1.0078250   1.0078250   1.0078250   1.0078250   1.0078250   1.0078250   1.0078250   1.0078250
 NucSpn=           0           1           1           1           1           1           1           1           1           1
 AtZEff=   0.0000000   0.0000000   0.0000000   0.0000000   0.0000000   0.0000000   0.0000000   0.0000000   0.0000000   0.0000000
 NQMom=    0.0000000   0.0000000   0.0000000   0.0000000   0.0000000   0.0000000   0.0000000   0.0000000   0.0000000   0.0000000
 NMagM=    0.0000000   2.7928460   2.7928460   2.7928460   2.7928460   2.7928460   2.7928460   2.7928460   2.7928460   2.7928460

  Atom        41          42          43          44          45          46          47          48          49          50
 IAtWgt=           1           1           1           1           1           1           1           1           1           1
 AtmWgt=   1.0078250   1.0078250   1.0078250   1.0078250   1.0078250   1.0078250   1.0078250   1.0078250   1.0078250   1.0078250
 NucSpn=           1           1           1           1           1           1           1           1           1           1
 AtZEff=   0.0000000   0.0000000   0.0000000   0.0000000   0.0000000   0.0000000   0.0000000   0.0000000   0.0000000   0.0000000
 NQMom=    0.0000000   0.0000000   0.0000000   0.0000000   0.0000000   0.0000000   0.0000000   0.0000000   0.0000000   0.0000000
 NMagM=    2.7928460   2.7928460   2.7928460   2.7928460   2.7928460   2.7928460   2.7928460   2.7928460   2.7928460   2.7928460

  Atom        51          52          53          54          55          56
 IAtWgt=           1           1           1           1           1           1
 AtmWgt=   1.0078250   1.0078250   1.0078250   1.0078250   1.0078250   1.0078250
 NucSpn=           1           1           1           1           1           1
 AtZEff=   0.0000000   0.0000000   0.0000000   0.0000000   0.0000000   0.0000000
 NQMom=    0.0000000   0.0000000   0.0000000   0.0000000   0.0000000   0.0000000
 NMagM=    2.7928460   2.7928460   2.7928460   2.7928460   2.7928460   2.7928460
 Leave Link  101 at Sat Aug 27 00:18:17 2022, MaxMem=  209715200 cpu:       0.8
 (Enter /opt/gaussian/l103.exe)

 GradGradGradGradGradGradGradGradGradGradGradGradGradGradGradGradGradGrad
 Berny optimization.
 Initialization pass.
                           ----------------------------
                           !    Initial Parameters    !
                           ! (Angstroms and Degrees)  !
 --------------------------                            --------------------------
 ! Name  Definition              Value          Derivative Info.                !
 --------------------------------------------------------------------------------
 ! R1    R(1,2)                  1.2413         estimate D2E/DX2                !
 ! R2    R(2,3)                  1.5401         estimate D2E/DX2                !
 ! R3    R(2,13)                 1.3977         estimate D2E/DX2                !
 ! R4    R(3,4)                  1.4391         estimate D2E/DX2                !
 ! R5    R(3,32)                 1.1297         estimate D2E/DX2                !
 ! R6    R(3,33)                 1.1274         estimate D2E/DX2                !
 ! R7    R(4,5)                  1.3759         estimate D2E/DX2                !
 ! R8    R(4,12)                 1.4186         estimate D2E/DX2                !
 ! R9    R(5,6)                  1.2542         estimate D2E/DX2                !
 ! R10   R(6,7)                  1.434          estimate D2E/DX2                !
 ! R11   R(7,8)                  1.3938         estimate D2E/DX2                !
 ! R12   R(7,12)                 1.4484         estimate D2E/DX2                !
 ! R13   R(8,9)                  1.3916         estimate D2E/DX2                !
 ! R14   R(8,34)                 1.0996         estimate D2E/DX2                !
 ! R15   R(9,10)                 1.4042         estimate D2E/DX2                !
 ! R16   R(9,35)                 1.1007         estimate D2E/DX2                !
 ! R17   R(10,11)                1.3915         estimate D2E/DX2                !
 ! R18   R(10,36)                1.1012         estimate D2E/DX2                !
 ! R19   R(11,12)                1.3948         estimate D2E/DX2                !
 ! R20   R(11,37)                1.0978         estimate D2E/DX2                !
 ! R21   R(13,14)                1.4454         estimate D2E/DX2                !
 ! R22   R(13,20)                1.4237         estimate D2E/DX2                !
 ! R23   R(14,15)                1.5373         estimate D2E/DX2                !
 ! R24   R(14,38)                1.1285         estimate D2E/DX2                !
 ! R25   R(14,39)                1.1284         estimate D2E/DX2                !
 ! R26   R(15,16)                1.5321         estimate D2E/DX2                !
 ! R27   R(15,19)                1.5287         estimate D2E/DX2                !
 ! R28   R(15,40)                1.1235         estimate D2E/DX2                !
 ! R29   R(16,17)                1.5228         estimate D2E/DX2                !
 ! R30   R(16,41)                1.1186         estimate D2E/DX2                !
 ! R31   R(16,42)                1.1197         estimate D2E/DX2                !
 ! R32   R(17,18)                1.5211         estimate D2E/DX2                !
 ! R33   R(17,43)                1.1196         estimate D2E/DX2                !
 ! R34   R(17,44)                1.1181         estimate D2E/DX2                !
 ! R35   R(18,19)                1.5215         estimate D2E/DX2                !
 ! R36   R(18,45)                1.1177         estimate D2E/DX2                !
 ! R37   R(18,46)                1.1197         estimate D2E/DX2                !
 ! R38   R(19,47)                1.1189         estimate D2E/DX2                !
 ! R39   R(19,48)                1.1197         estimate D2E/DX2                !
 ! R40   R(20,21)                1.412          estimate D2E/DX2                !
 ! R41   R(20,25)                1.41           estimate D2E/DX2                !
 ! R42   R(21,22)                1.3894         estimate D2E/DX2                !
 ! R43   R(21,49)                1.101          estimate D2E/DX2                !
 ! R44   R(22,23)                1.4024         estimate D2E/DX2                !
 ! R45   R(22,50)                1.1011         estimate D2E/DX2                !
 ! R46   R(23,24)                1.4014         estimate D2E/DX2                !
 ! R47   R(23,26)                1.4568         estimate D2E/DX2                !
 ! R48   R(24,25)                1.3908         estimate D2E/DX2                !
 ! R49   R(24,51)                1.1013         estimate D2E/DX2                !
 ! R50   R(25,52)                1.1022         estimate D2E/DX2                !
 ! R51   R(26,27)                1.4036         estimate D2E/DX2                !
 ! R52   R(26,31)                1.4157         estimate D2E/DX2                !
 ! R53   R(27,28)                1.3943         estimate D2E/DX2                !
 ! R54   R(27,53)                1.1001         estimate D2E/DX2                !
 ! R55   R(28,29)                1.4062         estimate D2E/DX2                !
 ! R56   R(28,54)                1.0977         estimate D2E/DX2                !
 ! R57   R(29,30)                1.3475         estimate D2E/DX2                !
 ! R58   R(29,55)                1.1045         estimate D2E/DX2                !
 ! R59   R(30,31)                1.3446         estimate D2E/DX2                !
 ! R60   R(31,56)                1.1055         estimate D2E/DX2                !
 ! A1    A(1,2,3)              121.6289         estimate D2E/DX2                !
 ! A2    A(1,2,13)             121.5251         estimate D2E/DX2                !
 ! A3    A(3,2,13)             116.7799         estimate D2E/DX2                !
 ! A4    A(2,3,4)              115.1878         estimate D2E/DX2                !
 ! A5    A(2,3,32)             107.754          estimate D2E/DX2                !
 ! A6    A(2,3,33)             109.2422         estimate D2E/DX2                !
 ! A7    A(4,3,32)             107.94           estimate D2E/DX2                !
 ! A8    A(4,3,33)             107.0219         estimate D2E/DX2                !
 ! A9    A(32,3,33)            109.6147         estimate D2E/DX2                !
 ! A10   A(3,4,5)              123.6641         estimate D2E/DX2                !
 ! A11   A(3,4,12)             124.3082         estimate D2E/DX2                !
 ! A12   A(5,4,12)             108.1311         estimate D2E/DX2                !
 ! A13   A(4,5,6)              112.3112         estimate D2E/DX2                !
 ! A14   A(5,6,7)              109.444          estimate D2E/DX2                !
 ! A15   A(6,7,8)              133.41           estimate D2E/DX2                !
 ! A16   A(6,7,12)             106.0987         estimate D2E/DX2                !
 ! A17   A(8,7,12)             120.4796         estimate D2E/DX2                !
 ! A18   A(7,8,9)              117.4371         estimate D2E/DX2                !
 ! A19   A(7,8,34)             121.002          estimate D2E/DX2                !
 ! A20   A(9,8,34)             121.5608         estimate D2E/DX2                !
 ! A21   A(8,9,10)             121.8574         estimate D2E/DX2                !
 ! A22   A(8,9,35)             119.2696         estimate D2E/DX2                !
 ! A23   A(10,9,35)            118.873          estimate D2E/DX2                !
 ! A24   A(9,10,11)            122.0949         estimate D2E/DX2                !
 ! A25   A(9,10,36)            118.8559         estimate D2E/DX2                !
 ! A26   A(11,10,36)           119.0492         estimate D2E/DX2                !
 ! A27   A(10,11,12)           116.9242         estimate D2E/DX2                !
 ! A28   A(10,11,37)           121.4279         estimate D2E/DX2                !
 ! A29   A(12,11,37)           121.6478         estimate D2E/DX2                !
 ! A30   A(4,12,7)             103.8168         estimate D2E/DX2                !
 ! A31   A(4,12,11)            134.8688         estimate D2E/DX2                !
 ! A32   A(7,12,11)            121.2053         estimate D2E/DX2                !
 ! A33   A(2,13,14)            121.8393         estimate D2E/DX2                !
 ! A34   A(2,13,20)            120.0588         estimate D2E/DX2                !
 ! A35   A(14,13,20)           117.3889         estimate D2E/DX2                !
 ! A36   A(13,14,15)           115.9006         estimate D2E/DX2                !
 ! A37   A(13,14,38)           108.5592         estimate D2E/DX2                !
 ! A38   A(13,14,39)           108.3532         estimate D2E/DX2                !
 ! A39   A(15,14,38)           108.4446         estimate D2E/DX2                !
 ! A40   A(15,14,39)           107.8985         estimate D2E/DX2                !
 ! A41   A(38,14,39)           107.3794         estimate D2E/DX2                !
 ! A42   A(14,15,16)           109.7974         estimate D2E/DX2                !
 ! A43   A(14,15,19)           112.5574         estimate D2E/DX2                !
 ! A44   A(14,15,40)           109.0721         estimate D2E/DX2                !
 ! A45   A(16,15,19)           106.9682         estimate D2E/DX2                !
 ! A46   A(16,15,40)           109.2841         estimate D2E/DX2                !
 ! A47   A(19,15,40)           109.1029         estimate D2E/DX2                !
 ! A48   A(15,16,17)           107.7671         estimate D2E/DX2                !
 ! A49   A(15,16,41)           110.1841         estimate D2E/DX2                !
 ! A50   A(15,16,42)           111.0448         estimate D2E/DX2                !
 ! A51   A(17,16,41)           110.5521         estimate D2E/DX2                !
 ! A52   A(17,16,42)           110.1662         estimate D2E/DX2                !
 ! A53   A(41,16,42)           107.1486         estimate D2E/DX2                !
 ! A54   A(16,17,18)           107.1266         estimate D2E/DX2                !
 ! A55   A(16,17,43)           110.1869         estimate D2E/DX2                !
 ! A56   A(16,17,44)           110.9872         estimate D2E/DX2                !
 ! A57   A(18,17,43)           110.2666         estimate D2E/DX2                !
 ! A58   A(18,17,44)           110.982          estimate D2E/DX2                !
 ! A59   A(43,17,44)           107.3188         estimate D2E/DX2                !
 ! A60   A(17,18,19)           106.8292         estimate D2E/DX2                !
 ! A61   A(17,18,45)           111.2365         estimate D2E/DX2                !
 ! A62   A(17,18,46)           110.1839         estimate D2E/DX2                !
 ! A63   A(19,18,45)           111.0719         estimate D2E/DX2                !
 ! A64   A(19,18,46)           110.1501         estimate D2E/DX2                !
 ! A65   A(45,18,46)           107.396          estimate D2E/DX2                !
 ! A66   A(15,19,18)           107.4294         estimate D2E/DX2                !
 ! A67   A(15,19,47)           111.5747         estimate D2E/DX2                !
 ! A68   A(15,19,48)           109.638          estimate D2E/DX2                !
 ! A69   A(18,19,47)           110.9379         estimate D2E/DX2                !
 ! A70   A(18,19,48)           110.0424         estimate D2E/DX2                !
 ! A71   A(47,19,48)           107.2288         estimate D2E/DX2                !
 ! A72   A(13,20,21)           119.7982         estimate D2E/DX2                !
 ! A73   A(13,20,25)           121.6184         estimate D2E/DX2                !
 ! A74   A(21,20,25)           118.5792         estimate D2E/DX2                !
 ! A75   A(20,21,22)           120.344          estimate D2E/DX2                !
 ! A76   A(20,21,49)           120.4906         estimate D2E/DX2                !
 ! A77   A(22,21,49)           119.1622         estimate D2E/DX2                !
 ! A78   A(21,22,23)           121.0623         estimate D2E/DX2                !
 ! A79   A(21,22,50)           119.2552         estimate D2E/DX2                !
 ! A80   A(23,22,50)           119.6746         estimate D2E/DX2                !
 ! A81   A(22,23,24)           118.5992         estimate D2E/DX2                !
 ! A82   A(22,23,26)           120.3929         estimate D2E/DX2                !
 ! A83   A(24,23,26)           121.0068         estimate D2E/DX2                !
 ! A84   A(23,24,25)           120.9718         estimate D2E/DX2                !
 ! A85   A(23,24,51)           119.8967         estimate D2E/DX2                !
 ! A86   A(25,24,51)           119.1304         estimate D2E/DX2                !
 ! A87   A(20,25,24)           120.4365         estimate D2E/DX2                !
 ! A88   A(20,25,52)           119.9787         estimate D2E/DX2                !
 ! A89   A(24,25,52)           119.5595         estimate D2E/DX2                !
 ! A90   A(23,26,27)           121.4786         estimate D2E/DX2                !
 ! A91   A(23,26,31)           121.018          estimate D2E/DX2                !
 ! A92   A(27,26,31)           117.5024         estimate D2E/DX2                !
 ! A93   A(26,27,28)           119.3196         estimate D2E/DX2                !
 ! A94   A(26,27,53)           120.3471         estimate D2E/DX2                !
 ! A95   A(28,27,53)           120.3319         estimate D2E/DX2                !
 ! A96   A(27,28,29)           118.6103         estimate D2E/DX2                !
 ! A97   A(27,28,54)           120.9571         estimate D2E/DX2                !
 ! A98   A(29,28,54)           120.4326         estimate D2E/DX2                !
 ! A99   A(28,29,30)           123.2401         estimate D2E/DX2                !
 ! A100  A(28,29,55)           120.943          estimate D2E/DX2                !
 ! A101  A(30,29,55)           115.8169         estimate D2E/DX2                !
 ! A102  A(29,30,31)           117.5565         estimate D2E/DX2                !
 ! A103  A(26,31,30)           123.7702         estimate D2E/DX2                !
 ! A104  A(26,31,56)           120.5593         estimate D2E/DX2                !
 ! A105  A(30,31,56)           115.6689         estimate D2E/DX2                !
 ! D1    D(1,2,3,4)             -3.3718         estimate D2E/DX2                !
 ! D2    D(1,2,3,32)           117.158          estimate D2E/DX2                !
 ! D3    D(1,2,3,33)          -123.8229         estimate D2E/DX2                !
 ! D4    D(13,2,3,4)           179.5421         estimate D2E/DX2                !
 ! D5    D(13,2,3,32)          -59.928          estimate D2E/DX2                !
 ! D6    D(13,2,3,33)           59.091          estimate D2E/DX2                !
 ! D7    D(1,2,13,14)          166.025          estimate D2E/DX2                !
 ! D8    D(1,2,13,20)           -4.046          estimate D2E/DX2                !
 ! D9    D(3,2,13,14)          -16.8857         estimate D2E/DX2                !
 ! D10   D(3,2,13,20)          173.0433         estimate D2E/DX2                !
 ! D11   D(2,3,4,5)             69.7358         estimate D2E/DX2                !
 ! D12   D(2,3,4,12)           -85.373          estimate D2E/DX2                !
 ! D13   D(32,3,4,5)           -50.6923         estimate D2E/DX2                !
 ! D14   D(32,3,4,12)          154.1989         estimate D2E/DX2                !
 ! D15   D(33,3,4,5)          -168.6056         estimate D2E/DX2                !
 ! D16   D(33,3,4,12)           36.2857         estimate D2E/DX2                !
 ! D17   D(3,4,5,6)           -163.2682         estimate D2E/DX2                !
 ! D18   D(12,4,5,6)            -4.7271         estimate D2E/DX2                !
 ! D19   D(3,4,12,7)           162.4029         estimate D2E/DX2                !
 ! D20   D(3,4,12,11)          -21.5389         estimate D2E/DX2                !
 ! D21   D(5,4,12,7)             4.0333         estimate D2E/DX2                !
 ! D22   D(5,4,12,11)         -179.9086         estimate D2E/DX2                !
 ! D23   D(4,5,6,7)              3.2041         estimate D2E/DX2                !
 ! D24   D(5,6,7,8)           -179.1907         estimate D2E/DX2                !
 ! D25   D(5,6,7,12)            -0.4759         estimate D2E/DX2                !
 ! D26   D(6,7,8,9)            178.9187         estimate D2E/DX2                !
 ! D27   D(6,7,8,34)            -1.0014         estimate D2E/DX2                !
 ! D28   D(12,7,8,9)             0.3515         estimate D2E/DX2                !
 ! D29   D(12,7,8,34)         -179.5686         estimate D2E/DX2                !
 ! D30   D(6,7,12,4)            -2.2348         estimate D2E/DX2                !
 ! D31   D(6,7,12,11)         -178.9694         estimate D2E/DX2                !
 ! D32   D(8,7,12,4)           176.6819         estimate D2E/DX2                !
 ! D33   D(8,7,12,11)           -0.0527         estimate D2E/DX2                !
 ! D34   D(7,8,9,10)            -0.3651         estimate D2E/DX2                !
 ! D35   D(7,8,9,35)           179.6582         estimate D2E/DX2                !
 ! D36   D(34,8,9,10)          179.5545         estimate D2E/DX2                !
 ! D37   D(34,8,9,35)           -0.4222         estimate D2E/DX2                !
 ! D38   D(8,9,10,11)            0.0716         estimate D2E/DX2                !
 ! D39   D(8,9,10,36)         -179.9657         estimate D2E/DX2                !
 ! D40   D(35,9,10,11)        -179.9516         estimate D2E/DX2                !
 ! D41   D(35,9,10,36)           0.011          estimate D2E/DX2                !
 ! D42   D(9,10,11,12)           0.2338         estimate D2E/DX2                !
 ! D43   D(9,10,11,37)        -179.8843         estimate D2E/DX2                !
 ! D44   D(36,10,11,12)       -179.7287         estimate D2E/DX2                !
 ! D45   D(36,10,11,37)          0.1532         estimate D2E/DX2                !
 ! D46   D(10,11,12,4)        -175.7638         estimate D2E/DX2                !
 ! D47   D(10,11,12,7)          -0.24           estimate D2E/DX2                !
 ! D48   D(37,11,12,4)           4.3546         estimate D2E/DX2                !
 ! D49   D(37,11,12,7)         179.8784         estimate D2E/DX2                !
 ! D50   D(2,13,14,15)         -77.4429         estimate D2E/DX2                !
 ! D51   D(2,13,14,38)          44.8363         estimate D2E/DX2                !
 ! D52   D(2,13,14,39)         161.1543         estimate D2E/DX2                !
 ! D53   D(20,13,14,15)         92.881          estimate D2E/DX2                !
 ! D54   D(20,13,14,38)       -144.8398         estimate D2E/DX2                !
 ! D55   D(20,13,14,39)        -28.5218         estimate D2E/DX2                !
 ! D56   D(2,13,20,21)        -131.888          estimate D2E/DX2                !
 ! D57   D(2,13,20,25)          47.3579         estimate D2E/DX2                !
 ! D58   D(14,13,20,21)         57.6078         estimate D2E/DX2                !
 ! D59   D(14,13,20,25)       -123.1463         estimate D2E/DX2                !
 ! D60   D(13,14,15,16)        171.9094         estimate D2E/DX2                !
 ! D61   D(13,14,15,19)        -69.0523         estimate D2E/DX2                !
 ! D62   D(13,14,15,40)         52.1843         estimate D2E/DX2                !
 ! D63   D(38,14,15,16)         49.5696         estimate D2E/DX2                !
 ! D64   D(38,14,15,19)        168.6079         estimate D2E/DX2                !
 ! D65   D(38,14,15,40)        -70.1555         estimate D2E/DX2                !
 ! D66   D(39,14,15,16)        -66.4451         estimate D2E/DX2                !
 ! D67   D(39,14,15,19)         52.5932         estimate D2E/DX2                !
 ! D68   D(39,14,15,40)        173.8298         estimate D2E/DX2                !
 ! D69   D(14,15,16,17)        123.0803         estimate D2E/DX2                !
 ! D70   D(14,15,16,41)       -116.2188         estimate D2E/DX2                !
 ! D71   D(14,15,16,42)          2.3384         estimate D2E/DX2                !
 ! D72   D(19,15,16,17)          0.662          estimate D2E/DX2                !
 ! D73   D(19,15,16,41)        121.3628         estimate D2E/DX2                !
 ! D74   D(19,15,16,42)       -120.08           estimate D2E/DX2                !
 ! D75   D(40,15,16,17)       -117.3241         estimate D2E/DX2                !
 ! D76   D(40,15,16,41)          3.3768         estimate D2E/DX2                !
 ! D77   D(40,15,16,42)        121.934          estimate D2E/DX2                !
 ! D78   D(14,15,19,18)       -109.2714         estimate D2E/DX2                !
 ! D79   D(14,15,19,47)         12.5255         estimate D2E/DX2                !
 ! D80   D(14,15,19,48)        131.1632         estimate D2E/DX2                !
 ! D81   D(16,15,19,18)         11.4051         estimate D2E/DX2                !
 ! D82   D(16,15,19,47)        133.202          estimate D2E/DX2                !
 ! D83   D(16,15,19,48)       -108.1603         estimate D2E/DX2                !
 ! D84   D(40,15,19,18)        129.5096         estimate D2E/DX2                !
 ! D85   D(40,15,19,47)       -108.6935         estimate D2E/DX2                !
 ! D86   D(40,15,19,48)          9.9442         estimate D2E/DX2                !
 ! D87   D(15,16,17,18)        -12.4651         estimate D2E/DX2                !
 ! D88   D(15,16,17,43)        107.5006         estimate D2E/DX2                !
 ! D89   D(15,16,17,44)       -133.7652         estimate D2E/DX2                !
 ! D90   D(41,16,17,18)       -132.9348         estimate D2E/DX2                !
 ! D91   D(41,16,17,43)        -12.9691         estimate D2E/DX2                !
 ! D92   D(41,16,17,44)        105.7651         estimate D2E/DX2                !
 ! D93   D(42,16,17,18)        108.8263         estimate D2E/DX2                !
 ! D94   D(42,16,17,43)       -131.208          estimate D2E/DX2                !
 ! D95   D(42,16,17,44)        -12.4738         estimate D2E/DX2                !
 ! D96   D(16,17,18,19)         19.5132         estimate D2E/DX2                !
 ! D97   D(16,17,18,45)        140.8814         estimate D2E/DX2                !
 ! D98   D(16,17,18,46)       -100.1325         estimate D2E/DX2                !
 ! D99   D(43,17,18,19)       -100.4015         estimate D2E/DX2                !
 ! D100  D(43,17,18,45)         20.9667         estimate D2E/DX2                !
 ! D101  D(43,17,18,46)        139.9528         estimate D2E/DX2                !
 ! D102  D(44,17,18,19)        140.8165         estimate D2E/DX2                !
 ! D103  D(44,17,18,45)        -97.8153         estimate D2E/DX2                !
 ! D104  D(44,17,18,46)         21.1709         estimate D2E/DX2                !
 ! D105  D(17,18,19,15)        -19.1573         estimate D2E/DX2                !
 ! D106  D(17,18,19,47)       -141.3507         estimate D2E/DX2                !
 ! D107  D(17,18,19,48)        100.1495         estimate D2E/DX2                !
 ! D108  D(45,18,19,15)       -140.6298         estimate D2E/DX2                !
 ! D109  D(45,18,19,47)         97.1768         estimate D2E/DX2                !
 ! D110  D(45,18,19,48)        -21.3229         estimate D2E/DX2                !
 ! D111  D(46,18,19,15)        100.5101         estimate D2E/DX2                !
 ! D112  D(46,18,19,47)        -21.6833         estimate D2E/DX2                !
 ! D113  D(46,18,19,48)       -140.183          estimate D2E/DX2                !
 ! D114  D(13,20,21,22)       -179.9219         estimate D2E/DX2                !
 ! D115  D(13,20,21,49)          0.7294         estimate D2E/DX2                !
 ! D116  D(25,20,21,22)          0.8093         estimate D2E/DX2                !
 ! D117  D(25,20,21,49)       -178.5394         estimate D2E/DX2                !
 ! D118  D(13,20,25,24)        179.9617         estimate D2E/DX2                !
 ! D119  D(13,20,25,52)         -1.8767         estimate D2E/DX2                !
 ! D120  D(21,20,25,24)         -0.7834         estimate D2E/DX2                !
 ! D121  D(21,20,25,52)        177.3782         estimate D2E/DX2                !
 ! D122  D(20,21,22,23)         -0.1703         estimate D2E/DX2                !
 ! D123  D(20,21,22,50)       -179.1436         estimate D2E/DX2                !
 ! D124  D(49,21,22,23)        179.187          estimate D2E/DX2                !
 ! D125  D(49,21,22,50)          0.2137         estimate D2E/DX2                !
 ! D126  D(21,22,23,24)         -0.5015         estimate D2E/DX2                !
 ! D127  D(21,22,23,26)        179.8624         estimate D2E/DX2                !
 ! D128  D(50,22,23,24)        178.4675         estimate D2E/DX2                !
 ! D129  D(50,22,23,26)         -1.1685         estimate D2E/DX2                !
 ! D130  D(22,23,24,25)          0.528          estimate D2E/DX2                !
 ! D131  D(22,23,24,51)       -179.8485         estimate D2E/DX2                !
 ! D132  D(26,23,24,25)       -179.8382         estimate D2E/DX2                !
 ! D133  D(26,23,24,51)         -0.2148         estimate D2E/DX2                !
 ! D134  D(22,23,26,27)        -34.4003         estimate D2E/DX2                !
 ! D135  D(22,23,26,31)        145.2353         estimate D2E/DX2                !
 ! D136  D(24,23,26,27)        145.9725         estimate D2E/DX2                !
 ! D137  D(24,23,26,31)        -34.3919         estimate D2E/DX2                !
 ! D138  D(23,24,25,20)          0.1175         estimate D2E/DX2                !
 ! D139  D(23,24,25,52)       -178.0518         estimate D2E/DX2                !
 ! D140  D(51,24,25,20)       -179.5088         estimate D2E/DX2                !
 ! D141  D(51,24,25,52)          2.3219         estimate D2E/DX2                !
 ! D142  D(23,26,27,28)        179.3742         estimate D2E/DX2                !
 ! D143  D(23,26,27,53)         -1.0397         estimate D2E/DX2                !
 ! D144  D(31,26,27,28)         -0.2737         estimate D2E/DX2                !
 ! D145  D(31,26,27,53)        179.3124         estimate D2E/DX2                !
 ! D146  D(23,26,31,30)       -179.5943         estimate D2E/DX2                !
 ! D147  D(23,26,31,56)         -0.0666         estimate D2E/DX2                !
 ! D148  D(27,26,31,30)          0.0553         estimate D2E/DX2                !
 ! D149  D(27,26,31,56)        179.583          estimate D2E/DX2                !
 ! D150  D(26,27,28,29)          0.2885         estimate D2E/DX2                !
 ! D151  D(26,27,28,54)       -179.7186         estimate D2E/DX2                !
 ! D152  D(53,27,28,29)       -179.2976         estimate D2E/DX2                !
 ! D153  D(53,27,28,54)          0.6952         estimate D2E/DX2                !
 ! D154  D(27,28,29,30)         -0.0837         estimate D2E/DX2                !
 ! D155  D(27,28,29,55)        179.9113         estimate D2E/DX2                !
 ! D156  D(54,28,29,30)        179.9234         estimate D2E/DX2                !
 ! D157  D(54,28,29,55)         -0.0816         estimate D2E/DX2                !
 ! D158  D(28,29,30,31)         -0.1331         estimate D2E/DX2                !
 ! D159  D(55,29,30,31)        179.8716         estimate D2E/DX2                !
 ! D160  D(29,30,31,26)          0.147          estimate D2E/DX2                !
 ! D161  D(29,30,31,56)       -179.4018         estimate D2E/DX2                !
 --------------------------------------------------------------------------------
 Trust Radius=3.00D-01 FncErr=1.00D-07 GrdErr=1.00D-07
 Number of steps in this run=    336 maximum allowed number of steps=    336.
 GradGradGradGradGradGradGradGradGradGradGradGradGradGradGradGradGradGrad

 Leave Link  103 at Sat Aug 27 00:18:17 2022, MaxMem=  209715200 cpu:       0.1
 (Enter /opt/gaussian/l202.exe)
 Stoichiometry    C25H25N5O
 Framework group  C1[X(C25H25N5O)]
 Deg. of freedom   162
 Full point group                 C1      NOp   1
 Largest Abelian subgroup         C1      NOp   1
 Largest concise Abelian subgroup C1      NOp   1
                         Standard orientation:                         
 ---------------------------------------------------------------------
 Center     Atomic      Atomic             Coordinates (Angstroms)
 Number     Number       Type             X           Y           Z
 ---------------------------------------------------------------------
      1          8           0        1.153667   -1.439437   -0.385948
      2          6           0        1.316407   -0.284318   -0.810142
      3          6           0        2.691597    0.212046   -1.294193
      4          7           0        3.769693   -0.729625   -1.145619
      5          7           0        3.884762   -1.880972   -1.890135
      6          7           0        4.686032   -2.699839   -1.379885
      7          6           0        5.166241   -2.183107   -0.131404
      8          6           0        6.064123   -2.661397    0.821378
      9          6           0        6.311402   -1.857408    1.929973
     10          6           0        5.693182   -0.606979    2.091372
     11          6           0        4.797405   -0.098781    1.155581
     12          6           0        4.531194   -0.892692    0.040076
     13          7           0        0.247010    0.607700   -0.929902
     14          6           0        0.454251    2.023626   -1.133529
     15          6           0        0.857553    2.829213    0.112078
     16          6           0        1.235031    4.257660   -0.293544
     17          6           0        0.345244    5.213615    0.489663
     18          6           0       -0.762167    4.381530    1.118097
     19          6           0       -0.276326    2.939774    1.131443
     20          6           0       -1.078662    0.174245   -0.643963
     21          6           0       -2.121944    0.461969   -1.550865
     22          6           0       -3.420033    0.045825   -1.282384
     23          6           0       -3.723990   -0.668280   -0.114278
     24          6           0       -2.686153   -0.966256    0.778986
     25          6           0       -1.382061   -0.555655    0.523673
     26          6           0       -5.090824   -1.094963    0.154103
     27          6           0       -6.191526   -0.314878   -0.233070
     28          6           0       -7.480907   -0.772827    0.034796
     29          6           0       -7.634318   -2.005737    0.693427
     30          7           0       -6.594820   -2.771415    1.079207
     31          6           0       -5.356815   -2.320505    0.810973
     32          1           0        2.599723    0.465577   -2.391261
     33          1           0        2.978134    1.135870   -0.714963
     34          1           0        6.556465   -3.636619    0.696378
     35          1           0        7.011027   -2.208242    2.703867
     36          1           0        5.925294   -0.011110    2.987925
     37          1           0        4.321739    0.881164    1.291894
     38          1           0        1.251243    2.160446   -1.920723
     39          1           0       -0.500300    2.467634   -1.539603
     40          1           0        1.742074    2.335488    0.598086
     41          1           0        2.313430    4.450803   -0.067670
     42          1           0        1.095026    4.413602   -1.393506
     43          1           0        0.939912    5.731382    1.284473
     44          1           0       -0.077925    6.004568   -0.177844
     45          1           0       -0.997867    4.735733    2.151613
     46          1           0       -1.700346    4.466825    0.512889
     47          1           0       -1.111918    2.234068    0.895534
     48          1           0        0.105641    2.672957    2.149600
     49          1           0       -1.916064    1.008943   -2.483933
     50          1           0       -4.217299    0.267518   -2.008805
     51          1           0       -2.900375   -1.528167    1.701599
     52          1           0       -0.578161   -0.830418    1.225875
     53          1           0       -6.038500    0.651152   -0.736565
     54          1           0       -8.360907   -0.186769   -0.260189
     55          1           0       -8.637766   -2.404365    0.926015
     56          1           0       -4.527787   -2.977808    1.131758
 ---------------------------------------------------------------------
 Rotational constants (GHZ):      0.2132085      0.0674021      0.0565613
 Leave Link  202 at Sat Aug 27 00:18:17 2022, MaxMem=  209715200 cpu:       0.0
 (Enter /opt/gaussian/l301.exe)
 Standard basis: 6-31G (6D, 7F)
 Ernie: Thresh=  0.10000D-02 Tol=  0.10000D-05 Strict=F.
 There are   329 symmetry adapted basis functions of A   symmetry.
 Integral buffers will be    131072 words long.
 Raffenetti 1 integral format.
 Two-electron integral symmetry is turned on.
   329 basis functions,   782 primitive gaussians,   329 cartesian basis functions
   109 alpha electrons      109 beta electrons
       nuclear repulsion energy      2812.3793570422 Hartrees.
 IExCor=    0 DFT=F Ex=HF Corr=None ExCW=0 ScaHFX=  1.000000
 ScaDFX=  1.000000  1.000000  1.000000  1.000000 ScalE2=  1.000000  1.000000
 IRadAn=      0 IRanWt=     -1 IRanGd=            0 ICorTp=0
 NAtoms=   56 NActive=   56 NUniq=   56 SFac= 1.00D+00 NAtFMM=   60 NAOKFM=F Big=F
 Leave Link  301 at Sat Aug 27 00:18:17 2022, MaxMem=  209715200 cpu:       0.2
 (Enter /opt/gaussian/l302.exe)
 NPDir=0 NMtPBC=     1 NCelOv=     1 NCel=       1 NClECP=     1 NCelD=      1
         NCelK=      1 NCelE2=     1 NClLst=     1 CellRange=     0.0.
 One-electron integrals computed using PRISM.
 NBasis=   329 RedAO= T  NBF=   329
 NBsUse=   329 1.00D-06 NBFU=   329
 Leave Link  302 at Sat Aug 27 00:18:18 2022, MaxMem=  209715200 cpu:       2.0
 (Enter /opt/gaussian/l303.exe)
 DipDrv:  MaxL=1.
 Leave Link  303 at Sat Aug 27 00:18:18 2022, MaxMem=  209715200 cpu:       0.4
 (Enter /opt/gaussian/l401.exe)
 Harris functional with IExCor=  205 diagonalized for initial guess.
 ExpMin= 1.61D-01 ExpMax= 5.48D+03 ExpMxC= 8.25D+02 IAcc=1 IRadAn=         1 AccDes= 0.00D+00
 HarFok:  IExCor=  205 AccDes= 0.00D+00 IRadAn=         1 IDoV= 1
 ScaDFX=  1.000000  1.000000  1.000000  1.000000
 FoFCou: FMM=F IPFlag=           0 FMFlag=      100000 FMFlg1=           0
         NFxFlg=           0 DoJE=T BraDBF=F KetDBF=T FulRan=T
         Omega=  0.000000  0.000000  1.000000  0.000000  0.000000 ICntrl=     500 IOpCl=  0
         NMat0=    1 NMatS0=    1 NMatT0=    0 NMatD0=    1 NMtDS0=    0 NMtDT0=    0
         I1Cent=           4 NGrid=           0.
 Petite list used in FoFCou.
 Harris En= -1309.49945221124    
 Initial guess orbital symmetries:
       Occupied  (A) (A) (A) (A) (A) (A) (A) (A) (A) (A) (A) (A)
                 (A) (A) (A) (A) (A) (A) (A) (A) (A) (A) (A) (A)
                 (A) (A) (A) (A) (A) (A) (A) (A) (A) (A) (A) (A)
                 (A) (A) (A) (A) (A) (A) (A) (A) (A) (A) (A) (A)
                 (A) (A) (A) (A) (A) (A) (A) (A) (A) (A) (A) (A)
                 (A) (A) (A) (A) (A) (A) (A) (A) (A) (A) (A) (A)
                 (A) (A) (A) (A) (A) (A) (A) (A) (A) (A) (A) (A)
                 (A) (A) (A) (A) (A) (A) (A) (A) (A) (A) (A) (A)
                 (A) (A) (A) (A) (A) (A) (A) (A) (A) (A) (A) (A)
                 (A)
       Virtual   (A) (A) (A) (A) (A) (A) (A) (A) (A) (A) (A) (A)
                 (A) (A) (A) (A) (A) (A) (A) (A) (A) (A) (A) (A)
                 (A) (A) (A) (A) (A) (A) (A) (A) (A) (A) (A) (A)
                 (A) (A) (A) (A) (A) (A) (A) (A) (A) (A) (A) (A)
                 (A) (A) (A) (A) (A) (A) (A) (A) (A) (A) (A) (A)
                 (A) (A) (A) (A) (A) (A) (A) (A) (A) (A) (A) (A)
                 (A) (A) (A) (A) (A) (A) (A) (A) (A) (A) (A) (A)
                 (A) (A) (A) (A) (A) (A) (A) (A) (A) (A) (A) (A)
                 (A) (A) (A) (A) (A) (A) (A) (A) (A) (A) (A) (A)
                 (A) (A) (A) (A) (A) (A) (A) (A) (A) (A) (A) (A)
                 (A) (A) (A) (A) (A) (A) (A) (A) (A) (A) (A) (A)
                 (A) (A) (A) (A) (A) (A) (A) (A) (A) (A) (A) (A)
                 (A) (A) (A) (A) (A) (A) (A) (A) (A) (A) (A) (A)
                 (A) (A) (A) (A) (A) (A) (A) (A) (A) (A) (A) (A)
                 (A) (A) (A) (A) (A) (A) (A) (A) (A) (A) (A) (A)
                 (A) (A) (A) (A) (A) (A) (A) (A) (A) (A) (A) (A)
                 (A) (A) (A) (A) (A) (A) (A) (A) (A) (A) (A) (A)
                 (A) (A) (A) (A) (A) (A) (A) (A) (A) (A) (A) (A)
                 (A) (A) (A) (A)
 The electronic state of the initial guess is 1-A.
 Leave Link  401 at Sat Aug 27 00:18:18 2022, MaxMem=  209715200 cpu:       4.8
 (Enter /opt/gaussian/l502.exe)
 Closed shell SCF:
 Requested convergence on RMS density matrix=1.00D-08 within 128 cycles.
 Requested convergence on MAX density matrix=1.00D-06.
 Requested convergence on             energy=1.00D-06.
 No special actions if energy rises.
 Using DIIS extrapolation, IDIIS=  1040.
 Integral symmetry usage will be decided dynamically.
 IEnd=      348059 IEndB=      348059 NGot=   209715200 MDV=   209492352
 LenX=   209492352 LenY=   209383670
 Fock matrices will be formed incrementally for  20 cycles.
 Integral accuracy reduced to 1.0D-05 until final iterations.

 Cycle   1  Pass 0  IDiag  1:
 FoFCou: FMM=F IPFlag=           0 FMFlag=      100000 FMFlg1=           0
         NFxFlg=           0 DoJE=F BraDBF=F KetDBF=F FulRan=T
         Omega=  0.000000  0.000000  1.000000  0.000000  0.000000 ICntrl=       0 IOpCl=  0
         NMat0=    1 NMatS0=    1 NMatT0=    0 NMatD0=    1 NMtDS0=    0 NMtDT0=    0
         I1Cent=           0 NGrid=           0.
 Symmetry not used in FoFCou.
 E= -1306.79281409115    
 DIIS: error= 3.68D-02 at cycle   1 NSaved=   1.
 NSaved= 1 IEnMin= 1 EnMin= -1306.79281409115     IErMin= 1 ErrMin= 3.68D-02
 ErrMax= 3.68D-02 EMaxC= 1.00D-01 BMatC= 1.08D+00 BMatP= 1.08D+00
 IDIUse=3 WtCom= 6.32D-01 WtEn= 3.68D-01
 Coeff-Com:  0.100D+01
 Coeff-En:   0.100D+01
 Coeff:      0.100D+01
 Gap=     0.513 Goal=   None    Shift=    0.000
 GapD=    0.513 DampG=2.000 DampE=0.500 DampFc=1.0000 IDamp=-1.
 RMSDP=5.57D-03 MaxDP=1.69D-01              OVMax= 1.64D-01

 Cycle   2  Pass 0  IDiag  1:
 RMSU=  3.90D-03    CP:  9.66D-01
 E= -1307.53675431689     Delta-E=       -0.743940225733 Rises=F Damp=F
 DIIS: error= 2.08D-02 at cycle   2 NSaved=   2.
 NSaved= 2 IEnMin= 2 EnMin= -1307.53675431689     IErMin= 2 ErrMin= 2.08D-02
 ErrMax= 2.08D-02 EMaxC= 1.00D-01 BMatC= 2.04D-01 BMatP= 1.08D+00
 IDIUse=3 WtCom= 7.92D-01 WtEn= 2.08D-01
 Coeff-Com:  0.257D+00 0.743D+00
 Coeff-En:   0.000D+00 0.100D+01
 Coeff:      0.203D+00 0.797D+00
 Gap=     0.435 Goal=   None    Shift=    0.000
 RMSDP=2.42D-03 MaxDP=9.13D-02 DE=-7.44D-01 OVMax= 1.00D-01

 Cycle   3  Pass 0  IDiag  1:
 RMSU=  1.45D-03    CP:  9.67D-01  7.66D-01
 E= -1307.70632005767     Delta-E=       -0.169565740787 Rises=F Damp=F
 DIIS: error= 9.79D-03 at cycle   3 NSaved=   3.
 NSaved= 3 IEnMin= 3 EnMin= -1307.70632005767     IErMin= 3 ErrMin= 9.79D-03
 ErrMax= 9.79D-03 EMaxC= 1.00D-01 BMatC= 2.92D-02 BMatP= 2.04D-01
 IDIUse=3 WtCom= 9.02D-01 WtEn= 9.79D-02
 Coeff-Com:  0.714D-02 0.261D+00 0.732D+00
 Coeff-En:   0.000D+00 0.000D+00 0.100D+01
 Coeff:      0.644D-02 0.235D+00 0.758D+00
 Gap=     0.389 Goal=   None    Shift=    0.000
 RMSDP=7.81D-04 MaxDP=3.27D-02 DE=-1.70D-01 OVMax= 3.74D-02

 Cycle   4  Pass 0  IDiag  1:
 RMSU=  3.33D-04    CP:  9.67D-01  8.60D-01  8.31D-01
 E= -1307.73200958726     Delta-E=       -0.025689529588 Rises=F Damp=F
 DIIS: error= 3.10D-03 at cycle   4 NSaved=   4.
 NSaved= 4 IEnMin= 4 EnMin= -1307.73200958726     IErMin= 4 ErrMin= 3.10D-03
 ErrMax= 3.10D-03 EMaxC= 1.00D-01 BMatC= 2.90D-03 BMatP= 2.92D-02
 IDIUse=3 WtCom= 9.69D-01 WtEn= 3.10D-02
 Coeff-Com: -0.138D-01 0.314D-01 0.289D+00 0.693D+00
 Coeff-En:   0.000D+00 0.000D+00 0.000D+00 0.100D+01
 Coeff:     -0.133D-01 0.304D-01 0.280D+00 0.703D+00
 Gap=     0.386 Goal=   None    Shift=    0.000
 RMSDP=2.51D-04 MaxDP=1.01D-02 DE=-2.57D-02 OVMax= 9.32D-03

 Cycle   5  Pass 0  IDiag  1:
 RMSU=  1.11D-04    CP:  9.66D-01  8.53D-01  9.05D-01  7.60D-01
 E= -1307.73468745922     Delta-E=       -0.002677871956 Rises=F Damp=F
 DIIS: error= 9.20D-04 at cycle   5 NSaved=   5.
 NSaved= 5 IEnMin= 5 EnMin= -1307.73468745922     IErMin= 5 ErrMin= 9.20D-04
 ErrMax= 9.20D-04 EMaxC= 1.00D-01 BMatC= 8.71D-05 BMatP= 2.90D-03
 IDIUse=3 WtCom= 9.91D-01 WtEn= 9.20D-03
 Coeff-Com: -0.142D-02-0.128D-01-0.144D-01 0.625D-01 0.966D+00
 Coeff-En:   0.000D+00 0.000D+00 0.000D+00 0.000D+00 0.100D+01
 Coeff:     -0.141D-02-0.127D-01-0.142D-01 0.619D-01 0.966D+00
 Gap=     0.387 Goal=   None    Shift=    0.000
 RMSDP=7.17D-05 MaxDP=1.98D-03 DE=-2.68D-03 OVMax= 5.19D-03

 Cycle   6  Pass 0  IDiag  1:
 RMSU=  3.77D-05    CP:  9.66D-01  8.53D-01  9.21D-01  8.09D-01  1.16D+00
 E= -1307.73491298143     Delta-E=       -0.000225522213 Rises=F Damp=F
 DIIS: error= 2.90D-04 at cycle   6 NSaved=   6.
 NSaved= 6 IEnMin= 6 EnMin= -1307.73491298143     IErMin= 6 ErrMin= 2.90D-04
 ErrMax= 2.90D-04 EMaxC= 1.00D-01 BMatC= 2.14D-05 BMatP= 8.71D-05
 IDIUse=3 WtCom= 9.97D-01 WtEn= 2.90D-03
 Coeff-Com:  0.220D-02-0.678D-02-0.478D-01-0.131D+00 0.999D-01 0.108D+01
 Coeff-En:   0.000D+00 0.000D+00 0.000D+00 0.000D+00 0.000D+00 0.100D+01
 Coeff:      0.219D-02-0.676D-02-0.477D-01-0.131D+00 0.996D-01 0.108D+01
 Gap=     0.387 Goal=   None    Shift=    0.000
 RMSDP=4.77D-05 MaxDP=1.69D-03 DE=-2.26D-04 OVMax= 2.99D-03

 Cycle   7  Pass 0  IDiag  1:
 RMSU=  1.48D-05    CP:  9.66D-01  8.52D-01  9.31D-01  8.16D-01  1.39D+00
                    CP:  1.23D+00
 E= -1307.73498049974     Delta-E=       -0.000067518313 Rises=F Damp=F
 DIIS: error= 1.86D-04 at cycle   7 NSaved=   7.
 NSaved= 7 IEnMin= 7 EnMin= -1307.73498049974     IErMin= 7 ErrMin= 1.86D-04
 ErrMax= 1.86D-04 EMaxC= 1.00D-01 BMatC= 2.95D-06 BMatP= 2.14D-05
 IDIUse=3 WtCom= 9.98D-01 WtEn= 1.86D-03
 Coeff-Com:  0.992D-04 0.157D-02 0.470D-02-0.104D-01-0.100D+00-0.476D-01
 Coeff-Com:  0.115D+01
 Coeff-En:   0.000D+00 0.000D+00 0.000D+00 0.000D+00 0.000D+00 0.000D+00
 Coeff-En:   0.100D+01
 Coeff:      0.990D-04 0.157D-02 0.469D-02-0.104D-01-0.999D-01-0.475D-01
 Coeff:      0.115D+01
 Gap=     0.387 Goal=   None    Shift=    0.000
 RMSDP=1.82D-05 MaxDP=6.95D-04 DE=-6.75D-05 OVMax= 1.62D-03

 Cycle   8  Pass 0  IDiag  1:
 RMSU=  5.71D-06    CP:  9.66D-01  8.51D-01  9.32D-01  8.15D-01  1.45D+00
                    CP:  1.41D+00  1.37D+00
 E= -1307.73499094978     Delta-E=       -0.000010450035 Rises=F Damp=F
 DIIS: error= 6.84D-05 at cycle   8 NSaved=   8.
 NSaved= 8 IEnMin= 8 EnMin= -1307.73499094978     IErMin= 8 ErrMin= 6.84D-05
 ErrMax= 6.84D-05 EMaxC= 1.00D-01 BMatC= 6.93D-07 BMatP= 2.95D-06
 IDIUse=1 WtCom= 1.00D+00 WtEn= 0.00D+00
 Coeff-Com: -0.526D-03 0.216D-02 0.141D-01 0.281D-01-0.420D-01-0.291D+00
 Coeff-Com:  0.283D+00 0.101D+01
 Coeff:     -0.526D-03 0.216D-02 0.141D-01 0.281D-01-0.420D-01-0.291D+00
 Coeff:      0.283D+00 0.101D+01
 Gap=     0.387 Goal=   None    Shift=    0.000
 RMSDP=8.60D-06 MaxDP=2.45D-04 DE=-1.05D-05 OVMax= 7.35D-04

 Initial convergence to 1.0D-05 achieved.  Increase integral accuracy.
 Cycle   9  Pass 1  IDiag  1:
 E= -1307.73499653850     Delta-E=       -0.000005588724 Rises=F Damp=F
 DIIS: error= 7.74D-05 at cycle   1 NSaved=   1.
 NSaved= 1 IEnMin= 1 EnMin= -1307.73499653850     IErMin= 1 ErrMin= 7.74D-05
 ErrMax= 7.74D-05 EMaxC= 1.00D-01 BMatC= 1.39D-06 BMatP= 1.39D-06
 IDIUse=1 WtCom= 1.00D+00 WtEn= 0.00D+00
 Coeff-Com:  0.100D+01
 Coeff:      0.100D+01
 Gap=     0.387 Goal=   None    Shift=    0.000
 RMSDP=8.60D-06 MaxDP=2.45D-04 DE=-5.59D-06 OVMax= 1.95D-04

 Cycle  10  Pass 1  IDiag  1:
 RMSU=  3.36D-05    CP:  1.00D+00
 E= -1307.73499800319     Delta-E=       -0.000001464686 Rises=F Damp=F
 DIIS: error= 1.31D-05 at cycle   2 NSaved=   2.
 NSaved= 2 IEnMin= 2 EnMin= -1307.73499800319     IErMin= 2 ErrMin= 1.31D-05
 ErrMax= 1.31D-05 EMaxC= 1.00D-01 BMatC= 3.20D-08 BMatP= 1.39D-06
 IDIUse=1 WtCom= 1.00D+00 WtEn= 0.00D+00
 Coeff-Com: -0.303D-01 0.103D+01
 Coeff:     -0.303D-01 0.103D+01
 Gap=     0.387 Goal=   None    Shift=    0.000
 RMSDP=2.93D-06 MaxDP=6.01D-05 DE=-1.46D-06 OVMax= 1.19D-04

 Cycle  11  Pass 1  IDiag  1:
 RMSU=  9.70D-07    CP:  1.00D+00  1.05D+00
 E= -1307.73499808734     Delta-E=       -0.000000084149 Rises=F Damp=F
 DIIS: error= 1.12D-05 at cycle   3 NSaved=   3.
 NSaved= 3 IEnMin= 3 EnMin= -1307.73499808734     IErMin= 3 ErrMin= 1.12D-05
 ErrMax= 1.12D-05 EMaxC= 1.00D-01 BMatC= 1.67D-08 BMatP= 3.20D-08
 IDIUse=1 WtCom= 1.00D+00 WtEn= 0.00D+00
 Coeff-Com: -0.264D-01 0.369D+00 0.657D+00
 Coeff:     -0.264D-01 0.369D+00 0.657D+00
 Gap=     0.387 Goal=   None    Shift=    0.000
 RMSDP=5.58D-07 MaxDP=2.10D-05 DE=-8.41D-08 OVMax= 5.35D-05

 Cycle  12  Pass 1  IDiag  1:
 RMSU=  3.85D-07    CP:  1.00D+00  1.06D+00  1.02D+00
 E= -1307.73499811729     Delta-E=       -0.000000029950 Rises=F Damp=F
 DIIS: error= 6.88D-06 at cycle   4 NSaved=   4.
 NSaved= 4 IEnMin= 4 EnMin= -1307.73499811729     IErMin= 4 ErrMin= 6.88D-06
 ErrMax= 6.88D-06 EMaxC= 1.00D-01 BMatC= 4.40D-09 BMatP= 1.67D-08
 IDIUse=1 WtCom= 1.00D+00 WtEn= 0.00D+00
 Coeff-Com:  0.274D-01-0.657D+00-0.358D+00 0.199D+01
 Coeff:      0.274D-01-0.657D+00-0.358D+00 0.199D+01
 Gap=     0.387 Goal=   None    Shift=    0.000
 RMSDP=1.01D-06 MaxDP=2.35D-05 DE=-2.99D-08 OVMax= 1.35D-04

 Cycle  13  Pass 1  IDiag  1:
 RMSU=  2.92D-07    CP:  1.00D+00  1.06D+00  1.53D+00  2.11D+00
 E= -1307.73499814753     Delta-E=       -0.000000030239 Rises=F Damp=F
 DIIS: error= 1.62D-06 at cycle   5 NSaved=   5.
 NSaved= 5 IEnMin= 5 EnMin= -1307.73499814753     IErMin= 5 ErrMin= 1.62D-06
 ErrMax= 1.62D-06 EMaxC= 1.00D-01 BMatC= 2.83D-10 BMatP= 4.40D-09
 IDIUse=1 WtCom= 1.00D+00 WtEn= 0.00D+00
 Coeff-Com:  0.742D-02-0.153D+00-0.112D+00 0.342D+00 0.915D+00
 Coeff:      0.742D-02-0.153D+00-0.112D+00 0.342D+00 0.915D+00
 Gap=     0.387 Goal=   None    Shift=    0.000
 RMSDP=1.79D-07 MaxDP=4.16D-06 DE=-3.02D-08 OVMax= 2.32D-05

 Cycle  14  Pass 1  IDiag  1:
 RMSU=  6.36D-08    CP:  1.00D+00  1.06D+00  1.58D+00  2.30D+00  1.21D+00
 E= -1307.73499814868     Delta-E=       -0.000000001153 Rises=F Damp=F
 DIIS: error= 5.31D-07 at cycle   6 NSaved=   6.
 NSaved= 6 IEnMin= 6 EnMin= -1307.73499814868     IErMin= 6 ErrMin= 5.31D-07
 ErrMax= 5.31D-07 EMaxC= 1.00D-01 BMatC= 5.67D-11 BMatP= 2.83D-10
 IDIUse=1 WtCom= 1.00D+00 WtEn= 0.00D+00
 Coeff-Com: -0.359D-02 0.895D-01 0.556D-01-0.310D+00 0.149D+00 0.102D+01
 Coeff:     -0.359D-02 0.895D-01 0.556D-01-0.310D+00 0.149D+00 0.102D+01
 Gap=     0.387 Goal=   None    Shift=    0.000
 RMSDP=7.50D-08 MaxDP=1.54D-06 DE=-1.15D-09 OVMax= 9.01D-06

 Cycle  15  Pass 1  IDiag  1:
 RMSU=  2.81D-08    CP:  1.00D+00  1.06D+00  1.59D+00  2.36D+00  1.33D+00
                    CP:  1.12D+00
 E= -1307.73499814891     Delta-E=       -0.000000000234 Rises=F Damp=F
 DIIS: error= 2.06D-07 at cycle   7 NSaved=   7.
 NSaved= 7 IEnMin= 7 EnMin= -1307.73499814891     IErMin= 7 ErrMin= 2.06D-07
 ErrMax= 2.06D-07 EMaxC= 1.00D-01 BMatC= 8.14D-12 BMatP= 5.67D-11
 IDIUse=1 WtCom= 1.00D+00 WtEn= 0.00D+00
 Coeff-Com: -0.974D-03 0.201D-01 0.215D-01-0.554D-01-0.116D+00 0.172D-01
 Coeff-Com:  0.111D+01
 Coeff:     -0.974D-03 0.201D-01 0.215D-01-0.554D-01-0.116D+00 0.172D-01
 Coeff:      0.111D+01
 Gap=     0.387 Goal=   None    Shift=    0.000
 RMSDP=2.62D-08 MaxDP=6.69D-07 DE=-2.34D-10 OVMax= 2.90D-06

 Cycle  16  Pass 1  IDiag  1:
 RMSU=  1.07D-08    CP:  1.00D+00  1.06D+00  1.59D+00  2.37D+00  1.35D+00
                    CP:  1.29D+00  1.29D+00
 E= -1307.73499814891     Delta-E=        0.000000000008 Rises=F Damp=F
 DIIS: error= 7.42D-08 at cycle   8 NSaved=   8.
 NSaved= 8 IEnMin= 7 EnMin= -1307.73499814891     IErMin= 8 ErrMin= 7.42D-08
 ErrMax= 7.42D-08 EMaxC= 1.00D-01 BMatC= 2.07D-12 BMatP= 8.14D-12
 IDIUse=1 WtCom= 1.00D+00 WtEn= 0.00D+00
 Coeff-Com:  0.484D-03-0.135D-01-0.282D-02 0.482D-01-0.710D-01-0.223D+00
 Coeff-Com:  0.367D+00 0.894D+00
 Coeff:      0.484D-03-0.135D-01-0.282D-02 0.482D-01-0.710D-01-0.223D+00
 Coeff:      0.367D+00 0.894D+00
 Gap=     0.387 Goal=   None    Shift=    0.000
 RMSDP=1.15D-08 MaxDP=3.17D-07 DE= 8.19D-12 OVMax= 1.12D-06

 Cycle  17  Pass 1  IDiag  1:
 RMSU=  4.82D-09    CP:  1.00D+00  1.06D+00  1.59D+00  2.37D+00  1.35D+00
                    CP:  1.32D+00  1.49D+00  1.05D+00
 E= -1307.73499814890     Delta-E=        0.000000000010 Rises=F Damp=F
 DIIS: error= 5.48D-08 at cycle   9 NSaved=   9.
 NSaved= 9 IEnMin= 7 EnMin= -1307.73499814891     IErMin= 9 ErrMin= 5.48D-08
 ErrMax= 5.48D-08 EMaxC= 1.00D-01 BMatC= 1.91D-13 BMatP= 2.07D-12
 IDIUse=1 WtCom= 1.00D+00 WtEn= 0.00D+00
 Coeff-Com:  0.382D-04-0.391D-03-0.686D-03-0.169D-02 0.207D-01 0.236D-01
 Coeff-Com: -0.152D+00-0.113D+00 0.122D+01
 Coeff:      0.382D-04-0.391D-03-0.686D-03-0.169D-02 0.207D-01 0.236D-01
 Coeff:     -0.152D+00-0.113D+00 0.122D+01
 Gap=     0.387 Goal=   None    Shift=    0.000
 RMSDP=5.00D-09 MaxDP=1.73D-07 DE= 1.00D-11 OVMax= 5.43D-07

 SCF Done:  E(RHF) =  -1307.73499815     A.U. after   17 cycles
             Convg  =    0.5003D-08             -V/T =  2.0003
 KE= 1.307299351069D+03 PE=-8.674811851841D+03 EE= 3.247398145581D+03
 Leave Link  502 at Sat Aug 27 00:19:39 2022, MaxMem=  209715200 cpu:     645.0
 (Enter /opt/gaussian/l601.exe)
 Copying SCF densities to generalized density rwf, IOpCl= 0 IROHF=0.

 **********************************************************************

            Population analysis using the SCF density.

 **********************************************************************

 Orbital symmetries:
       Occupied  (A) (A) (A) (A) (A) (A) (A) (A) (A) (A) (A) (A)
                 (A) (A) (A) (A) (A) (A) (A) (A) (A) (A) (A) (A)
                 (A) (A) (A) (A) (A) (A) (A) (A) (A) (A) (A) (A)
                 (A) (A) (A) (A) (A) (A) (A) (A) (A) (A) (A) (A)
                 (A) (A) (A) (A) (A) (A) (A) (A) (A) (A) (A) (A)
                 (A) (A) (A) (A) (A) (A) (A) (A) (A) (A) (A) (A)
                 (A) (A) (A) (A) (A) (A) (A) (A) (A) (A) (A) (A)
                 (A) (A) (A) (A) (A) (A) (A) (A) (A) (A) (A) (A)
                 (A) (A) (A) (A) (A) (A) (A) (A) (A) (A) (A) (A)
                 (A)
       Virtual   (A) (A) (A) (A) (A) (A) (A) (A) (A) (A) (A) (A)
                 (A) (A) (A) (A) (A) (A) (A) (A) (A) (A) (A) (A)
                 (A) (A) (A) (A) (A) (A) (A) (A) (A) (A) (A) (A)
                 (A) (A) (A) (A) (A) (A) (A) (A) (A) (A) (A) (A)
                 (A) (A) (A) (A) (A) (A) (A) (A) (A) (A) (A) (A)
                 (A) (A) (A) (A) (A) (A) (A) (A) (A) (A) (A) (A)
                 (A) (A) (A) (A) (A) (A) (A) (A) (A) (A) (A) (A)
                 (A) (A) (A) (A) (A) (A) (A) (A) (A) (A) (A) (A)
                 (A) (A) (A) (A) (A) (A) (A) (A) (A) (A) (A) (A)
                 (A) (A) (A) (A) (A) (A) (A) (A) (A) (A) (A) (A)
                 (A) (A) (A) (A) (A) (A) (A) (A) (A) (A) (A) (A)
                 (A) (A) (A) (A) (A) (A) (A) (A) (A) (A) (A) (A)
                 (A) (A) (A) (A) (A) (A) (A) (A) (A) (A) (A) (A)
                 (A) (A) (A) (A) (A) (A) (A) (A) (A) (A) (A) (A)
                 (A) (A) (A) (A) (A) (A) (A) (A) (A) (A) (A) (A)
                 (A) (A) (A) (A) (A) (A) (A) (A) (A) (A) (A) (A)
                 (A) (A) (A) (A) (A) (A) (A) (A) (A) (A) (A) (A)
                 (A) (A) (A) (A) (A) (A) (A) (A) (A) (A) (A) (A)
                 (A) (A) (A) (A)
 The electronic state is 1-A.
 Alpha  occ. eigenvalues --  -20.55214 -15.67269 -15.65798 -15.62397 -15.61746
 Alpha  occ. eigenvalues --  -15.58212 -11.39380 -11.32975 -11.30956 -11.30063
 Alpha  occ. eigenvalues --  -11.29991 -11.28607 -11.28580 -11.28447 -11.26953
 Alpha  occ. eigenvalues --  -11.26844 -11.26731 -11.26609 -11.26541 -11.26187
 Alpha  occ. eigenvalues --  -11.25864 -11.25819 -11.25530 -11.25465 -11.25421
 Alpha  occ. eigenvalues --  -11.25233 -11.25105 -11.24380 -11.23768 -11.23566
 Alpha  occ. eigenvalues --  -11.23488  -1.46485  -1.40789  -1.28146  -1.26962
 Alpha  occ. eigenvalues --   -1.24621  -1.17382  -1.17253  -1.15018  -1.10580
 Alpha  occ. eigenvalues --   -1.06376  -1.05234  -1.04729  -1.03406  -1.02709
 Alpha  occ. eigenvalues --   -1.02373  -0.99009  -0.98628  -0.92474  -0.89268
 Alpha  occ. eigenvalues --   -0.88505  -0.87098  -0.84902  -0.84006  -0.83121
 Alpha  occ. eigenvalues --   -0.80364  -0.78848  -0.78252  -0.76136  -0.72833
 Alpha  occ. eigenvalues --   -0.72155  -0.71653  -0.71508  -0.70016  -0.68170
 Alpha  occ. eigenvalues --   -0.67926  -0.66517  -0.66317  -0.65807  -0.64048
 Alpha  occ. eigenvalues --   -0.63965  -0.63395  -0.62686  -0.61950  -0.61519
 Alpha  occ. eigenvalues --   -0.60851  -0.59914  -0.59612  -0.58734  -0.57730
 Alpha  occ. eigenvalues --   -0.57250  -0.56358  -0.54983  -0.54662  -0.53966
 Alpha  occ. eigenvalues --   -0.53531  -0.53258  -0.51526  -0.51165  -0.51036
 Alpha  occ. eigenvalues --   -0.50284  -0.49893  -0.49415  -0.48962  -0.48486
 Alpha  occ. eigenvalues --   -0.48042  -0.46657  -0.45583  -0.45323  -0.42406
 Alpha  occ. eigenvalues --   -0.41700  -0.41453  -0.40514  -0.38302  -0.36172
 Alpha  occ. eigenvalues --   -0.34853  -0.34031  -0.32899  -0.29981
 Alpha virt. eigenvalues --    0.08762   0.09222   0.11567   0.13030   0.13983
 Alpha virt. eigenvalues --    0.14856   0.16353   0.17643   0.19467   0.20034
 Alpha virt. eigenvalues --    0.21692   0.22640   0.23334   0.23803   0.24291
 Alpha virt. eigenvalues --    0.25202   0.26180   0.26756   0.27221   0.28381
 Alpha virt. eigenvalues --    0.28566   0.29832   0.29982   0.30338   0.30677
 Alpha virt. eigenvalues --    0.31346   0.31604   0.31915   0.32260   0.32500
 Alpha virt. eigenvalues --    0.33373   0.33908   0.34336   0.35351   0.36601
 Alpha virt. eigenvalues --    0.36750   0.37043   0.38069   0.38604   0.39607
 Alpha virt. eigenvalues --    0.39830   0.40326   0.40886   0.41216   0.41808
 Alpha virt. eigenvalues --    0.43125   0.43677   0.44295   0.45846   0.46549
 Alpha virt. eigenvalues --    0.47871   0.48457   0.49516   0.50278   0.50535
 Alpha virt. eigenvalues --    0.51210   0.52140   0.54341   0.54569   0.55473
 Alpha virt. eigenvalues --    0.56530   0.56946   0.57556   0.60317   0.63129
 Alpha virt. eigenvalues --    0.63433   0.65593   0.71409   0.71643   0.72216
 Alpha virt. eigenvalues --    0.72772   0.73906   0.74436   0.75209   0.75953
 Alpha virt. eigenvalues --    0.76522   0.77080   0.77537   0.78036   0.78318
 Alpha virt. eigenvalues --    0.78660   0.79495   0.79888   0.80160   0.80968
 Alpha virt. eigenvalues --    0.81638   0.82101   0.82657   0.82793   0.83312
 Alpha virt. eigenvalues --    0.83892   0.84337   0.84566   0.85082   0.85400
 Alpha virt. eigenvalues --    0.85549   0.85905   0.86102   0.86490   0.86893
 Alpha virt. eigenvalues --    0.87415   0.87729   0.88527   0.89401   0.89776
 Alpha virt. eigenvalues --    0.90250   0.90708   0.91311   0.91744   0.92219
 Alpha virt. eigenvalues --    0.93139   0.93730   0.94325   0.94694   0.94927
 Alpha virt. eigenvalues --    0.95440   0.95853   0.97107   0.97298   0.97613
 Alpha virt. eigenvalues --    0.98970   0.99675   1.00554   1.00792   1.01972
 Alpha virt. eigenvalues --    1.02337   1.04323   1.05659   1.06230   1.06766
 Alpha virt. eigenvalues --    1.08158   1.09089   1.09507   1.09815   1.10112
 Alpha virt. eigenvalues --    1.10564   1.10778   1.11328   1.11784   1.12166
 Alpha virt. eigenvalues --    1.12301   1.12927   1.13329   1.13770   1.14147
 Alpha virt. eigenvalues --    1.14471   1.15169   1.15329   1.15454   1.16552
 Alpha virt. eigenvalues --    1.16751   1.17251   1.17869   1.18894   1.19962
 Alpha virt. eigenvalues --    1.20297   1.20691   1.20922   1.21560   1.22157
 Alpha virt. eigenvalues --    1.22635   1.23631   1.24313   1.24916   1.27113
 Alpha virt. eigenvalues --    1.27348   1.27854   1.28700   1.29461   1.30238
 Alpha virt. eigenvalues --    1.30345   1.31990   1.33065   1.33601   1.34908
 Alpha virt. eigenvalues --    1.35662   1.37912   1.38045   1.38472   1.38992
 Alpha virt. eigenvalues --    1.40226   1.41002   1.41435   1.42616   1.43863
 Alpha virt. eigenvalues --    1.44894   1.46064   1.49742   1.50533   1.51220
 Alpha virt. eigenvalues --    1.51858   1.53910   1.54545   1.56176   1.57980
 Alpha virt. eigenvalues --    1.60141   1.60648   1.62484   1.64941   1.65390
 Alpha virt. eigenvalues --    1.68973   1.69969   1.70719   1.72382   1.73859
 Alpha virt. eigenvalues --    1.74863   1.78940   1.82192   1.83858   1.91432
 Alpha virt. eigenvalues --    1.96476   1.97235   2.01209   2.07071   2.09800
 Alpha virt. eigenvalues --    2.15459   2.19858   2.21603   2.27375   2.31423
          Condensed to atoms (all electrons):
 Mulliken atomic charges:
              1
     1  O   -0.580306
     2  C    0.799124
     3  C   -0.141082
     4  N   -0.790464
     5  N    0.125436
     6  N   -0.313002
     7  C    0.034751
     8  C   -0.103865
     9  C   -0.234600
    10  C   -0.200683
    11  C   -0.120203
    12  C    0.383718
    13  N   -0.973486
    14  C   -0.084599
    15  C   -0.162635
    16  C   -0.330142
    17  C   -0.315686
    18  C   -0.316033
    19  C   -0.327481
    20  C    0.308610
    21  C   -0.195940
    22  C   -0.202716
    23  C   -0.022622
    24  C   -0.207082
    25  C   -0.146475
    26  C   -0.087944
    27  C   -0.143300
    28  C   -0.246971
    29  C    0.049294
    30  N   -0.529888
    31  C    0.056177
    32  H    0.249582
    33  H    0.218632
    34  H    0.247979
    35  H    0.210005
    36  H    0.211210
    37  H    0.218994
    38  H    0.172793
    39  H    0.193038
    40  H    0.157157
    41  H    0.166766
    42  H    0.163937
    43  H    0.163051
    44  H    0.165930
    45  H    0.169598
    46  H    0.158832
    47  H    0.195439
    48  H    0.164378
    49  H    0.217828
    50  H    0.218075
    51  H    0.226695
    52  H    0.250133
    53  H    0.224819
    54  H    0.216628
    55  H    0.211845
    56  H    0.226750
 Sum of Mulliken atomic charges =   0.00000
 Mulliken charges with hydrogens summed into heavy atoms:
              1
     1  O   -0.580306
     2  C    0.799124
     3  C    0.327132
     4  N   -0.790464
     5  N    0.125436
     6  N   -0.313002
     7  C    0.034751
     8  C    0.144114
     9  C   -0.024595
    10  C    0.010527
    11  C    0.098791
    12  C    0.383718
    13  N   -0.973486
    14  C    0.281232
    15  C   -0.005478
    16  C    0.000561
    17  C    0.013295
    18  C    0.012397
    19  C    0.032336
    20  C    0.308610
    21  C    0.021888
    22  C    0.015360
    23  C   -0.022622
    24  C    0.019613
    25  C    0.103658
    26  C   -0.087944
    27  C    0.081519
    28  C   -0.030343
    29  C    0.261138
    30  N   -0.529888
    31  C    0.282926
 Sum of Mulliken charges with hydrogens summed into heavy atoms =   0.00000
 Electronic spatial extent (au):  <R**2>=          18431.3707
 Charge=              0.0000 electrons
 Dipole moment (field-independent basis, Debye):
    X=             -0.1125    Y=              9.3550    Z=              1.4050  Tot=              9.4606
 Quadrupole moment (field-independent basis, Debye-Ang):
   XX=           -174.9493   YY=           -199.1459   ZZ=           -184.3083
   XY=             -4.1344   XZ=             27.2102   YZ=            -11.4241
 Traceless Quadrupole moment (field-independent basis, Debye-Ang):
   XX=             11.1852   YY=            -13.0114   ZZ=              1.8262
   XY=             -4.1344   XZ=             27.2102   YZ=            -11.4241
 Octapole moment (field-independent basis, Debye-Ang**2):
  XXX=            -50.0165  YYY=             73.0899  ZZZ=              6.8245  XYY=             53.5545
  XXY=            105.4467  XXZ=             41.2547  XZZ=             19.9457  YZZ=             34.6137
  YYZ=             16.4642  XYZ=            -52.5439
 Hexadecapole moment (field-independent basis, Debye-Ang**3):
 XXXX=         -17509.7019 YYYY=          -5698.4666 ZZZZ=          -1466.5838 XXXY=           -759.4709
 XXXZ=            967.1166 YYYX=           -229.2421 YYYZ=            -43.8447 ZZZX=            146.9318
 ZZZY=            -37.2678 XXYY=          -4482.6959 XXZZ=          -3505.9327 YYZZ=          -1217.5654
 XXYZ=           -146.5275 YYXZ=            229.1093 ZZXY=              7.9082
 N-N= 2.812379357042D+03 E-N=-8.674811851498D+03  KE= 1.307299351069D+03
 No NMR shielding tensors so no spin-rotation constants.
 Leave Link  601 at Sat Aug 27 00:19:40 2022, MaxMem=  209715200 cpu:       1.4
 (Enter /opt/gaussian/l701.exe)
 Compute integral first derivatives.
 ... and contract with generalized density number  0.
 Leave Link  701 at Sat Aug 27 00:19:40 2022, MaxMem=  209715200 cpu:       1.3
 (Enter /opt/gaussian/l702.exe)
 L702 exits ... SP integral derivatives will be done elsewhere.
 Leave Link  702 at Sat Aug 27 00:19:40 2022, MaxMem=  209715200 cpu:       0.2
 (Enter /opt/gaussian/l703.exe)
 Compute integral first derivatives, UseDBF=F ICtDFT=           0.
 Integral derivatives from FoFDir, PRISM(SPDF).
 Calling FoFJK, ICntrl=      2127 FMM=F ISym2X=0 I1Cent= 0 IOpClX= 0 NMat=1 NMatS=1 NMatT=0.
 FoFCou: FMM=F IPFlag=           0 FMFlag=      100000 FMFlg1=         800
         NFxFlg=           0 DoJE=F BraDBF=F KetDBF=F FulRan=T
         Omega=  0.000000  0.000000  1.000000  0.000000  0.000000 ICntrl=    2127 IOpCl=  0
         NMat0=    1 NMatS0=    1 NMatT0=    0 NMatD0=    1 NMtDS0=    0 NMtDT0=    0
         I1Cent=           0 NGrid=           0.
 Symmetry not used in FoFCou.
 Leave Link  703 at Sat Aug 27 00:20:10 2022, MaxMem=  209715200 cpu:     236.5
 (Enter /opt/gaussian/l716.exe)
 Dipole        =-4.42502131D-02 3.68055741D+00 5.52771396D-01
 ***** Axes restored to original set *****
 -------------------------------------------------------------------
 Center     Atomic                   Forces (Hartrees/Bohr)
 Number     Number              X              Y              Z
 -------------------------------------------------------------------
      1        8           0.023632962   -0.024313794    0.013334399
      2        6          -0.024445908    0.013592957   -0.006401133
      3        6           0.008642991   -0.021285397    0.020294135
      4        7           0.006017240    0.018867787   -0.051889852
      5        7          -0.002887619   -0.013236139    0.011073815
      6        7           0.014335348   -0.002362147   -0.027802773
      7        6          -0.008319513   -0.047670451    0.008678661
      8        6          -0.002423071    0.010603820    0.005537234
      9        6           0.006214295    0.011493744   -0.007990583
     10        6           0.003878164   -0.007955350   -0.009426137
     11        6          -0.003482717   -0.010525533    0.002036438
     12        6          -0.002862407    0.038138184    0.026953468
     13        7           0.009488858    0.023532173   -0.009319359
     14        6           0.014962714   -0.022139705    0.035254150
     15        6           0.009998617    0.026513927   -0.001739777
     16        6           0.028279393    0.000709335    0.021037015
     17        6           0.020081513   -0.033235016   -0.004933195
     18        6          -0.025081826   -0.024133816   -0.011699288
     19        6          -0.021484929    0.019887553   -0.026271062
     20        6          -0.027666856    0.005806164   -0.003572755
     21        6           0.011237954    0.001645026    0.002068427
     22        6          -0.004337134   -0.005573385    0.004505654
     23        6           0.018681297    0.002328043    0.004872214
     24        6          -0.000915243    0.003754725   -0.005966052
     25        6           0.011546228    0.004524628   -0.000880934
     26        6          -0.027798456    0.004275311   -0.009698902
     27        6          -0.000972435   -0.003719617    0.002072566
     28        6          -0.007081965    0.003335252   -0.002809031
     29        6          -0.012720208   -0.002817523   -0.002154714
     30        7           0.012452193   -0.020268809    0.012376405
     31        6           0.003966652    0.006797696   -0.002674061
     32        1           0.002772366    0.005454143   -0.030027599
     33        1          -0.016364283    0.019340645    0.021084922
     34        1          -0.001343699   -0.019961303   -0.002391299
     35        1          -0.009629137   -0.011172517    0.013738265
     36        1          -0.008906384    0.007905719    0.016217089
     37        1           0.001763268    0.018272850    0.001242266
     38        1          -0.021522660   -0.008833481   -0.018218246
     39        1           0.021342000    0.021902760   -0.007033855
     40        1          -0.014895999   -0.015651025    0.010510059
     41        1          -0.020546335   -0.006204129    0.008109552
     42        1           0.003687452    0.005989019   -0.020688354
     43        1          -0.015429467    0.002615104    0.016002150
     44        1           0.004993874    0.016154071   -0.015388141
     45        1          -0.002782521    0.005638672    0.022007305
     46        1           0.015965312    0.007953349   -0.012582821
     47        1           0.024720224   -0.005864637   -0.008656570
     48        1          -0.008043211   -0.007462531    0.019571537
     49        1          -0.005599154    0.009744353   -0.016921494
     50        1           0.013063483    0.011085954   -0.011788474
     51        1           0.008360128   -0.009499609    0.017090132
     52        1          -0.013556575   -0.013767253    0.014857974
     53        1          -0.009371219    0.014645438   -0.010365062
     54        1           0.009379671    0.015623359   -0.005220062
     55        1           0.023120080    0.000202503    0.006120762
     56        1          -0.012113346   -0.020681097    0.007864993
 -------------------------------------------------------------------
 Cartesian Forces:  Max     0.051889852 RMS     0.015350085
 Leave Link  716 at Sat Aug 27 00:20:10 2022, MaxMem=  209715200 cpu:       0.2
 (Enter /opt/gaussian/l103.exe)

 GradGradGradGradGradGradGradGradGradGradGradGradGradGradGradGradGradGrad
 Berny optimization.
 Internal  Forces:  Max     0.045869673 RMS     0.009236766
 Search for a local minimum.
 Step number   1 out of a maximum of  336
 All quantities printed in internal units (Hartrees-Bohrs-Radians)
 RMS Force = .92368D-02 SwitMx=.10000D-02 MixMth= 1
 Mixed Optimization -- RFO/linear search
 Second derivative matrix not updated -- first step.
 ITU=  0
     Eigenvalues ---    0.00236   0.00273   0.00399   0.00512   0.00836
     Eigenvalues ---    0.01091   0.01174   0.01337   0.01378   0.01407
     Eigenvalues ---    0.01583   0.01661   0.01722   0.01732   0.01769
     Eigenvalues ---    0.01770   0.01771   0.01845   0.01974   0.01979
     Eigenvalues ---    0.02048   0.02057   0.02059   0.02065   0.02072
     Eigenvalues ---    0.02076   0.02092   0.02096   0.02107   0.02109
     Eigenvalues ---    0.02123   0.02126   0.02129   0.02145   0.02151
     Eigenvalues ---    0.02158   0.02180   0.02183   0.02186   0.02206
     Eigenvalues ---    0.02319   0.03907   0.04060   0.04148   0.04223
     Eigenvalues ---    0.04332   0.04790   0.04914   0.05042   0.05456
     Eigenvalues ---    0.05525   0.05546   0.05700   0.06031   0.06481
[...]
 ! D158  D(28,29,30,31)          0.0708         -DE/DX =    0.0                 !
 ! D159  D(55,29,30,31)       -179.9485         -DE/DX =    0.0                 !
 ! D160  D(29,30,31,26)          0.2778         -DE/DX =    0.0                 !
 ! D161  D(29,30,31,56)       -178.635          -DE/DX =    0.0                 !
 --------------------------------------------------------------------------------
 GradGradGradGradGradGradGradGradGradGradGradGradGradGradGradGradGradGrad

 Largest change from initial coordinates is atom   36       0.098 Angstoms.
 Leave Link  103 at Sat Aug 27 01:48:02 2022, MaxMem=  209715200 cpu:       1.1
 (Enter /opt/gaussian/l202.exe)
 Stoichiometry    C25H25N5O
 Framework group  C1[X(C25H25N5O)]
 Deg. of freedom   162
 Full point group                 C1      NOp   1
 RotChk:  IX=0 Diff= 1.77D-15
 Largest Abelian subgroup         C1      NOp   1
 Largest concise Abelian subgroup C1      NOp   1
                         Standard orientation:                         
 ---------------------------------------------------------------------
 Center     Atomic      Atomic             Coordinates (Angstroms)
 Number     Number       Type             X           Y           Z
 ---------------------------------------------------------------------
      1          8           0        1.227067   -1.253583   -0.319221
      2          6           0        1.352452   -0.086594   -0.662005
      3          6           0        2.732728    0.473932   -0.982783
      4          7           0        3.760484   -0.519377   -0.905948
      5          7           0        4.345304   -0.962243   -2.056143
      6          7           0        5.221606   -1.834551   -1.777293
      7          6           0        5.252271   -2.016344   -0.404129
      8          6           0        6.043615   -2.853070    0.382184
      9          6           0        5.849259   -2.808393    1.740528
     10          6           0        4.879832   -1.951596    2.308933
     11          6           0        4.093185   -1.127660    1.540630
     12          6           0        4.302317   -1.173776    0.159677
     13          7           0        0.291406    0.769886   -0.769501
     14          6           0        0.429139    2.195758   -1.115133
     15          6           0        0.640281    3.135141    0.076252
     16          6           0        0.973063    4.572894   -0.376153
     17          6           0        0.618863    5.483002    0.825264
     18          6           0       -0.229210    4.610599    1.788808
     19          6           0       -0.575387    3.337368    0.997129
     20          6           0       -1.033394    0.252416   -0.562696
     21          6           0       -1.941188    0.251748   -1.611582
     22          6           0       -3.230164   -0.219914   -1.423030
     23          6           0       -3.636869   -0.714110   -0.185716
     24          6           0       -2.709384   -0.723982    0.855578
     25          6           0       -1.423475   -0.246288    0.671379
     26          6           0       -5.016289   -1.223284    0.016715
     27          6           0       -6.129431   -0.545738   -0.476499
     28          6           0       -7.398431   -1.059298   -0.261658
     29          6           0       -7.526685   -2.241533    0.448213
     30          7           0       -6.469456   -2.897737    0.922068
     31          6           0       -5.251223   -2.408307    0.712305
     32          1           0        2.756504    0.848477   -1.994714
     33          1           0        2.965690    1.294973   -0.316918
     34          1           0        6.768585   -3.498971   -0.070407
     35          1           0        6.432482   -3.433824    2.387023
     36          1           0        4.751263   -1.954075    3.374019
     37          1           0        3.343245   -0.502494    1.980709
     38          1           0        1.241463    2.316070   -1.818700
     39          1           0       -0.468763    2.490351   -1.639626
     40          1           0        1.463809    2.760379    0.680990
     41          1           0        2.006754    4.677803   -0.685365
     42          1           0        0.357648    4.830330   -1.234560
     43          1           0        1.513398    5.843984    1.318227
     44          1           0        0.069357    6.356705    0.497158
     45          1           0        0.351285    4.350190    2.667726
     46          1           0       -1.114826    5.126631    2.137902
     47          1           0       -1.464810    3.497739    0.392943
     48          1           0       -0.771203    2.489685    1.639233
     49          1           0       -1.636466    0.598342   -2.580077
     50          1           0       -3.910248   -0.233707   -2.252592
     51          1           0       -2.997896   -1.090533    1.821335
     52          1           0       -0.720361   -0.273843    1.478312
     53          1           0       -6.004316    0.379245   -1.005381
     54          1           0       -8.267350   -0.550718   -0.628596
     55          1           0       -8.485456   -2.675289    0.643778
     56          1           0       -4.436984   -2.988461    1.095788
 ---------------------------------------------------------------------
 Rotational constants (GHZ):      0.1898671      0.0696609      0.0569090
 Leave Link  202 at Sat Aug 27 01:48:02 2022, MaxMem=  209715200 cpu:       0.0
 (Enter /opt/gaussian/l601.exe)
 Copying SCF densities to generalized density rwf, IOpCl= 0 IROHF=0.

 **********************************************************************

            Population analysis using the SCF density.

 **********************************************************************

 Orbital symmetries:
       Occupied  (A) (A) (A) (A) (A) (A) (A) (A) (A) (A) (A) (A)
                 (A) (A) (A) (A) (A) (A) (A) (A) (A) (A) (A) (A)
                 (A) (A) (A) (A) (A) (A) (A) (A) (A) (A) (A) (A)
                 (A) (A) (A) (A) (A) (A) (A) (A) (A) (A) (A) (A)
                 (A) (A) (A) (A) (A) (A) (A) (A) (A) (A) (A) (A)
                 (A) (A) (A) (A) (A) (A) (A) (A) (A) (A) (A) (A)
                 (A) (A) (A) (A) (A) (A) (A) (A) (A) (A) (A) (A)
                 (A) (A) (A) (A) (A) (A) (A) (A) (A) (A) (A) (A)
                 (A) (A) (A) (A) (A) (A) (A) (A) (A) (A) (A) (A)
                 (A)
       Virtual   (A) (A) (A) (A) (A) (A) (A) (A) (A) (A) (A) (A)
                 (A) (A) (A) (A) (A) (A) (A) (A) (A) (A) (A) (A)
                 (A) (A) (A) (A) (A) (A) (A) (A) (A) (A) (A) (A)
                 (A) (A) (A) (A) (A) (A) (A) (A) (A) (A) (A) (A)
                 (A) (A) (A) (A) (A) (A) (A) (A) (A) (A) (A) (A)
                 (A) (A) (A) (A) (A) (A) (A) (A) (A) (A) (A) (A)
                 (A) (A) (A) (A) (A) (A) (A) (A) (A) (A) (A) (A)
                 (A) (A) (A) (A) (A) (A) (A) (A) (A) (A) (A) (A)
                 (A) (A) (A) (A) (A) (A) (A) (A) (A) (A) (A) (A)
                 (A) (A) (A) (A) (A) (A) (A) (A) (A) (A) (A) (A)
                 (A) (A) (A) (A) (A) (A) (A) (A) (A) (A) (A) (A)
                 (A) (A) (A) (A) (A) (A) (A) (A) (A) (A) (A) (A)
                 (A) (A) (A) (A) (A) (A) (A) (A) (A) (A) (A) (A)
                 (A) (A) (A) (A) (A) (A) (A) (A) (A) (A) (A) (A)
                 (A) (A) (A) (A) (A) (A) (A) (A) (A) (A) (A) (A)
                 (A) (A) (A) (A) (A) (A) (A) (A) (A) (A) (A) (A)
                 (A) (A) (A) (A) (A) (A) (A) (A) (A) (A) (A) (A)
                 (A) (A) (A) (A) (A) (A) (A) (A) (A) (A) (A) (A)
                 (A) (A) (A) (A)
 The electronic state is 1-A.
 Alpha  occ. eigenvalues --  -20.54449 -15.66347 -15.65455 -15.61478 -15.61139
 Alpha  occ. eigenvalues --  -15.57637 -11.38540 -11.31249 -11.29458 -11.29426
 Alpha  occ. eigenvalues --  -11.29345 -11.27945 -11.27928 -11.26501 -11.26483
 Alpha  occ. eigenvalues --  -11.26421 -11.26347 -11.25359 -11.25322 -11.25216
 Alpha  occ. eigenvalues --  -11.25198 -11.25182 -11.25149 -11.25125 -11.25029
 Alpha  occ. eigenvalues --  -11.24906 -11.24057 -11.23820 -11.23263 -11.23236
 Alpha  occ. eigenvalues --  -11.23104  -1.47431  -1.41756  -1.28087  -1.27881
 Alpha  occ. eigenvalues --   -1.24859  -1.17955  -1.17691  -1.14820  -1.11051
 Alpha  occ. eigenvalues --   -1.07169  -1.06288  -1.05072  -1.04002  -1.03363
 Alpha  occ. eigenvalues --   -1.02409  -0.99893  -0.98556  -0.92957  -0.89233
 Alpha  occ. eigenvalues --   -0.88763  -0.87690  -0.85205  -0.84508  -0.84352
 Alpha  occ. eigenvalues --   -0.81240  -0.80114  -0.79661  -0.77444  -0.73741
 Alpha  occ. eigenvalues --   -0.72850  -0.72211  -0.71938  -0.70595  -0.68600
 Alpha  occ. eigenvalues --   -0.68396  -0.67038  -0.66572  -0.65561  -0.65197
 Alpha  occ. eigenvalues --   -0.64347  -0.63465  -0.63128  -0.62770  -0.61981
 Alpha  occ. eigenvalues --   -0.61196  -0.60984  -0.60568  -0.59305  -0.58664
 Alpha  occ. eigenvalues --   -0.57862  -0.56682  -0.55409  -0.55176  -0.54619
 Alpha  occ. eigenvalues --   -0.53670  -0.53213  -0.52008  -0.51438  -0.50792
 Alpha  occ. eigenvalues --   -0.50502  -0.50146  -0.49432  -0.49330  -0.48354
 Alpha  occ. eigenvalues --   -0.47895  -0.46913  -0.46887  -0.44266  -0.42926
 Alpha  occ. eigenvalues --   -0.42252  -0.41145  -0.40196  -0.38554  -0.36713
 Alpha  occ. eigenvalues --   -0.35151  -0.33666  -0.32097  -0.31512
 Alpha virt. eigenvalues --    0.09547   0.09956   0.11996   0.12725   0.15581
 Alpha virt. eigenvalues --    0.15826   0.17804   0.18823   0.20734   0.21433
 Alpha virt. eigenvalues --    0.22602   0.23777   0.24136   0.24500   0.25091
 Alpha virt. eigenvalues --    0.25256   0.26723   0.27281   0.28635   0.28980
 Alpha virt. eigenvalues --    0.29160   0.29746   0.30234   0.30996   0.31286
 Alpha virt. eigenvalues --    0.31855   0.32216   0.32468   0.32819   0.33030
 Alpha virt. eigenvalues --    0.33662   0.34046   0.35465   0.35799   0.36395
 Alpha virt. eigenvalues --    0.37052   0.37519   0.37804   0.39568   0.39883
 Alpha virt. eigenvalues --    0.40492   0.40950   0.41568   0.42057   0.42303
 Alpha virt. eigenvalues --    0.43444   0.43503   0.44648   0.45545   0.46777
 Alpha virt. eigenvalues --    0.47972   0.48040   0.49119   0.49497   0.50086
 Alpha virt. eigenvalues --    0.51754   0.52209   0.52922   0.54024   0.55174
 Alpha virt. eigenvalues --    0.56476   0.58162   0.59445   0.59962   0.62313
 Alpha virt. eigenvalues --    0.64634   0.65658   0.70171   0.71319   0.72181
 Alpha virt. eigenvalues --    0.72734   0.73622   0.74366   0.74517   0.75762
 Alpha virt. eigenvalues --    0.75921   0.76957   0.77612   0.78135   0.78827
 Alpha virt. eigenvalues --    0.79109   0.79606   0.79819   0.80249   0.80624
 Alpha virt. eigenvalues --    0.81425   0.82050   0.83072   0.83219   0.83429
 Alpha virt. eigenvalues --    0.84010   0.84335   0.85010   0.85375   0.85530
 Alpha virt. eigenvalues --    0.85659   0.85889   0.86195   0.86699   0.87324
 Alpha virt. eigenvalues --    0.88124   0.88781   0.89133   0.90259   0.90466
 Alpha virt. eigenvalues --    0.90877   0.90970   0.91914   0.92313   0.92756
 Alpha virt. eigenvalues --    0.93029   0.93985   0.94178   0.94829   0.95800
 Alpha virt. eigenvalues --    0.96344   0.96966   0.97304   0.98265   0.98808
 Alpha virt. eigenvalues --    0.99465   1.00063   1.00531   1.01134   1.01743
 Alpha virt. eigenvalues --    1.02830   1.05397   1.06574   1.07858   1.08745
 Alpha virt. eigenvalues --    1.09447   1.09856   1.10701   1.11714   1.11930
 Alpha virt. eigenvalues --    1.12027   1.12620   1.13005   1.13525   1.13527
 Alpha virt. eigenvalues --    1.14254   1.14715   1.14854   1.15414   1.15624
 Alpha virt. eigenvalues --    1.15859   1.16644   1.16789   1.17742   1.18721
 Alpha virt. eigenvalues --    1.19224   1.19546   1.19791   1.20212   1.20837
 Alpha virt. eigenvalues --    1.21724   1.21748   1.22412   1.23764   1.24477
 Alpha virt. eigenvalues --    1.24640   1.25379   1.25982   1.26603   1.27125
 Alpha virt. eigenvalues --    1.27623   1.28342   1.28946   1.29443   1.30389
 Alpha virt. eigenvalues --    1.31220   1.31367   1.31579   1.33200   1.33966
 Alpha virt. eigenvalues --    1.35096   1.36294   1.36632   1.38057   1.38840
 Alpha virt. eigenvalues --    1.39162   1.41171   1.42958   1.44135   1.45300
 Alpha virt. eigenvalues --    1.45630   1.48223   1.48908   1.50616   1.51736
 Alpha virt. eigenvalues --    1.53323   1.55011   1.57150   1.58829   1.60060
 Alpha virt. eigenvalues --    1.61121   1.62448   1.63763   1.66652   1.67859
 Alpha virt. eigenvalues --    1.70295   1.71758   1.72601   1.73991   1.75625
 Alpha virt. eigenvalues --    1.78193   1.79380   1.82719   1.87563   1.90452
 Alpha virt. eigenvalues --    1.94019   2.01051   2.07299   2.10782   2.11222
 Alpha virt. eigenvalues --    2.16150   2.21177   2.25937   2.28990   2.34995
          Condensed to atoms (all electrons):
 Mulliken atomic charges:
              1
     1  O   -0.576432
     2  C    0.791859
     3  C   -0.123389
     4  N   -0.888792
     5  N    0.093096
     6  N   -0.334965
     7  C   -0.022189
     8  C   -0.078714
     9  C   -0.233519
    10  C   -0.206598
    11  C   -0.060530
    12  C    0.493401
    13  N   -0.980483
    14  C   -0.055029
    15  C   -0.171753
    16  C   -0.319129
    17  C   -0.315722
    18  C   -0.319182
    19  C   -0.296725
    20  C    0.307912
    21  C   -0.180780
    22  C   -0.202773
    23  C   -0.013345
    24  C   -0.210468
    25  C   -0.138841
    26  C   -0.091429
    27  C   -0.141132
    28  C   -0.245269
    29  C    0.058719
    30  N   -0.532619
    31  C    0.060903
    32  H    0.254404
    33  H    0.222230
    34  H    0.240407
    35  H    0.203858
    36  H    0.203921
    37  H    0.220219
    38  H    0.174415
    39  H    0.190466
    40  H    0.155837
    41  H    0.164669
    42  H    0.158954
    43  H    0.165980
    44  H    0.166822
    45  H    0.161561
    46  H    0.167121
    47  H    0.156843
    48  H    0.174360
    49  H    0.217514
    50  H    0.217200
    51  H    0.221548
    52  H    0.224492
    53  H    0.221015
    54  H    0.214099
    55  H    0.211375
    56  H    0.224604
 Sum of Mulliken atomic charges =   0.00000
 Mulliken charges with hydrogens summed into heavy atoms:
              1
     1  O   -0.576432
     2  C    0.791859
     3  C    0.353245
     4  N   -0.888792
     5  N    0.093096
     6  N   -0.334965
     7  C   -0.022189
     8  C    0.161694
     9  C   -0.029661
    10  C   -0.002677
    11  C    0.159689
    12  C    0.493401
    13  N   -0.980483
    14  C    0.309852
    15  C   -0.015915
    16  C    0.004494
    17  C    0.017079
    18  C    0.009500
    19  C    0.034478
    20  C    0.307912
    21  C    0.036735
    22  C    0.014428
    23  C   -0.013345
    24  C    0.011080
    25  C    0.085650
    26  C   -0.091429
    27  C    0.079883
    28  C   -0.031170
    29  C    0.270094
    30  N   -0.532619
    31  C    0.285507
 Sum of Mulliken charges with hydrogens summed into heavy atoms =   0.00000
 Electronic spatial extent (au):  <R**2>=          18436.8192
 Charge=              0.0000 electrons
 Dipole moment (field-independent basis, Debye):
    X=             -2.2654    Y=              7.8770    Z=              1.9400  Tot=              8.4227
 Quadrupole moment (field-independent basis, Debye-Ang):
   XX=           -186.5636   YY=           -190.5864   ZZ=           -183.5784
   XY=             -7.5691   XZ=             30.2650   YZ=             -9.6994
 Traceless Quadrupole moment (field-independent basis, Debye-Ang):
   XX=              0.3459   YY=             -3.6769   ZZ=              3.3310
   XY=             -7.5691   XZ=             30.2650   YZ=             -9.6994
 Octapole moment (field-independent basis, Debye-Ang**2):
  XXX=           -157.9940  YYY=             70.9412  ZZZ=             26.1971  XYY=             84.4896
  XXY=             69.4189  XXZ=             36.1912  XZZ=            -15.6497  YZZ=             20.2691
  YYZ=              1.5086  XYZ=            -59.9566
 Hexadecapole moment (field-independent basis, Debye-Ang**3):
 XXXX=         -17084.1562 YYYY=          -6240.1616 ZZZZ=          -1605.7249 XXXY=           -605.9920
 XXXZ=            967.8204 YYYX=           -351.7097 YYYZ=             16.1003 ZZZX=            218.6683
 ZZZY=            -84.3322 XXYY=          -4269.3121 XXZZ=          -3551.0566 YYZZ=          -1323.9426
 XXYZ=           -140.2754 YYXZ=            165.3360 ZZXY=            -22.5995
 N-N= 2.814088593892D+03 E-N=-8.680048078059D+03  KE= 1.309251312284D+03
 No NMR shielding tensors so no spin-rotation constants.
 Leave Link  601 at Sat Aug 27 01:48:02 2022, MaxMem=  209715200 cpu:       1.4
 (Enter /opt/gaussian/l9999.exe)
 1\1\GINC-LQCAPF-6\FOpt\RHF\6-31G\C25H25N5O1\LQCAPF-6\27-Aug-2022\0\\#p
  opt hf/6-31G\\Mol25.out\\0,1\O,21.3007446863,-6.9777723819,-0.4155964
 473\C,21.8223626959,-7.9870534076,0.0364582025\C,23.2755216279,-7.9594
 036428,0.4945097187\N,23.8575289986,-6.6553258523,0.3970492215\N,24.12
 28276438,-5.9579122958,1.5391195721\N,24.6295196354,-4.8347899986,1.24
 17280285\C,24.7181472233,-4.7338576225,-0.1372301629\C,25.2073805444,-
 3.7049754128,-0.941393266\C,25.1721436835,-3.8979724619,-2.3002090923\
 C,24.6531024964,-5.0907345179,-2.8523764904\C,24.1650845944,-6.1070532
 59,-2.0669404727\C,24.211289087,-5.9058005494,-0.6848206583\N,21.15542
 0009,-9.1758335614,0.150132582\C,21.7853444701,-10.4190951955,0.628711
 8541\C,22.4442691228,-11.2733639122,-0.4586982027\C,23.2485116892,-12.
 447088207,0.1397287819\C,23.3760765243,-13.4905565819,-0.9969586401\C,
 22.3567823404,-13.0642040919,-2.0869108721\C,21.4854422503,-11.9762702
 161,-1.4350858979\C,19.7589050594,-9.2155337807,-0.1872246541\C,18.823
 335177,-9.5012174447,0.796313033\C,17.4753419113,-9.5684737253,0.48347
 62916\C,17.0306612474,-9.338367131,-0.8164836823\C,17.9797214565,-9.03
 50139142,-1.7921277384\C,19.3275586641,-8.9747415061,-1.483283228\C,15
 .5864861045,-9.4063042492,-1.1523064253\C,14.7682088177,-10.4278168662
 ,-0.6744487428\C,13.4253690148,-10.4503003043,-1.0158233536\C,12.92976
 01886,-9.4490304578,-1.8342831352\N,13.7026778924,-8.4674283426,-2.294
 642302\C,14.9901222511,-8.4423359886,-1.9637461657\H,23.3432867008,-8.
 2380584795,1.5349965699\H,23.8609253685,-8.6661249424,-0.0796011841\H,
 25.5910237709,-2.8066552019,-0.5015675153\H,25.5356940592,-3.135428851
 5,-2.9602290524\H,24.633361556,-5.1983679628,-3.919601068\H,23.7494618
 204,-6.9950523192,-2.4977852196\H,22.5136775385,-10.1800408682,1.39142
 82531\H,21.0188489769,-11.0033974524,1.1177740598\H,23.1196012186,-10.
 6480504623,-1.0394408509\H,24.2121200867,-12.1319291657,0.5234854174\H
 ,22.6972822055,-12.8702736065,0.9757495763\H,24.3826226011,-13.5105888
 621,-1.3969275146\H,23.1666375296,-14.4875022826,-0.6292611031\H,22.87
 66164425,-12.6527673025,-2.9458494656\H,21.7665592157,-13.8980621008,-
 2.4457825582\H,20.6689143213,-12.428946078,-0.8781297986\H,21.04678089
 4,-11.3055641991,-2.1609904931\H,19.1437384648,-9.6494067699,1.8093999
 913\H,16.7653586276,-9.7677312542,1.2626420742\H,17.6665171381,-8.8620
 72069,-2.803205501\H,20.0411367516,-8.7272577846,-2.2421172757\H,15.18
 1297214,-11.2032811693,-0.0588376272\H,12.7806874995,-11.2299848179,-0
 .6625597968\H,11.9011414551,-9.4257122367,-2.1292922395\H,15.559061435
 6,-7.6184168817,-2.343335334\\Version=EM64L-G09RevC.01\State=1-A\HF=-1
 307.7845429\RMSD=4.246e-09\RMSF=9.441e-07\Dipole=0.4130463,-3.2428564,
 -0.5424716\Quadrupole=-0.6618208,-0.0625828,0.7244036,5.4014941,-18.75
 74736,-14.6735115\PG=C01 [X(C25H25N5O1)]\\@



 IN THIS SHORT LIFE

 THAT ONLY LASTS AN HOUR

 HOW MUCH, HOW LITTLE, IS WITHIN OUR POWER....


 EMILY DICKINSON BOLTS OF MELODY NO. 521
 Job cpu time:  0 days 11 hours 53 minutes 34.9 seconds.
 File lengths (MBytes):  RWF=     74 Int=      0 D2E=      0 Chk=     12 Scr=      1
 Normal termination of Gaussian 09 at Sat Aug 27 01:48:02 2022.
