 Entering Gaussian System, Link 0=g09
 Input=Mol24.gjf
 Output=Mol24.log
 Initial command:
 /opt/gaussian/l1.exe /home/scr/lqcapf-6/Gau-270641.inp -scrdir=/home/scr/lqcapf-6/
 Entering Link 1 = /opt/gaussian/l1.exe PID=    270645.
  
 Copyright (c) 1988,1990,1992,1993,1995,1998,2003,2009,2011,
            Gaussian, Inc.  All Rights Reserved.
  
 This is part of the Gaussian(R) 09 program.  It is based on
 the Gaussian(R) 03 system (copyright 2003, Gaussian, Inc.),
 the Gaussian(R) 98 system (copyright 1998, Gaussian, Inc.),
 the Gaussian(R) 94 system (copyright 1995, Gaussian, Inc.),
 the Gaussian 92(TM) system (copyright 1992, Gaussian, Inc.),
 the Gaussian 90(TM) system (copyright 1990, Gaussian, Inc.),
 the Gaussian 88(TM) system (copyright 1988, Gaussian, Inc.),
 the Gaussian 86(TM) system (copyright 1986, Carnegie Mellon
 University), and the Gaussian 82(TM) system (copyright 1983,
 Carnegie Mellon University). Gaussian is a federally registered
 trademark of Gaussian, Inc.
  
 This software contains proprietary and confidential information,
 including trade secrets, belonging to Gaussian, Inc.
  
 This software is provided under written license and may be
 used, copied, transmitted, or stored only in accord with that
 written license.
  
 The following legend is applicable only to US Government
 contracts under FAR:
  
                    RESTRICTED RIGHTS LEGEND
  
 Use, reproduction and disclosure by the US Government is
 subject to restrictions as set forth in subparagraphs (a)
 and (c) of the Commercial Computer Software - Restricted
 Rights clause in FAR 52.227-19.
  
 Gaussian, Inc.
 340 Quinnipiac St., Bldg. 40, Wallingford CT 06492
  
  
 ---------------------------------------------------------------
 Warning -- This program may not be used in any manner that
 competes with the business of Gaussian, Inc. or will provide
 assistance to any competitor of Gaussian, Inc.  The licensee
 of this program is prohibited from giving any competitor of
 Gaussian, Inc. access to this program.  By using this program,
 the user acknowledges that Gaussian, Inc. is engaged in the
 business of creating and licensing software in the field of
 computational chemistry and represents and warrants to the
 licensee that it is not a competitor of Gaussian, Inc. and that
 it will not use this program in any manner prohibited above.
 ---------------------------------------------------------------
  

 Cite this work as:
 Gaussian 09, Revision C.01,
 M. J. Frisch, G. W. Trucks, H. B. Schlegel, G. E. Scuseria, 
 M. A. Robb, J. R. Cheeseman, G. Scalmani, V. Barone, B. Mennucci, 
 G. A. Petersson, H. Nakatsuji, M. Caricato, X. Li, H. P. Hratchian, 
 A. F. Izmaylov, J. Bloino, G. Zheng, J. L. Sonnenberg, M. Hada, 
 M. Ehara, K. Toyota, R. Fukuda, J. Hasegawa, M. Ishida, T. Nakajima, 
 Y. Honda, O. Kitao, H. Nakai, T. Vreven, J. A. Montgomery, Jr., 
 J. E. Peralta, F. Ogliaro, M. Bearpark, J. J. Heyd, E. Brothers, 
 K. N. Kudin, V. N. Staroverov, T. Keith, R. Kobayashi, J. Normand, 
 K. Raghavachari, A. Rendell, J. C. Burant, S. S. Iyengar, J. Tomasi, 
 M. Cossi, N. Rega, J. M. Millam, M. Klene, J. E. Knox, J. B. Cross, 
 V. Bakken, C. Adamo, J. Jaramillo, R. Gomperts, R. E. Stratmann, 
 O. Yazyev, A. J. Austin, R. Cammi, C. Pomelli, J. W. Ochterski, 
 R. L. Martin, K. Morokuma, V. G. Zakrzewski, G. A. Voth, 
 P. Salvador, J. J. Dannenberg, S. Dapprich, A. D. Daniels, 
 O. Farkas, J. B. Foresman, J. V. Ortiz, J. Cioslowski, 
 and D. J. Fox, Gaussian, Inc., Wallingford CT, 2010.
 
 ******************************************
 Gaussian 09:  EM64L-G09RevC.01 23-Sep-2011
                26-Aug-2022 
 ******************************************
 %nprocshared=8
 Will use up to    8 processors via shared memory.
 %mem=1600MB
 ---------------
 #p opt hf/6-31G
 ---------------
 1/18=20,19=15,38=1/1,3;
 2/9=110,12=2,17=6,18=5,40=1/2;
 3/5=1,6=6,11=9,16=1,25=1,30=1,71=1/1,2,3;
 4//1;
 5/5=2,38=5/2;
 6/7=2,8=2,9=2,10=2,28=1/1;
 7//1,2,3,16;
 1/18=20,19=15/3(2);
 2/9=110/2;
 99//99;
 2/9=110/2;
 3/5=1,6=6,11=9,16=1,25=1,30=1,71=1/1,2,3;
 4/5=5,16=3/1;
 5/5=2,38=5/2;
 7//1,2,3,16;
 1/18=20,19=15/3(-5);
 2/9=110/2;
 6/7=2,8=2,9=2,10=2,19=2,28=1/1;
 99/9=1/99;
 Leave Link    1 at Fri Aug 26 23:46:58 2022, MaxMem=  209715200 cpu:       0.1
 (Enter /opt/gaussian/l101.exe)
 ---------
 Mol24.out
 ---------
 Charge =  0 Multiplicity = 1
 Symbolic Z-Matrix:
 O                     21.4822  -7.1347   -1.4185 
 C                     22.0187  -8.0194   -0.7285 
 C                     23.5378  -7.9792   -0.4728 
 N                     24.0492  -6.6624   -0.1927 
 N                     23.8176  -5.9898    0.9823 
 N                     24.1117  -4.772     0.8992 
 C                     24.5341  -4.4746   -0.4365 
 C                     24.9673  -3.3086   -1.068 
 C                     25.3114  -3.3975   -2.4124 
 C                     25.2358  -4.6099   -3.1187 
 C                     24.8167  -5.7913   -2.5169 
 C                     24.4614  -5.7223   -1.1689 
 N                     21.2702  -9.0636   -0.1999 
 C                     21.8325  -10.1688   0.5412 
 C                     22.6796  -11.1379  -0.2685 
 C                     23.0463  -12.4204   0.5199 
 C                     22.2978  -13.2769  -0.5219 
 C                     21.9172  -12.0019  -1.3016 
 C                     19.86    -9.0988   -0.4226 
 C                     19.3292  -9.5165   -1.6587 
 C                     17.9523  -9.5499   -1.8549 
 C                     17.0722  -9.1694   -0.8334 
 C                     17.601   -8.7552    0.3973 
 C                     18.9749  -8.718     0.6068 
 C                     15.6307  -9.1936   -1.0446 
 C                     15.0075  -10.2211  -1.7678 
 C                     13.6224  -10.1961  -1.9292 
 C                     12.8967  -9.1352   -1.3589 
 N                     13.4726  -8.1336   -0.6651 
 C                     14.8083  -8.169    -0.5175 
 H                     23.8363  -8.6478    0.3835 
 H                     24.0322  -8.3452   -1.4186 
 H                     25.03    -2.3584   -0.5189 
 H                     25.6497  -2.4943   -2.9426 
 H                     25.513   -4.6226   -4.1845 
 H                     24.7561  -6.7314   -3.08 
 H                     22.4598  -9.7662    1.3896 
 H                     20.9774  -10.7439   1.004 
 H                     23.5677  -10.6271  -0.7076 
 H                     24.1378  -12.6158   0.5718 
 H                     22.6108  -12.4648   1.5407 
 H                     22.9513  -13.9752  -1.0857 
 H                     21.4286  -13.8324  -0.1113 
 H                     20.8258  -11.797   -1.3418 
 H                     22.3425  -11.9527  -2.3261 
 H                     20.0009  -9.8037   -2.4826 
 H                     17.5518  -9.8663   -2.8302 
 H                     16.9208  -8.4547    1.2095 
 H                     19.3649  -8.3798    1.5796 
 H                     15.6052  -11.0393  -2.1956 
 H                     13.1038  -10.9861  -2.4876 
 H                     11.7981  -9.079    -1.4601 
 H                     15.2541  -7.3285    0.0457 
 
 NAtoms=     53 NQM=        0 NQMF=       0 NMMI=     53 NMMIF=      0
                NMic=       0 NMicF=      0.
                    Isotopes and Nuclear Properties:
 (Nuclear quadrupole moments (NQMom) in fm**2, nuclear magnetic moments (NMagM)
  in nuclear magnetons)

  Atom         1           2           3           4           5           6           7           8           9          10
 IAtWgt=          16          12          12          14          14          14          12          12          12          12
 AtmWgt=  15.9949146  12.0000000  12.0000000  14.0030740  14.0030740  14.0030740  12.0000000  12.0000000  12.0000000  12.0000000
 NucSpn=           0           0           0           2           2           2           0           0           0           0
 AtZEff=   0.0000000   0.0000000   0.0000000   0.0000000   0.0000000   0.0000000   0.0000000   0.0000000   0.0000000   0.0000000
 NQMom=    0.0000000   0.0000000   0.0000000   2.0440000   2.0440000   2.0440000   0.0000000   0.0000000   0.0000000   0.0000000
 NMagM=    0.0000000   0.0000000   0.0000000   0.4037610   0.4037610   0.4037610   0.0000000   0.0000000   0.0000000   0.0000000

  Atom        11          12          13          14          15          16          17          18          19          20
 IAtWgt=          12          12          14          12          12          12          12          12          12          12
 AtmWgt=  12.0000000  12.0000000  14.0030740  12.0000000  12.0000000  12.0000000  12.0000000  12.0000000  12.0000000  12.0000000
 NucSpn=           0           0           2           0           0           0           0           0           0           0
 AtZEff=   0.0000000   0.0000000   0.0000000   0.0000000   0.0000000   0.0000000   0.0000000   0.0000000   0.0000000   0.0000000
 NQMom=    0.0000000   0.0000000   2.0440000   0.0000000   0.0000000   0.0000000   0.0000000   0.0000000   0.0000000   0.0000000
 NMagM=    0.0000000   0.0000000   0.4037610   0.0000000   0.0000000   0.0000000   0.0000000   0.0000000   0.0000000   0.0000000

  Atom        21          22          23          24          25          26          27          28          29          30
 IAtWgt=          12          12          12          12          12          12          12          12          14          12
 AtmWgt=  12.0000000  12.0000000  12.0000000  12.0000000  12.0000000  12.0000000  12.0000000  12.0000000  14.0030740  12.0000000
 NucSpn=           0           0           0           0           0           0           0           0           2           0
 AtZEff=   0.0000000   0.0000000   0.0000000   0.0000000   0.0000000   0.0000000   0.0000000   0.0000000   0.0000000   0.0000000
 NQMom=    0.0000000   0.0000000   0.0000000   0.0000000   0.0000000   0.0000000   0.0000000   0.0000000   2.0440000   0.0000000
 NMagM=    0.0000000   0.0000000   0.0000000   0.0000000   0.0000000   0.0000000   0.0000000   0.0000000   0.4037610   0.0000000

  Atom        31          32          33          34          35          36          37          38          39          40
 IAtWgt=           1           1           1           1           1           1           1           1           1           1
 AtmWgt=   1.0078250   1.0078250   1.0078250   1.0078250   1.0078250   1.0078250   1.0078250   1.0078250   1.0078250   1.0078250
 NucSpn=           1           1           1           1           1           1           1           1           1           1
 AtZEff=   0.0000000   0.0000000   0.0000000   0.0000000   0.0000000   0.0000000   0.0000000   0.0000000   0.0000000   0.0000000
 NQMom=    0.0000000   0.0000000   0.0000000   0.0000000   0.0000000   0.0000000   0.0000000   0.0000000   0.0000000   0.0000000
 NMagM=    2.7928460   2.7928460   2.7928460   2.7928460   2.7928460   2.7928460   2.7928460   2.7928460   2.7928460   2.7928460

  Atom        41          42          43          44          45          46          47          48          49          50
 IAtWgt=           1           1           1           1           1           1           1           1           1           1
 AtmWgt=   1.0078250   1.0078250   1.0078250   1.0078250   1.0078250   1.0078250   1.0078250   1.0078250   1.0078250   1.0078250
 NucSpn=           1           1           1           1           1           1           1           1           1           1
 AtZEff=   0.0000000   0.0000000   0.0000000   0.0000000   0.0000000   0.0000000   0.0000000   0.0000000   0.0000000   0.0000000
 NQMom=    0.0000000   0.0000000   0.0000000   0.0000000   0.0000000   0.0000000   0.0000000   0.0000000   0.0000000   0.0000000
 NMagM=    2.7928460   2.7928460   2.7928460   2.7928460   2.7928460   2.7928460   2.7928460   2.7928460   2.7928460   2.7928460

  Atom        51          52          53
 IAtWgt=           1           1           1
 AtmWgt=   1.0078250   1.0078250   1.0078250
 NucSpn=           1           1           1
 AtZEff=   0.0000000   0.0000000   0.0000000
 NQMom=    0.0000000   0.0000000   0.0000000
 NMagM=    2.7928460   2.7928460   2.7928460
 Leave Link  101 at Fri Aug 26 23:46:58 2022, MaxMem=  209715200 cpu:       0.7
 (Enter /opt/gaussian/l103.exe)

 GradGradGradGradGradGradGradGradGradGradGradGradGradGradGradGradGradGrad
 Berny optimization.
 Initialization pass.
                           ----------------------------
                           !    Initial Parameters    !
                           ! (Angstroms and Degrees)  !
 --------------------------                            --------------------------
 ! Name  Definition              Value          Derivative Info.                !
 --------------------------------------------------------------------------------
 ! R1    R(1,2)                  1.2436         estimate D2E/DX2                !
 ! R2    R(2,3)                  1.541          estimate D2E/DX2                !
 ! R3    R(2,13)                 1.3893         estimate D2E/DX2                !
 ! R4    R(3,4)                  1.4401         estimate D2E/DX2                !
 ! R5    R(3,31)                 1.1267         estimate D2E/DX2                !
 ! R6    R(3,32)                 1.1282         estimate D2E/DX2                !
 ! R7    R(4,5)                  1.3736         estimate D2E/DX2                !
 ! R8    R(4,12)                 1.4166         estimate D2E/DX2                !
 ! R9    R(5,6)                  1.2556         estimate D2E/DX2                !
 ! R10   R(6,7)                  1.4321         estimate D2E/DX2                !
 ! R11   R(7,8)                  1.395          estimate D2E/DX2                !
 ! R12   R(7,12)                 1.4486         estimate D2E/DX2                !
 ! R13   R(8,9)                  1.3906         estimate D2E/DX2                !
 ! R14   R(8,33)                 1.0992         estimate D2E/DX2                !
 ! R15   R(9,10)                 1.4052         estimate D2E/DX2                !
 ! R16   R(9,34)                 1.1006         estimate D2E/DX2                !
 ! R17   R(10,11)                1.3905         estimate D2E/DX2                !
 ! R18   R(10,35)                1.1013         estimate D2E/DX2                !
 ! R19   R(11,12)                1.3957         estimate D2E/DX2                !
 ! R20   R(11,36)                1.0975         estimate D2E/DX2                !
 ! R21   R(13,14)                1.4446         estimate D2E/DX2                !
 ! R22   R(13,19)                1.4281         estimate D2E/DX2                !
 ! R23   R(14,15)                1.5206         estimate D2E/DX2                !
 ! R24   R(14,37)                1.1293         estimate D2E/DX2                !
 ! R25   R(14,38)                1.1297         estimate D2E/DX2                !
 ! R26   R(15,16)                1.5495         estimate D2E/DX2                !
 ! R27   R(15,18)                1.5476         estimate D2E/DX2                !
 ! R28   R(15,39)                1.1147         estimate D2E/DX2                !
 ! R29   R(16,17)                1.5425         estimate D2E/DX2                !
 ! R30   R(16,40)                1.1101         estimate D2E/DX2                !
 ! R31   R(16,41)                1.1107         estimate D2E/DX2                !
 ! R32   R(17,18)                1.5422         estimate D2E/DX2                !
 ! R33   R(17,42)                1.1102         estimate D2E/DX2                !
 ! R34   R(17,43)                1.1103         estimate D2E/DX2                !
 ! R35   R(18,44)                1.1112         estimate D2E/DX2                !
 ! R36   R(18,45)                1.1104         estimate D2E/DX2                !
 ! R37   R(19,20)                1.4086         estimate D2E/DX2                !
 ! R38   R(19,24)                1.41           estimate D2E/DX2                !
 ! R39   R(20,21)                1.3912         estimate D2E/DX2                !
 ! R40   R(20,46)                1.1011         estimate D2E/DX2                !
 ! R41   R(21,22)                1.401          estimate D2E/DX2                !
 ! R42   R(21,47)                1.1008         estimate D2E/DX2                !
 ! R43   R(22,23)                1.4021         estimate D2E/DX2                !
 ! R44   R(22,25)                1.4571         estimate D2E/DX2                !
 ! R45   R(23,24)                1.3903         estimate D2E/DX2                !
 ! R46   R(23,48)                1.1012         estimate D2E/DX2                !
 ! R47   R(24,49)                1.1013         estimate D2E/DX2                !
 ! R48   R(25,26)                1.4026         estimate D2E/DX2                !
 ! R49   R(25,30)                1.4156         estimate D2E/DX2                !
 ! R50   R(26,27)                1.3947         estimate D2E/DX2                !
 ! R51   R(26,50)                1.0999         estimate D2E/DX2                !
 ! R52   R(27,28)                1.4062         estimate D2E/DX2                !
 ! R53   R(27,51)                1.0977         estimate D2E/DX2                !
 ! R54   R(28,29)                1.3477         estimate D2E/DX2                !
 ! R55   R(28,52)                1.1047         estimate D2E/DX2                !
 ! R56   R(29,30)                1.3443         estimate D2E/DX2                !
 ! R57   R(30,53)                1.1056         estimate D2E/DX2                !
 ! A1    A(1,2,3)              119.9189         estimate D2E/DX2                !
 ! A2    A(1,2,13)             120.8888         estimate D2E/DX2                !
 ! A3    A(3,2,13)             119.1827         estimate D2E/DX2                !
 ! A4    A(2,3,4)              113.9657         estimate D2E/DX2                !
 ! A5    A(2,3,31)             111.8272         estimate D2E/DX2                !
 ! A6    A(2,3,32)             106.5239         estimate D2E/DX2                !
 ! A7    A(4,3,31)             107.5001         estimate D2E/DX2                !
 ! A8    A(4,3,32)             107.7014         estimate D2E/DX2                !
 ! A9    A(31,3,32)            109.1792         estimate D2E/DX2                !
 ! A10   A(3,4,5)              123.6592         estimate D2E/DX2                !
 ! A11   A(3,4,12)             125.1777         estimate D2E/DX2                !
 ! A12   A(5,4,12)             108.2765         estimate D2E/DX2                !
 ! A13   A(4,5,6)              112.2617         estimate D2E/DX2                !
 ! A14   A(5,6,7)              109.4045         estimate D2E/DX2                !
 ! A15   A(6,7,8)              133.4231         estimate D2E/DX2                !
 ! A16   A(6,7,12)             106.134          estimate D2E/DX2                !
 ! A17   A(8,7,12)             120.4398         estimate D2E/DX2                !
 ! A18   A(7,8,9)              117.4557         estimate D2E/DX2                !
 ! A19   A(7,8,33)             120.9374         estimate D2E/DX2                !
 ! A20   A(9,8,33)             121.6068         estimate D2E/DX2                !
 ! A21   A(8,9,10)             121.8569         estimate D2E/DX2                !
 ! A22   A(8,9,34)             119.2968         estimate D2E/DX2                !
 ! A23   A(10,9,34)            118.846          estimate D2E/DX2                !
 ! A24   A(9,10,11)            122.123          estimate D2E/DX2                !
 ! A25   A(9,10,35)            118.8709         estimate D2E/DX2                !
 ! A26   A(11,10,35)           119.0054         estimate D2E/DX2                !
 ! A27   A(10,11,12)           116.9176         estimate D2E/DX2                !
 ! A28   A(10,11,36)           121.4899         estimate D2E/DX2                !
 ! A29   A(12,11,36)           121.5879         estimate D2E/DX2                !
 ! A30   A(4,12,7)             103.7563         estimate D2E/DX2                !
 ! A31   A(4,12,11)            134.977          estimate D2E/DX2                !
 ! A32   A(7,12,11)            121.2049         estimate D2E/DX2                !
 ! A33   A(2,13,14)            124.0916         estimate D2E/DX2                !
 ! A34   A(2,13,19)            119.4204         estimate D2E/DX2                !
 ! A35   A(14,13,19)           116.4555         estimate D2E/DX2                !
 ! A36   A(13,14,15)           115.546          estimate D2E/DX2                !
 ! A37   A(13,14,37)           109.2002         estimate D2E/DX2                !
 ! A38   A(13,14,38)           107.7592         estimate D2E/DX2                !
 ! A39   A(15,14,37)           108.5287         estimate D2E/DX2                !
 ! A40   A(15,14,38)           108.3836         estimate D2E/DX2                !
 ! A41   A(37,14,38)           107.1084         estimate D2E/DX2                !
 ! A42   A(14,15,16)           112.8548         estimate D2E/DX2                !
 ! A43   A(14,15,18)           115.9009         estimate D2E/DX2                !
 ! A44   A(14,15,39)           111.1958         estimate D2E/DX2                !
 ! A45   A(16,15,18)            89.6652         estimate D2E/DX2                !
 ! A46   A(16,15,39)           113.0282         estimate D2E/DX2                !
 ! A47   A(18,15,39)           112.6671         estimate D2E/DX2                !
 ! A48   A(15,16,17)            90.0631         estimate D2E/DX2                !
 ! A49   A(15,16,40)           113.7152         estimate D2E/DX2                !
 ! A50   A(15,16,41)           114.0747         estimate D2E/DX2                !
 ! A51   A(17,16,40)           114.2665         estimate D2E/DX2                !
 ! A52   A(17,16,41)           114.0967         estimate D2E/DX2                !
 ! A53   A(40,16,41)           109.6047         estimate D2E/DX2                !
 ! A54   A(16,17,18)            90.1236         estimate D2E/DX2                !
 ! A55   A(16,17,42)           113.9927         estimate D2E/DX2                !
 ! A56   A(16,17,43)           114.0757         estimate D2E/DX2                !
 ! A57   A(18,17,42)           114.112          estimate D2E/DX2                !
 ! A58   A(18,17,43)           114.0422         estimate D2E/DX2                !
 ! A59   A(42,17,43)           109.5077         estimate D2E/DX2                !
 ! A60   A(15,18,17)            90.1422         estimate D2E/DX2                !
 ! A61   A(15,18,44)           113.8952         estimate D2E/DX2                !
 ! A62   A(15,18,45)           113.7347         estimate D2E/DX2                !
 ! A63   A(17,18,44)           114.4016         estimate D2E/DX2                !
 ! A64   A(17,18,45)           114.1159         estimate D2E/DX2                !
 ! A65   A(44,18,45)           109.5516         estimate D2E/DX2                !
 ! A66   A(13,19,20)           121.0813         estimate D2E/DX2                !
 ! A67   A(13,19,24)           119.9575         estimate D2E/DX2                !
 ! A68   A(20,19,24)           118.9605         estimate D2E/DX2                !
 ! A69   A(19,20,21)           120.2536         estimate D2E/DX2                !
 ! A70   A(19,20,46)           120.2701         estimate D2E/DX2                !
 ! A71   A(21,20,46)           119.4691         estimate D2E/DX2                !
 ! A72   A(20,21,22)           120.8227         estimate D2E/DX2                !
 ! A73   A(20,21,47)           119.4684         estimate D2E/DX2                !
 ! A74   A(22,21,47)           119.7035         estimate D2E/DX2                !
 ! A75   A(21,22,23)           118.9016         estimate D2E/DX2                !
 ! A76   A(21,22,25)           120.7489         estimate D2E/DX2                !
 ! A77   A(23,22,25)           120.3483         estimate D2E/DX2                !
 ! A78   A(22,23,24)           120.8563         estimate D2E/DX2                !
 ! A79   A(22,23,48)           119.6736         estimate D2E/DX2                !
 ! A80   A(24,23,48)           119.4701         estimate D2E/DX2                !
 ! A81   A(19,24,23)           120.2052         estimate D2E/DX2                !
 ! A82   A(19,24,49)           120.3671         estimate D2E/DX2                !
 ! A83   A(23,24,49)           119.4252         estimate D2E/DX2                !
 ! A84   A(22,25,26)           121.7682         estimate D2E/DX2                !
 ! A85   A(22,25,30)           120.5799         estimate D2E/DX2                !
 ! A86   A(26,25,30)           117.6518         estimate D2E/DX2                !
 ! A87   A(25,26,27)           119.1971         estimate D2E/DX2                !
 ! A88   A(25,26,50)           120.27           estimate D2E/DX2                !
 ! A89   A(27,26,50)           120.5316         estimate D2E/DX2                !
 ! A90   A(26,27,28)           118.6274         estimate D2E/DX2                !
 ! A91   A(26,27,51)           121.0094         estimate D2E/DX2                !
 ! A92   A(28,27,51)           120.3631         estimate D2E/DX2                !
 ! A93   A(27,28,29)           123.2961         estimate D2E/DX2                !
 ! A94   A(27,28,52)           120.9614         estimate D2E/DX2                !
 ! A95   A(29,28,52)           115.7426         estimate D2E/DX2                !
 ! A96   A(28,29,30)           117.4872         estimate D2E/DX2                !
 ! A97   A(25,30,29)           123.7389         estimate D2E/DX2                !
 ! A98   A(25,30,53)           120.3749         estimate D2E/DX2                !
 ! A99   A(29,30,53)           115.884          estimate D2E/DX2                !
 ! D1    D(1,2,3,4)             41.6334         estimate D2E/DX2                !
 ! D2    D(1,2,3,31)           163.81           estimate D2E/DX2                !
 ! D3    D(1,2,3,32)           -76.9834         estimate D2E/DX2                !
 ! D4    D(13,2,3,4)          -139.4861         estimate D2E/DX2                !
 ! D5    D(13,2,3,31)          -17.3096         estimate D2E/DX2                !
 ! D6    D(13,2,3,32)          101.8971         estimate D2E/DX2                !
 ! D7    D(1,2,13,14)          176.1056         estimate D2E/DX2                !
 ! D8    D(1,2,13,19)           -1.7452         estimate D2E/DX2                !
 ! D9    D(3,2,13,14)           -2.7637         estimate D2E/DX2                !
 ! D10   D(3,2,13,19)          179.3855         estimate D2E/DX2                !
 ! D11   D(2,3,4,5)             71.8737         estimate D2E/DX2                !
 ! D12   D(2,3,4,12)           -86.6076         estimate D2E/DX2                !
 ! D13   D(31,3,4,5)           -52.6529         estimate D2E/DX2                !
 ! D14   D(31,3,4,12)          148.8658         estimate D2E/DX2                !
 ! D15   D(32,3,4,5)          -170.1834         estimate D2E/DX2                !
 ! D16   D(32,3,4,12)           31.3353         estimate D2E/DX2                !
 ! D17   D(3,4,5,6)           -165.9312         estimate D2E/DX2                !
 ! D18   D(12,4,5,6)            -4.3369         estimate D2E/DX2                !
 ! D19   D(3,4,12,7)           164.9574         estimate D2E/DX2                !
 ! D20   D(3,4,12,11)          -18.0127         estimate D2E/DX2                !
 ! D21   D(5,4,12,7)             3.7129         estimate D2E/DX2                !
 ! D22   D(5,4,12,11)         -179.2573         estimate D2E/DX2                !
 ! D23   D(4,5,6,7)              2.9237         estimate D2E/DX2                !
 ! D24   D(5,6,7,8)           -179.7591         estimate D2E/DX2                !
 ! D25   D(5,6,7,12)            -0.4174         estimate D2E/DX2                !
 ! D26   D(6,7,8,9)            179.6776         estimate D2E/DX2                !
 ! D27   D(6,7,8,33)            -0.4512         estimate D2E/DX2                !
 ! D28   D(12,7,8,9)             0.4111         estimate D2E/DX2                !
 ! D29   D(12,7,8,33)         -179.7177         estimate D2E/DX2                !
 ! D30   D(6,7,12,4)            -2.0642         estimate D2E/DX2                !
 ! D31   D(6,7,12,11)         -179.6081         estimate D2E/DX2                !
 ! D32   D(8,7,12,4)           177.3813         estimate D2E/DX2                !
 ! D33   D(8,7,12,11)           -0.1626         estimate D2E/DX2                !
 ! D34   D(7,8,9,10)            -0.2595         estimate D2E/DX2                !
 ! D35   D(7,8,9,34)           179.5284         estimate D2E/DX2                !
 ! D36   D(33,8,9,10)          179.8702         estimate D2E/DX2                !
 ! D37   D(33,8,9,34)           -0.3418         estimate D2E/DX2                !
 ! D38   D(8,9,10,11)           -0.1615         estimate D2E/DX2                !
 ! D39   D(8,9,10,35)          179.5344         estimate D2E/DX2                !
 ! D40   D(34,9,10,11)        -179.9504         estimate D2E/DX2                !
 ! D41   D(34,9,10,35)          -0.2545         estimate D2E/DX2                !
 ! D42   D(9,10,11,12)           0.4096         estimate D2E/DX2                !
 ! D43   D(9,10,11,36)         179.6464         estimate D2E/DX2                !
 ! D44   D(35,10,11,12)       -179.2859         estimate D2E/DX2                !
 ! D45   D(35,10,11,36)         -0.0492         estimate D2E/DX2                !
 ! D46   D(10,11,12,4)        -176.8751         estimate D2E/DX2                !
 ! D47   D(10,11,12,7)          -0.2485         estimate D2E/DX2                !
 ! D48   D(36,11,12,4)           3.8889         estimate D2E/DX2                !
 ! D49   D(36,11,12,7)        -179.4844         estimate D2E/DX2                !
 ! D50   D(2,13,14,15)         -69.1906         estimate D2E/DX2                !
 ! D51   D(2,13,14,37)          53.4524         estimate D2E/DX2                !
 ! D52   D(2,13,14,38)         169.4689         estimate D2E/DX2                !
 ! D53   D(19,13,14,15)        108.7184         estimate D2E/DX2                !
 ! D54   D(19,13,14,37)       -128.6385         estimate D2E/DX2                !
 ! D55   D(19,13,14,38)        -12.6221         estimate D2E/DX2                !
 ! D56   D(2,13,19,20)          77.491          estimate D2E/DX2                !
 ! D57   D(2,13,19,24)        -102.8404         estimate D2E/DX2                !
 ! D58   D(14,13,19,20)       -100.5211         estimate D2E/DX2                !
 ! D59   D(14,13,19,24)         79.1476         estimate D2E/DX2                !
 ! D60   D(13,14,15,16)       -170.0486         estimate D2E/DX2                !
 ! D61   D(13,14,15,18)        -68.6507         estimate D2E/DX2                !
 ! D62   D(13,14,15,39)         61.7255         estimate D2E/DX2                !
 ! D63   D(37,14,15,16)         66.9526         estimate D2E/DX2                !
 ! D64   D(37,14,15,18)        168.3505         estimate D2E/DX2                !
 ! D65   D(37,14,15,39)        -61.2733         estimate D2E/DX2                !
 ! D66   D(38,14,15,16)        -49.045          estimate D2E/DX2                !
 ! D67   D(38,14,15,18)         52.353          estimate D2E/DX2                !
 ! D68   D(38,14,15,39)       -177.2708         estimate D2E/DX2                !
 ! D69   D(14,15,16,17)        118.7173         estimate D2E/DX2                !
 ! D70   D(14,15,16,40)       -124.5793         estimate D2E/DX2                !
 ! D71   D(14,15,16,41)          2.1232         estimate D2E/DX2                !
 ! D72   D(18,15,16,17)          0.5806         estimate D2E/DX2                !
 ! D73   D(18,15,16,40)        117.284          estimate D2E/DX2                !
 ! D74   D(18,15,16,41)       -116.0135         estimate D2E/DX2                !
 ! D75   D(39,15,16,17)       -114.0186         estimate D2E/DX2                !
 ! D76   D(39,15,16,40)          2.6847         estimate D2E/DX2                !
 ! D77   D(39,15,16,41)        129.3873         estimate D2E/DX2                !
 ! D78   D(14,15,18,17)       -115.9809         estimate D2E/DX2                !
 ! D79   D(14,15,18,44)          0.9528         estimate D2E/DX2                !
 ! D80   D(14,15,18,45)        127.4403         estimate D2E/DX2                !
 ! D81   D(16,15,18,17)         -0.5807         estimate D2E/DX2                !
 ! D82   D(16,15,18,44)        116.353          estimate D2E/DX2                !
 ! D83   D(16,15,18,45)       -117.1595         estimate D2E/DX2                !
 ! D84   D(39,15,18,17)        114.3483         estimate D2E/DX2                !
 ! D85   D(39,15,18,44)       -128.7179         estimate D2E/DX2                !
 ! D86   D(39,15,18,45)         -2.2304         estimate D2E/DX2                !
 ! D87   D(15,16,17,18)         -0.5826         estimate D2E/DX2                !
 ! D88   D(15,16,17,42)        116.0404         estimate D2E/DX2                !
 ! D89   D(15,16,17,43)       -117.1464         estimate D2E/DX2                !
 ! D90   D(40,16,17,18)       -116.7929         estimate D2E/DX2                !
 ! D91   D(40,16,17,42)         -0.1698         estimate D2E/DX2                !
 ! D92   D(40,16,17,43)        126.6433         estimate D2E/DX2                !
 ! D93   D(41,16,17,18)        115.9919         estimate D2E/DX2                !
 ! D94   D(41,16,17,42)       -127.385          estimate D2E/DX2                !
 ! D95   D(41,16,17,43)         -0.5719         estimate D2E/DX2                !
 ! D96   D(16,17,18,15)          0.5834         estimate D2E/DX2                !
 ! D97   D(16,17,18,44)       -115.8991         estimate D2E/DX2                !
 ! D98   D(16,17,18,45)        116.8215         estimate D2E/DX2                !
 ! D99   D(42,17,18,15)       -115.9332         estimate D2E/DX2                !
 ! D100  D(42,17,18,44)        127.5843         estimate D2E/DX2                !
 ! D101  D(42,17,18,45)          0.305          estimate D2E/DX2                !
 ! D102  D(43,17,18,15)        117.177          estimate D2E/DX2                !
 ! D103  D(43,17,18,44)          0.6945         estimate D2E/DX2                !
 ! D104  D(43,17,18,45)       -126.5848         estimate D2E/DX2                !
 ! D105  D(13,19,20,21)        179.7083         estimate D2E/DX2                !
 ! D106  D(13,19,20,46)         -1.2762         estimate D2E/DX2                !
 ! D107  D(24,19,20,21)          0.0364         estimate D2E/DX2                !
 ! D108  D(24,19,20,46)        179.0519         estimate D2E/DX2                !
 ! D109  D(13,19,24,23)       -179.7531         estimate D2E/DX2                !
 ! D110  D(13,19,24,49)          0.8244         estimate D2E/DX2                !
 ! D111  D(20,19,24,23)         -0.0774         estimate D2E/DX2                !
 ! D112  D(20,19,24,49)       -179.4999         estimate D2E/DX2                !
 ! D113  D(19,20,21,22)          0.0788         estimate D2E/DX2                !
 ! D114  D(19,20,21,47)        179.2304         estimate D2E/DX2                !
 ! D115  D(46,20,21,22)       -178.9446         estimate D2E/DX2                !
 ! D116  D(46,20,21,47)          0.207          estimate D2E/DX2                !
 ! D117  D(20,21,22,23)         -0.1512         estimate D2E/DX2                !
 ! D118  D(20,21,22,25)        179.4476         estimate D2E/DX2                !
 ! D119  D(47,21,22,23)       -179.3008         estimate D2E/DX2                !
 ! D120  D(47,21,22,25)          0.2979         estimate D2E/DX2                !
 ! D121  D(21,22,23,24)          0.1097         estimate D2E/DX2                !
 ! D122  D(21,22,23,48)       -179.9156         estimate D2E/DX2                !
 ! D123  D(25,22,23,24)       -179.4907         estimate D2E/DX2                !
 ! D124  D(25,22,23,48)          0.484          estimate D2E/DX2                !
 ! D125  D(21,22,25,26)         39.3546         estimate D2E/DX2                !
 ! D126  D(21,22,25,30)       -140.7415         estimate D2E/DX2                !
 ! D127  D(23,22,25,26)       -141.0524         estimate D2E/DX2                !
 ! D128  D(23,22,25,30)         38.8514         estimate D2E/DX2                !
 ! D129  D(22,23,24,19)          0.0039         estimate D2E/DX2                !
 ! D130  D(22,23,24,49)        179.4319         estimate D2E/DX2                !
 ! D131  D(48,23,24,19)       -179.9708         estimate D2E/DX2                !
 ! D132  D(48,23,24,49)         -0.5428         estimate D2E/DX2                !
 ! D133  D(22,25,26,27)        179.5411         estimate D2E/DX2                !
 ! D134  D(22,25,26,50)         -0.0399         estimate D2E/DX2                !
 ! D135  D(30,25,26,27)         -0.3654         estimate D2E/DX2                !
 ! D136  D(30,25,26,50)       -179.9464         estimate D2E/DX2                !
 ! D137  D(22,25,30,29)       -179.4799         estimate D2E/DX2                !
 ! D138  D(22,25,30,53)          1.0947         estimate D2E/DX2                !
 ! D139  D(26,25,30,29)          0.4278         estimate D2E/DX2                !
 ! D140  D(26,25,30,53)       -178.9976         estimate D2E/DX2                !
 ! D141  D(25,26,27,28)          0.0543         estimate D2E/DX2                !
 ! D142  D(25,26,27,51)       -179.8625         estimate D2E/DX2                !
 ! D143  D(50,26,27,28)        179.6342         estimate D2E/DX2                !
 ! D144  D(50,26,27,51)         -0.2826         estimate D2E/DX2                !
 ! D145  D(26,27,28,29)          0.2483         estimate D2E/DX2                !
 ! D146  D(26,27,28,52)       -179.7918         estimate D2E/DX2                !
 ! D147  D(51,27,28,29)       -179.8343         estimate D2E/DX2                !
 ! D148  D(51,27,28,52)          0.1256         estimate D2E/DX2                !
 ! D149  D(27,28,29,30)         -0.2044         estimate D2E/DX2                !
 ! D150  D(52,28,29,30)        179.8338         estimate D2E/DX2                !
 ! D151  D(28,29,30,25)         -0.1427         estimate D2E/DX2                !
 ! D152  D(28,29,30,53)        179.3062         estimate D2E/DX2                !
 --------------------------------------------------------------------------------
 Trust Radius=3.00D-01 FncErr=1.00D-07 GrdErr=1.00D-07
 Number of steps in this run=    318 maximum allowed number of steps=    318.
 GradGradGradGradGradGradGradGradGradGradGradGradGradGradGradGradGradGrad

 Leave Link  103 at Fri Aug 26 23:46:58 2022, MaxMem=  209715200 cpu:       0.1
 (Enter /opt/gaussian/l202.exe)
 Stoichiometry    C24H23N5O
 Framework group  C1[X(C24H23N5O)]
 Deg. of freedom   153
 Full point group                 C1      NOp   1
 Largest Abelian subgroup         C1      NOp   1
 Largest concise Abelian subgroup C1      NOp   1
                         Standard orientation:                         
 ---------------------------------------------------------------------
 Center     Atomic      Atomic             Coordinates (Angstroms)
 Number     Number       Type             X           Y           Z
 ---------------------------------------------------------------------
      1          8           0        1.219947   -0.815597    0.508010
      2          6           0        1.369285    0.301017   -0.018772
      3          6           0        2.783712    0.889795   -0.184303
      4          7           0        3.769842   -0.068505   -0.612271
      5          7           0        3.822130   -0.592153   -1.881016
      6          7           0        4.568786   -1.599251   -1.949533
      7          6           0        5.071028   -1.908859   -0.644596
      8          6           0        5.924303   -2.898091   -0.155360
      9          6           0        6.203422   -2.887752    1.206882
     10          6           0        5.658321   -1.920641    2.068305
     11          6           0        4.811939   -0.916445    1.611421
     12          6           0        4.514739   -0.912457    0.247691
     13          7           0        0.273215    1.042083   -0.442417
     14          6           0        0.360194    2.377030   -0.987602
     15          6           0        0.759251    3.463450   -0.001299
     16          6           0        0.596979    4.891345   -0.580637
     17          6           0       -0.429009    5.223978    0.522040
     18          6           0       -0.282445    3.798856    1.092967
     19          6           0       -1.038956    0.495805   -0.303545
     20          6           0       -1.693419    0.483835    0.943732
     21          6           0       -2.974181   -0.047210    1.058193
     22          6           0       -3.633299   -0.578744   -0.057985
     23          6           0       -2.982057   -0.565179   -1.299562
     24          6           0       -1.702542   -0.036737   -1.427880
     25          6           0       -4.969954   -1.145379    0.066084
     26          6           0       -5.946805   -0.560547    0.885161
     27          6           0       -7.212207   -1.142633    0.956636
     28          6           0       -7.464139   -2.301927    0.201679
     29          7           0       -6.541012   -2.885907   -0.587640
     30          6           0       -5.325171   -2.315524   -0.647051
     31          1           0        2.798838    1.743027   -0.919929
     32          1           0        3.093662    1.270636    0.831480
     33          1           0        6.354683   -3.655392   -0.825876
     34          1           0        6.866814   -3.659177    1.626577
     35          1           0        5.906245   -1.963315    3.140519
     36          1           0        4.387411   -0.169642    2.294505
     37          1           0        1.096755    2.381338   -1.843660
     38          1           0       -0.650716    2.640127   -1.417671
     39          1           0        1.775444    3.275192    0.416262
     40          1           0        1.525299    5.498526   -0.538212
     41          1           0        0.180936    4.918032   -1.610132
     42          1           0       -0.101745    6.026435    1.215953
     43          1           0       -1.445344    5.455896    0.139994
     44          1           0       -1.206935    3.184840    1.037668
     45          1           0        0.126078    3.763302    2.124832
     46          1           0       -1.189216    0.879893    1.838938
     47          1           0       -3.468561   -0.061568    2.041607
     48          1           0       -3.488908   -0.978392   -2.185564
     49          1           0       -1.209309   -0.046649   -2.412482
     50          1           0       -5.717491    0.350040    1.457835
     51          1           0       -7.999579   -0.708574    1.586315
     52          1           0       -8.453524   -2.792649    0.226828
     53          1           0       -4.585050   -2.822923   -1.292914
 ---------------------------------------------------------------------
 Rotational constants (GHZ):      0.2181497      0.0705689      0.0584485
 Leave Link  202 at Fri Aug 26 23:46:58 2022, MaxMem=  209715200 cpu:       0.0
 (Enter /opt/gaussian/l301.exe)
 Standard basis: 6-31G (6D, 7F)
 Ernie: Thresh=  0.10000D-02 Tol=  0.10000D-05 Strict=F.
 There are   316 symmetry adapted basis functions of A   symmetry.
 Integral buffers will be    131072 words long.
 Raffenetti 1 integral format.
 Two-electron integral symmetry is turned on.
   316 basis functions,   752 primitive gaussians,   316 cartesian basis functions
   105 alpha electrons      105 beta electrons
       nuclear repulsion energy      2630.7079010183 Hartrees.
 IExCor=    0 DFT=F Ex=HF Corr=None ExCW=0 ScaHFX=  1.000000
 ScaDFX=  1.000000  1.000000  1.000000  1.000000 ScalE2=  1.000000  1.000000
 IRadAn=      0 IRanWt=     -1 IRanGd=            0 ICorTp=0
 NAtoms=   53 NActive=   53 NUniq=   53 SFac= 1.00D+00 NAtFMM=   60 NAOKFM=F Big=F
 Leave Link  301 at Fri Aug 26 23:46:59 2022, MaxMem=  209715200 cpu:       0.2
 (Enter /opt/gaussian/l302.exe)
 NPDir=0 NMtPBC=     1 NCelOv=     1 NCel=       1 NClECP=     1 NCelD=      1
         NCelK=      1 NCelE2=     1 NClLst=     1 CellRange=     0.0.
 One-electron integrals computed using PRISM.
 NBasis=   316 RedAO= T  NBF=   316
 NBsUse=   316 1.00D-06 NBFU=   316
 Leave Link  302 at Fri Aug 26 23:46:59 2022, MaxMem=  209715200 cpu:       1.8
 (Enter /opt/gaussian/l303.exe)
 DipDrv:  MaxL=1.
 Leave Link  303 at Fri Aug 26 23:46:59 2022, MaxMem=  209715200 cpu:       0.4
 (Enter /opt/gaussian/l401.exe)
 Harris functional with IExCor=  205 diagonalized for initial guess.
 ExpMin= 1.61D-01 ExpMax= 5.48D+03 ExpMxC= 8.25D+02 IAcc=1 IRadAn=         1 AccDes= 0.00D+00
 HarFok:  IExCor=  205 AccDes= 0.00D+00 IRadAn=         1 IDoV= 1
 ScaDFX=  1.000000  1.000000  1.000000  1.000000
 FoFCou: FMM=F IPFlag=           0 FMFlag=      100000 FMFlg1=           0
         NFxFlg=           0 DoJE=T BraDBF=F KetDBF=T FulRan=T
         Omega=  0.000000  0.000000  1.000000  0.000000  0.000000 ICntrl=     500 IOpCl=  0
         NMat0=    1 NMatS0=    1 NMatT0=    0 NMatD0=    1 NMtDS0=    0 NMtDT0=    0
         I1Cent=           4 NGrid=           0.
 Petite list used in FoFCou.
 Harris En= -1270.34568326368    
 Initial guess orbital symmetries:
       Occupied  (A) (A) (A) (A) (A) (A) (A) (A) (A) (A) (A) (A)
                 (A) (A) (A) (A) (A) (A) (A) (A) (A) (A) (A) (A)
                 (A) (A) (A) (A) (A) (A) (A) (A) (A) (A) (A) (A)
                 (A) (A) (A) (A) (A) (A) (A) (A) (A) (A) (A) (A)
                 (A) (A) (A) (A) (A) (A) (A) (A) (A) (A) (A) (A)
                 (A) (A) (A) (A) (A) (A) (A) (A) (A) (A) (A) (A)
                 (A) (A) (A) (A) (A) (A) (A) (A) (A) (A) (A) (A)
                 (A) (A) (A) (A) (A) (A) (A) (A) (A) (A) (A) (A)
                 (A) (A) (A) (A) (A) (A) (A) (A) (A)
       Virtual   (A) (A) (A) (A) (A) (A) (A) (A) (A) (A) (A) (A)
                 (A) (A) (A) (A) (A) (A) (A) (A) (A) (A) (A) (A)
                 (A) (A) (A) (A) (A) (A) (A) (A) (A) (A) (A) (A)
                 (A) (A) (A) (A) (A) (A) (A) (A) (A) (A) (A) (A)
                 (A) (A) (A) (A) (A) (A) (A) (A) (A) (A) (A) (A)
                 (A) (A) (A) (A) (A) (A) (A) (A) (A) (A) (A) (A)
                 (A) (A) (A) (A) (A) (A) (A) (A) (A) (A) (A) (A)
                 (A) (A) (A) (A) (A) (A) (A) (A) (A) (A) (A) (A)
                 (A) (A) (A) (A) (A) (A) (A) (A) (A) (A) (A) (A)
                 (A) (A) (A) (A) (A) (A) (A) (A) (A) (A) (A) (A)
                 (A) (A) (A) (A) (A) (A) (A) (A) (A) (A) (A) (A)
                 (A) (A) (A) (A) (A) (A) (A) (A) (A) (A) (A) (A)
                 (A) (A) (A) (A) (A) (A) (A) (A) (A) (A) (A) (A)
                 (A) (A) (A) (A) (A) (A) (A) (A) (A) (A) (A) (A)
                 (A) (A) (A) (A) (A) (A) (A) (A) (A) (A) (A) (A)
                 (A) (A) (A) (A) (A) (A) (A) (A) (A) (A) (A) (A)
                 (A) (A) (A) (A) (A) (A) (A) (A) (A) (A) (A) (A)
                 (A) (A) (A) (A) (A) (A) (A)
 The electronic state of the initial guess is 1-A.
 Leave Link  401 at Fri Aug 26 23:46:59 2022, MaxMem=  209715200 cpu:       4.3
 (Enter /opt/gaussian/l502.exe)
 Closed shell SCF:
 Requested convergence on RMS density matrix=1.00D-08 within 128 cycles.
 Requested convergence on MAX density matrix=1.00D-06.
 Requested convergence on             energy=1.00D-06.
 No special actions if energy rises.
 Using DIIS extrapolation, IDIIS=  1040.
 Integral symmetry usage will be decided dynamically.
 IEnd=      322696 IEndB=      322696 NGot=   209715200 MDV=   209509317
 LenX=   209509317 LenY=   209409020
 Fock matrices will be formed incrementally for  20 cycles.
 Integral accuracy reduced to 1.0D-05 until final iterations.

 Cycle   1  Pass 0  IDiag  1:
 FoFCou: FMM=F IPFlag=           0 FMFlag=      100000 FMFlg1=           0
         NFxFlg=           0 DoJE=F BraDBF=F KetDBF=F FulRan=T
         Omega=  0.000000  0.000000  1.000000  0.000000  0.000000 ICntrl=       0 IOpCl=  0
         NMat0=    1 NMatS0=    1 NMatT0=    0 NMatD0=    1 NMtDS0=    0 NMtDT0=    0
         I1Cent=           0 NGrid=           0.
 Symmetry not used in FoFCou.
 E= -1267.81387982812    
 DIIS: error= 3.82D-02 at cycle   1 NSaved=   1.
 NSaved= 1 IEnMin= 1 EnMin= -1267.81387982812     IErMin= 1 ErrMin= 3.82D-02
 ErrMax= 3.82D-02 EMaxC= 1.00D-01 BMatC= 1.02D+00 BMatP= 1.02D+00
 IDIUse=3 WtCom= 6.18D-01 WtEn= 3.82D-01
 Coeff-Com:  0.100D+01
 Coeff-En:   0.100D+01
 Coeff:      0.100D+01
 Gap=     0.509 Goal=   None    Shift=    0.000
 GapD=    0.509 DampG=2.000 DampE=0.500 DampFc=1.0000 IDamp=-1.
 RMSDP=5.65D-03 MaxDP=1.69D-01              OVMax= 1.70D-01

 Cycle   2  Pass 0  IDiag  1:
 RMSU=  3.96D-03    CP:  9.68D-01
 E= -1268.50955041934     Delta-E=       -0.695670591219 Rises=F Damp=F
 DIIS: error= 2.51D-02 at cycle   2 NSaved=   2.
 NSaved= 2 IEnMin= 2 EnMin= -1268.50955041934     IErMin= 2 ErrMin= 2.51D-02
 ErrMax= 2.51D-02 EMaxC= 1.00D-01 BMatC= 1.93D-01 BMatP= 1.02D+00
 IDIUse=3 WtCom= 7.49D-01 WtEn= 2.51D-01
 Coeff-Com:  0.254D+00 0.746D+00
 Coeff-En:   0.000D+00 0.100D+01
 Coeff:      0.191D+00 0.809D+00
 Gap=     0.486 Goal=   None    Shift=    0.000
 RMSDP=2.47D-03 MaxDP=9.45D-02 DE=-6.96D-01 OVMax= 1.10D-01

 Cycle   3  Pass 0  IDiag  1:
 RMSU=  1.48D-03    CP:  9.68D-01  7.67D-01
 E= -1268.66172555351     Delta-E=       -0.152175134172 Rises=F Damp=F
 DIIS: error= 1.28D-02 at cycle   3 NSaved=   3.
 NSaved= 3 IEnMin= 3 EnMin= -1268.66172555351     IErMin= 3 ErrMin= 1.28D-02
 ErrMax= 1.28D-02 EMaxC= 1.00D-01 BMatC= 3.34D-02 BMatP= 1.93D-01
 IDIUse=3 WtCom= 8.72D-01 WtEn= 1.28D-01
 Coeff-Com:  0.841D-02 0.283D+00 0.709D+00
 Coeff-En:   0.000D+00 0.000D+00 0.100D+01
 Coeff:      0.733D-02 0.247D+00 0.746D+00
 Gap=     0.402 Goal=   None    Shift=    0.000
 RMSDP=8.64D-04 MaxDP=3.54D-02 DE=-1.52D-01 OVMax= 3.94D-02

 Cycle   4  Pass 0  IDiag  1:
 RMSU=  3.50D-04    CP:  9.68D-01  8.69D-01  7.99D-01
 E= -1268.69062736694     Delta-E=       -0.028901813431 Rises=F Damp=F
 DIIS: error= 3.58D-03 at cycle   4 NSaved=   4.
 NSaved= 4 IEnMin= 4 EnMin= -1268.69062736694     IErMin= 4 ErrMin= 3.58D-03
 ErrMax= 3.58D-03 EMaxC= 1.00D-01 BMatC= 3.17D-03 BMatP= 3.34D-02
 IDIUse=3 WtCom= 9.64D-01 WtEn= 3.58D-02
 Coeff-Com: -0.136D-01 0.306D-01 0.283D+00 0.700D+00
 Coeff-En:   0.000D+00 0.000D+00 0.000D+00 0.100D+01
 Coeff:     -0.131D-01 0.295D-01 0.272D+00 0.711D+00
 Gap=     0.399 Goal=   None    Shift=    0.000
 RMSDP=2.64D-04 MaxDP=1.07D-02 DE=-2.89D-02 OVMax= 9.55D-03

 Cycle   5  Pass 0  IDiag  1:
 RMSU=  1.12D-04    CP:  9.67D-01  8.60D-01  8.80D-01  7.73D-01
 E= -1268.69351947987     Delta-E=       -0.002892112925 Rises=F Damp=F
 DIIS: error= 8.87D-04 at cycle   5 NSaved=   5.
 NSaved= 5 IEnMin= 5 EnMin= -1268.69351947987     IErMin= 5 ErrMin= 8.87D-04
 ErrMax= 8.87D-04 EMaxC= 1.00D-01 BMatC= 8.44D-05 BMatP= 3.17D-03
 IDIUse=3 WtCom= 9.91D-01 WtEn= 8.87D-03
 Coeff-Com: -0.132D-02-0.134D-01-0.152D-01 0.574D-01 0.973D+00
 Coeff-En:   0.000D+00 0.000D+00 0.000D+00 0.000D+00 0.100D+01
 Coeff:     -0.131D-02-0.133D-01-0.151D-01 0.569D-01 0.973D+00
 Gap=     0.399 Goal=   None    Shift=    0.000
 RMSDP=7.39D-05 MaxDP=2.18D-03 DE=-2.89D-03 OVMax= 5.22D-03

 Cycle   6  Pass 0  IDiag  1:
 RMSU=  3.89D-05    CP:  9.67D-01  8.61D-01  8.95D-01  8.20D-01  1.18D+00
 E= -1268.69374359191     Delta-E=       -0.000224112046 Rises=F Damp=F
 DIIS: error= 2.65D-04 at cycle   6 NSaved=   6.
 NSaved= 6 IEnMin= 6 EnMin= -1268.69374359191     IErMin= 6 ErrMin= 2.65D-04
 ErrMax= 2.65D-04 EMaxC= 1.00D-01 BMatC= 2.27D-05 BMatP= 8.44D-05
 IDIUse=3 WtCom= 9.97D-01 WtEn= 2.65D-03
 Coeff-Com:  0.226D-02-0.729D-02-0.498D-01-0.135D+00 0.135D+00 0.105D+01
 Coeff-En:   0.000D+00 0.000D+00 0.000D+00 0.000D+00 0.000D+00 0.100D+01
 Coeff:      0.225D-02-0.727D-02-0.497D-01-0.135D+00 0.135D+00 0.105D+01
 Gap=     0.399 Goal=   None    Shift=    0.000
 RMSDP=4.92D-05 MaxDP=1.70D-03 DE=-2.24D-04 OVMax= 3.04D-03

 Cycle   7  Pass 0  IDiag  1:
 RMSU=  1.57D-05    CP:  9.67D-01  8.60D-01  9.05D-01  8.28D-01  1.41D+00
                    CP:  1.22D+00
 E= -1268.69381303653     Delta-E=       -0.000069444616 Rises=F Damp=F
 DIIS: error= 1.93D-04 at cycle   7 NSaved=   7.
 NSaved= 7 IEnMin= 7 EnMin= -1268.69381303653     IErMin= 7 ErrMin= 1.93D-04
 ErrMax= 1.93D-04 EMaxC= 1.00D-01 BMatC= 3.23D-06 BMatP= 2.27D-05
 IDIUse=3 WtCom= 9.98D-01 WtEn= 1.93D-03
 Coeff-Com:  0.159D-03 0.156D-02 0.344D-02-0.142D-01-0.104D+00-0.192D-01
 Coeff-Com:  0.113D+01
 Coeff-En:   0.000D+00 0.000D+00 0.000D+00 0.000D+00 0.000D+00 0.000D+00
 Coeff-En:   0.100D+01
 Coeff:      0.159D-03 0.156D-02 0.344D-02-0.142D-01-0.104D+00-0.192D-01
 Coeff:      0.113D+01
 Gap=     0.399 Goal=   None    Shift=    0.000
 RMSDP=2.01D-05 MaxDP=8.26D-04 DE=-6.94D-05 OVMax= 1.67D-03

 Cycle   8  Pass 0  IDiag  1:
 RMSU=  6.28D-06    CP:  9.67D-01  8.59D-01  9.07D-01  8.27D-01  1.48D+00
                    CP:  1.41D+00  1.36D+00
 E= -1268.69382450598     Delta-E=       -0.000011469451 Rises=F Damp=F
 DIIS: error= 6.96D-05 at cycle   8 NSaved=   8.
 NSaved= 8 IEnMin= 8 EnMin= -1268.69382450598     IErMin= 8 ErrMin= 6.96D-05
 ErrMax= 6.96D-05 EMaxC= 1.00D-01 BMatC= 8.02D-07 BMatP= 3.23D-06
 IDIUse=1 WtCom= 1.00D+00 WtEn= 0.00D+00
 Coeff-Com: -0.546D-03 0.238D-02 0.148D-01 0.292D-01-0.531D-01-0.290D+00
 Coeff-Com:  0.289D+00 0.101D+01
 Coeff:     -0.546D-03 0.238D-02 0.148D-01 0.292D-01-0.531D-01-0.290D+00
 Coeff:      0.289D+00 0.101D+01
 Gap=     0.399 Goal=   None    Shift=    0.000
 RMSDP=9.71D-06 MaxDP=2.80D-04 DE=-1.15D-05 OVMax= 7.27D-04

 Initial convergence to 1.0D-05 achieved.  Increase integral accuracy.
 Cycle   9  Pass 1  IDiag  1:
 E= -1268.69382905514     Delta-E=       -0.000004549158 Rises=F Damp=F
 DIIS: error= 1.00D-04 at cycle   1 NSaved=   1.
 NSaved= 1 IEnMin= 1 EnMin= -1268.69382905514     IErMin= 1 ErrMin= 1.00D-04
 ErrMax= 1.00D-04 EMaxC= 1.00D-01 BMatC= 1.54D-06 BMatP= 1.54D-06
 IDIUse=3 WtCom= 9.99D-01 WtEn= 1.00D-03
 Coeff-Com:  0.100D+01
 Coeff-En:   0.100D+01
 Coeff:      0.100D+01
 Gap=     0.399 Goal=   None    Shift=    0.000
 RMSDP=9.71D-06 MaxDP=2.80D-04 DE=-4.55D-06 OVMax= 2.07D-04

 Cycle  10  Pass 1  IDiag  1:
 RMSU=  4.29D-05    CP:  1.00D+00
 E= -1268.69383065925     Delta-E=       -0.000001604107 Rises=F Damp=F
 DIIS: error= 1.35D-05 at cycle   2 NSaved=   2.
 NSaved= 2 IEnMin= 2 EnMin= -1268.69383065925     IErMin= 2 ErrMin= 1.35D-05
 ErrMax= 1.35D-05 EMaxC= 1.00D-01 BMatC= 3.82D-08 BMatP= 1.54D-06
 IDIUse=1 WtCom= 1.00D+00 WtEn= 0.00D+00
 Coeff-Com: -0.237D-01 0.102D+01
 Coeff:     -0.237D-01 0.102D+01
 Gap=     0.399 Goal=   None    Shift=    0.000
 RMSDP=3.55D-06 MaxDP=6.14D-05 DE=-1.60D-06 OVMax= 1.30D-04

 Cycle  11  Pass 1  IDiag  1:
 RMSU=  1.11D-06    CP:  1.00D+00  1.05D+00
 E= -1268.69383075152     Delta-E=       -0.000000092272 Rises=F Damp=F
 DIIS: error= 1.29D-05 at cycle   3 NSaved=   3.
 NSaved= 3 IEnMin= 3 EnMin= -1268.69383075152     IErMin= 3 ErrMin= 1.29D-05
 ErrMax= 1.29D-05 EMaxC= 1.00D-01 BMatC= 2.10D-08 BMatP= 3.82D-08
 IDIUse=1 WtCom= 1.00D+00 WtEn= 0.00D+00
 Coeff-Com: -0.272D-01 0.387D+00 0.640D+00
 Coeff:     -0.272D-01 0.387D+00 0.640D+00
 Gap=     0.399 Goal=   None    Shift=    0.000
 RMSDP=6.27D-07 MaxDP=2.35D-05 DE=-9.23D-08 OVMax= 5.65D-05

 Cycle  12  Pass 1  IDiag  1:
 RMSU=  4.29D-07    CP:  1.00D+00  1.06D+00  9.96D-01
 E= -1268.69383078612     Delta-E=       -0.000000034600 Rises=F Damp=F
 DIIS: error= 7.12D-06 at cycle   4 NSaved=   4.
 NSaved= 4 IEnMin= 4 EnMin= -1268.69383078612     IErMin= 4 ErrMin= 7.12D-06
 ErrMax= 7.12D-06 EMaxC= 1.00D-01 BMatC= 4.87D-09 BMatP= 2.10D-08
 IDIUse=1 WtCom= 1.00D+00 WtEn= 0.00D+00
 Coeff-Com:  0.259D-01-0.637D+00-0.423D+00 0.203D+01
 Coeff:      0.259D-01-0.637D+00-0.423D+00 0.203D+01
 Gap=     0.399 Goal=   None    Shift=    0.000
 RMSDP=1.11D-06 MaxDP=2.55D-05 DE=-3.46D-08 OVMax= 1.44D-04

 Cycle  13  Pass 1  IDiag  1:
 RMSU=  3.38D-07    CP:  1.00D+00  1.06D+00  1.46D+00  2.12D+00
 E= -1268.69383081971     Delta-E=       -0.000000033593 Rises=F Damp=F
 DIIS: error= 1.95D-06 at cycle   5 NSaved=   5.
 NSaved= 5 IEnMin= 5 EnMin= -1268.69383081971     IErMin= 5 ErrMin= 1.95D-06
 ErrMax= 1.95D-06 EMaxC= 1.00D-01 BMatC= 3.92D-10 BMatP= 4.87D-09
 IDIUse=1 WtCom= 1.00D+00 WtEn= 0.00D+00
 Coeff-Com:  0.918D-02-0.197D+00-0.158D+00 0.486D+00 0.859D+00
 Coeff:      0.918D-02-0.197D+00-0.158D+00 0.486D+00 0.859D+00
 Gap=     0.399 Goal=   None    Shift=    0.000
 RMSDP=2.06D-07 MaxDP=5.03D-06 DE=-3.36D-08 OVMax= 2.80D-05

 Cycle  14  Pass 1  IDiag  1:
 RMSU=  7.73D-08    CP:  1.00D+00  1.06D+00  1.51D+00  2.33D+00  1.19D+00
 E= -1268.69383082116     Delta-E=       -0.000000001451 Rises=F Damp=F
 DIIS: error= 7.36D-07 at cycle   6 NSaved=   6.
 NSaved= 6 IEnMin= 6 EnMin= -1268.69383082116     IErMin= 6 ErrMin= 7.36D-07
 ErrMax= 7.36D-07 EMaxC= 1.00D-01 BMatC= 6.26D-11 BMatP= 3.92D-10
 IDIUse=1 WtCom= 1.00D+00 WtEn= 0.00D+00
 Coeff-Com: -0.378D-02 0.945D-01 0.739D-01-0.333D+00 0.636D-01 0.111D+01
 Coeff:     -0.378D-02 0.945D-01 0.739D-01-0.333D+00 0.636D-01 0.111D+01
 Gap=     0.399 Goal=   None    Shift=    0.000
 RMSDP=8.91D-08 MaxDP=1.96D-06 DE=-1.45D-09 OVMax= 1.09D-05

 Cycle  15  Pass 1  IDiag  1:
 RMSU=  3.25D-08    CP:  1.00D+00  1.06D+00  1.52D+00  2.39D+00  1.32D+00
                    CP:  1.15D+00
 E= -1268.69383082144     Delta-E=       -0.000000000279 Rises=F Damp=F
 DIIS: error= 2.07D-07 at cycle   7 NSaved=   7.
 NSaved= 7 IEnMin= 7 EnMin= -1268.69383082144     IErMin= 7 ErrMin= 2.07D-07
 ErrMax= 2.07D-07 EMaxC= 1.00D-01 BMatC= 8.93D-12 BMatP= 6.26D-11
 IDIUse=1 WtCom= 1.00D+00 WtEn= 0.00D+00
 Coeff-Com: -0.121D-02 0.262D-01 0.272D-01-0.770D-01-0.100D+00 0.474D-01
 Coeff-Com:  0.108D+01
 Coeff:     -0.121D-02 0.262D-01 0.272D-01-0.770D-01-0.100D+00 0.474D-01
 Coeff:      0.108D+01
 Gap=     0.399 Goal=   None    Shift=    0.000
 RMSDP=2.73D-08 MaxDP=6.67D-07 DE=-2.79D-10 OVMax= 2.85D-06

 Cycle  16  Pass 1  IDiag  1:
 RMSU=  1.20D-08    CP:  1.00D+00  1.06D+00  1.52D+00  2.40D+00  1.33D+00
                    CP:  1.27D+00  1.27D+00
 E= -1268.69383082145     Delta-E=       -0.000000000013 Rises=F Damp=F
 DIIS: error= 1.31D-07 at cycle   8 NSaved=   8.
 NSaved= 8 IEnMin= 8 EnMin= -1268.69383082145     IErMin= 8 ErrMin= 1.31D-07
 ErrMax= 1.31D-07 EMaxC= 1.00D-01 BMatC= 2.32D-12 BMatP= 8.93D-12
 IDIUse=1 WtCom= 1.00D+00 WtEn= 0.00D+00
 Coeff-Com:  0.461D-03-0.129D-01-0.539D-02 0.475D-01-0.474D-01-0.235D+00
 Coeff-Com:  0.355D+00 0.898D+00
 Coeff:      0.461D-03-0.129D-01-0.539D-02 0.475D-01-0.474D-01-0.235D+00
 Coeff:      0.355D+00 0.898D+00
 Gap=     0.399 Goal=   None    Shift=    0.000
 RMSDP=1.26D-08 MaxDP=3.07D-07 DE=-1.27D-11 OVMax= 1.20D-06

 Cycle  17  Pass 1  IDiag  1:
 RMSU=  5.26D-09    CP:  1.00D+00  1.06D+00  1.52D+00  2.40D+00  1.33D+00
                    CP:  1.30D+00  1.46D+00  1.03D+00
 E= -1268.69383082148     Delta-E=       -0.000000000024 Rises=F Damp=F
 DIIS: error= 7.20D-08 at cycle   9 NSaved=   9.
 NSaved= 9 IEnMin= 9 EnMin= -1268.69383082148     IErMin= 9 ErrMin= 7.20D-08
 ErrMax= 7.20D-08 EMaxC= 1.00D-01 BMatC= 2.06D-13 BMatP= 2.32D-12
 IDIUse=1 WtCom= 1.00D+00 WtEn= 0.00D+00
 Coeff-Com:  0.782D-04-0.152D-02-0.112D-02 0.252D-02 0.129D-01 0.113D-01
 Coeff-Com: -0.124D+00-0.702D-01 0.117D+01
 Coeff:      0.782D-04-0.152D-02-0.112D-02 0.252D-02 0.129D-01 0.113D-01
 Coeff:     -0.124D+00-0.702D-01 0.117D+01
 Gap=     0.399 Goal=   None    Shift=    0.000
 RMSDP=5.19D-09 MaxDP=1.87D-07 DE=-2.41D-11 OVMax= 5.40D-07

 SCF Done:  E(RHF) =  -1268.69383082     A.U. after   17 cycles
             Convg  =    0.5189D-08             -V/T =  2.0004
 KE= 1.268241066234D+03 PE=-8.221090354386D+03 EE= 3.053447556313D+03
 Leave Link  502 at Fri Aug 26 23:48:10 2022, MaxMem=  209715200 cpu:     559.5
 (Enter /opt/gaussian/l601.exe)
 Copying SCF densities to generalized density rwf, IOpCl= 0 IROHF=0.

 **********************************************************************

            Population analysis using the SCF density.

 **********************************************************************

 Orbital symmetries:
       Occupied  (A) (A) (A) (A) (A) (A) (A) (A) (A) (A) (A) (A)
                 (A) (A) (A) (A) (A) (A) (A) (A) (A) (A) (A) (A)
                 (A) (A) (A) (A) (A) (A) (A) (A) (A) (A) (A) (A)
                 (A) (A) (A) (A) (A) (A) (A) (A) (A) (A) (A) (A)
                 (A) (A) (A) (A) (A) (A) (A) (A) (A) (A) (A) (A)
                 (A) (A) (A) (A) (A) (A) (A) (A) (A) (A) (A) (A)
                 (A) (A) (A) (A) (A) (A) (A) (A) (A) (A) (A) (A)
                 (A) (A) (A) (A) (A) (A) (A) (A) (A) (A) (A) (A)
                 (A) (A) (A) (A) (A) (A) (A) (A) (A)
       Virtual   (A) (A) (A) (A) (A) (A) (A) (A) (A) (A) (A) (A)
                 (A) (A) (A) (A) (A) (A) (A) (A) (A) (A) (A) (A)
                 (A) (A) (A) (A) (A) (A) (A) (A) (A) (A) (A) (A)
                 (A) (A) (A) (A) (A) (A) (A) (A) (A) (A) (A) (A)
                 (A) (A) (A) (A) (A) (A) (A) (A) (A) (A) (A) (A)
                 (A) (A) (A) (A) (A) (A) (A) (A) (A) (A) (A) (A)
                 (A) (A) (A) (A) (A) (A) (A) (A) (A) (A) (A) (A)
                 (A) (A) (A) (A) (A) (A) (A) (A) (A) (A) (A) (A)
                 (A) (A) (A) (A) (A) (A) (A) (A) (A) (A) (A) (A)
                 (A) (A) (A) (A) (A) (A) (A) (A) (A) (A) (A) (A)
                 (A) (A) (A) (A) (A) (A) (A) (A) (A) (A) (A) (A)
                 (A) (A) (A) (A) (A) (A) (A) (A) (A) (A) (A) (A)
                 (A) (A) (A) (A) (A) (A) (A) (A) (A) (A) (A) (A)
                 (A) (A) (A) (A) (A) (A) (A) (A) (A) (A) (A) (A)
                 (A) (A) (A) (A) (A) (A) (A) (A) (A) (A) (A) (A)
                 (A) (A) (A) (A) (A) (A) (A) (A) (A) (A) (A) (A)
                 (A) (A) (A) (A) (A) (A) (A) (A) (A) (A) (A) (A)
                 (A) (A) (A) (A) (A) (A) (A)
 The electronic state is 1-A.
 Alpha  occ. eigenvalues --  -20.54344 -15.67263 -15.65842 -15.62547 -15.61222
 Alpha  occ. eigenvalues --  -15.58290 -11.38891 -11.32712 -11.30707 -11.29706
 Alpha  occ. eigenvalues --  -11.29580 -11.28700 -11.28675 -11.28178 -11.27061
 Alpha  occ. eigenvalues --  -11.26593 -11.26417 -11.26411 -11.26314 -11.26158
 Alpha  occ. eigenvalues --  -11.25894 -11.25730 -11.25700 -11.25475 -11.25390
 Alpha  occ. eigenvalues --  -11.25354 -11.25045 -11.24313 -11.24032 -11.23979
 Alpha  occ. eigenvalues --   -1.46571  -1.40093  -1.27604  -1.27055  -1.24537
 Alpha  occ. eigenvalues --   -1.17412  -1.17005  -1.15583  -1.10595  -1.06299
 Alpha  occ. eigenvalues --   -1.05033  -1.04440  -1.03215  -1.02070  -1.00938
 Alpha  occ. eigenvalues --   -0.98181  -0.91878  -0.89303  -0.88259  -0.88020
 Alpha  occ. eigenvalues --   -0.87082  -0.84687  -0.83574  -0.83271  -0.80217
 Alpha  occ. eigenvalues --   -0.76758  -0.74855  -0.72892  -0.72197  -0.71823
 Alpha  occ. eigenvalues --   -0.70945  -0.70033  -0.68322  -0.68133  -0.66257
 Alpha  occ. eigenvalues --   -0.65689  -0.65449  -0.64403  -0.63542  -0.62893
 Alpha  occ. eigenvalues --   -0.62081  -0.61878  -0.61448  -0.60031  -0.59835
 Alpha  occ. eigenvalues --   -0.58371  -0.57663  -0.57386  -0.55719  -0.55523
 Alpha  occ. eigenvalues --   -0.54660  -0.54026  -0.54000  -0.53274  -0.52616
 Alpha  occ. eigenvalues --   -0.51596  -0.51209  -0.50764  -0.50109  -0.49644
 Alpha  occ. eigenvalues --   -0.49582  -0.46667  -0.45508  -0.44647  -0.44472
 Alpha  occ. eigenvalues --   -0.42286  -0.41634  -0.40936  -0.39595  -0.38077
 Alpha  occ. eigenvalues --   -0.36723  -0.34974  -0.33789  -0.32384  -0.30963
 Alpha virt. eigenvalues --    0.08960   0.09366   0.11591   0.12615   0.13912
 Alpha virt. eigenvalues --    0.15562   0.16661   0.19076   0.19356   0.21085
 Alpha virt. eigenvalues --    0.22437   0.22831   0.23385   0.23931   0.24272
 Alpha virt. eigenvalues --    0.25709   0.26401   0.26796   0.27830   0.28377
 Alpha virt. eigenvalues --    0.28670   0.29351   0.30606   0.30972   0.31553
 Alpha virt. eigenvalues --    0.31747   0.32130   0.32415   0.33175   0.33212
 Alpha virt. eigenvalues --    0.33819   0.34076   0.35796   0.36228   0.36692
 Alpha virt. eigenvalues --    0.37477   0.37870   0.38627   0.39380   0.39978
 Alpha virt. eigenvalues --    0.40815   0.41427   0.43297   0.43472   0.43828
 Alpha virt. eigenvalues --    0.44166   0.46086   0.46441   0.47812   0.48438
 Alpha virt. eigenvalues --    0.49469   0.50613   0.51516   0.51801   0.52374
 Alpha virt. eigenvalues --    0.54575   0.55429   0.56145   0.57475   0.59018
 Alpha virt. eigenvalues --    0.59479   0.62580   0.64979   0.65473   0.69284
 Alpha virt. eigenvalues --    0.71490   0.72165   0.73116   0.73583   0.73890
 Alpha virt. eigenvalues --    0.74471   0.75773   0.76056   0.76753   0.76902
 Alpha virt. eigenvalues --    0.77023   0.77457   0.78380   0.78814   0.79383
 Alpha virt. eigenvalues --    0.79993   0.80614   0.80910   0.82203   0.82921
 Alpha virt. eigenvalues --    0.83041   0.83256   0.83844   0.83965   0.84236
 Alpha virt. eigenvalues --    0.84716   0.85156   0.85497   0.85924   0.86023
 Alpha virt. eigenvalues --    0.86309   0.86771   0.87290   0.87736   0.88703
 Alpha virt. eigenvalues --    0.89392   0.90359   0.90475   0.90741   0.91182
 Alpha virt. eigenvalues --    0.91645   0.92741   0.94031   0.94261   0.94729
 Alpha virt. eigenvalues --    0.95284   0.95788   0.96476   0.97448   0.97824
 Alpha virt. eigenvalues --    0.99018   0.99664   1.00170   1.01599   1.01830
 Alpha virt. eigenvalues --    1.02961   1.04246   1.04643   1.05581   1.07308
 Alpha virt. eigenvalues --    1.07919   1.08987   1.09769   1.09980   1.10131
 Alpha virt. eigenvalues --    1.10287   1.11080   1.11207   1.11595   1.11976
 Alpha virt. eigenvalues --    1.12158   1.12422   1.13189   1.13642   1.14253
 Alpha virt. eigenvalues --    1.14773   1.15775   1.16061   1.16699   1.17160
 Alpha virt. eigenvalues --    1.17654   1.17808   1.19011   1.19610   1.20203
 Alpha virt. eigenvalues --    1.20717   1.21295   1.22496   1.23068   1.23141
 Alpha virt. eigenvalues --    1.24054   1.25045   1.25533   1.26243   1.27175
 Alpha virt. eigenvalues --    1.28283   1.29104   1.29518   1.30221   1.30973
 Alpha virt. eigenvalues --    1.31606   1.33673   1.34285   1.35180   1.37344
 Alpha virt. eigenvalues --    1.37871   1.38762   1.39152   1.39900   1.41483
 Alpha virt. eigenvalues --    1.41991   1.43111   1.45077   1.46125   1.46940
 Alpha virt. eigenvalues --    1.49498   1.51385   1.52411   1.53582   1.53900
 Alpha virt. eigenvalues --    1.55784   1.57177   1.59923   1.62222   1.63308
 Alpha virt. eigenvalues --    1.64050   1.68205   1.69989   1.70328   1.71834
 Alpha virt. eigenvalues --    1.73190   1.74230   1.77896   1.80565   1.84260
 Alpha virt. eigenvalues --    1.93991   1.98202   2.01254   2.04014   2.06324
 Alpha virt. eigenvalues --    2.09748   2.12756   2.20101   2.23052   2.36887
 Alpha virt. eigenvalues --    2.37765
          Condensed to atoms (all electrons):
 Mulliken atomic charges:
              1
     1  O   -0.595396
     2  C    0.817151
     3  C   -0.138405
     4  N   -0.800391
     5  N    0.103009
     6  N   -0.314101
     7  C    0.027394
     8  C   -0.102925
     9  C   -0.234365
    10  C   -0.202236
    11  C   -0.103983
    12  C    0.402441
    13  N   -0.967814
    14  C   -0.071751
    15  C   -0.202168
    16  C   -0.320812
    17  C   -0.324055
    18  C   -0.317086
    19  C    0.296539
    20  C   -0.158223
    21  C   -0.208803
    22  C   -0.019180
    23  C   -0.204200
    24  C   -0.171561
    25  C   -0.093590
    26  C   -0.140289
    27  C   -0.246999
    28  C    0.049583
    29  N   -0.529107
    30  C    0.057116
    31  H    0.232141
    32  H    0.227915
    33  H    0.245336
    34  H    0.208750
    35  H    0.211524
    36  H    0.224094
    37  H    0.182267
    38  H    0.198360
    39  H    0.168744
    40  H    0.172095
    41  H    0.169083
    42  H    0.170316
    43  H    0.169888
    44  H    0.182034
    45  H    0.164901
    46  H    0.225566
    47  H    0.220540
    48  H    0.227258
    49  H    0.229972
    50  H    0.226613
    51  H    0.217211
    52  H    0.212379
    53  H    0.227223
 Sum of Mulliken atomic charges =   0.00000
 Mulliken charges with hydrogens summed into heavy atoms:
              1
     1  O   -0.595396
     2  C    0.817151
     3  C    0.321651
     4  N   -0.800391
     5  N    0.103009
     6  N   -0.314101
     7  C    0.027394
     8  C    0.142411
     9  C   -0.025615
    10  C    0.009288
    11  C    0.120110
    12  C    0.402441
    13  N   -0.967814
    14  C    0.308877
    15  C   -0.033424
    16  C    0.020366
    17  C    0.016148
    18  C    0.029849
    19  C    0.296539
    20  C    0.067343
    21  C    0.011737
    22  C   -0.019180
    23  C    0.023058
    24  C    0.058411
    25  C   -0.093590
    26  C    0.086324
    27  C   -0.029788
    28  C    0.261962
    29  N   -0.529107
    30  C    0.284339
 Sum of Mulliken charges with hydrogens summed into heavy atoms =   0.00000
 Electronic spatial extent (au):  <R**2>=          17758.3140
 Charge=              0.0000 electrons
 Dipole moment (field-independent basis, Debye):
    X=             -0.2862    Y=              6.9557    Z=              4.2279  Tot=              8.1449
 Quadrupole moment (field-independent basis, Debye-Ang):
   XX=           -170.1772   YY=           -179.6297   ZZ=           -177.3364
   XY=            -11.6331   XZ=              7.7884   YZ=             -4.2299
 Traceless Quadrupole moment (field-independent basis, Debye-Ang):
   XX=              5.5372   YY=             -3.9152   ZZ=             -1.6220
   XY=            -11.6331   XZ=              7.7884   YZ=             -4.2299
 Octapole moment (field-independent basis, Debye-Ang**2):
  XXX=            -14.6677  YYY=             50.6947  ZZZ=             37.1561  XYY=            110.9472
  XXY=             27.1412  XXZ=            183.6323  XZZ=            -19.8069  YZZ=             17.0161
  YYZ=             10.2373  XYZ=             -7.6853
 Hexadecapole moment (field-independent basis, Debye-Ang**3):
 XXXX=         -17284.0486 YYYY=          -5556.5111 ZZZZ=          -1333.7645 XXXY=           -817.2442
 XXXZ=           -305.5474 YYYX=           -374.4523 YYYZ=            -25.9770 ZZZX=            189.9224
 ZZZY=            -40.1168 XXYY=          -4059.6782 XXZZ=          -3302.3127 YYZZ=          -1154.0185
 XXYZ=           -272.8182 YYXZ=            -17.0900 ZZXY=            -15.0867
 N-N= 2.630707901018D+03 E-N=-8.221090354810D+03  KE= 1.268241066234D+03
 No NMR shielding tensors so no spin-rotation constants.
 Leave Link  601 at Fri Aug 26 23:48:10 2022, MaxMem=  209715200 cpu:       1.3
 (Enter /opt/gaussian/l701.exe)
 Compute integral first derivatives.
 ... and contract with generalized density number  0.
 Leave Link  701 at Fri Aug 26 23:48:10 2022, MaxMem=  209715200 cpu:       1.2
 (Enter /opt/gaussian/l702.exe)
 L702 exits ... SP integral derivatives will be done elsewhere.
 Leave Link  702 at Fri Aug 26 23:48:10 2022, MaxMem=  209715200 cpu:       0.2
 (Enter /opt/gaussian/l703.exe)
 Compute integral first derivatives, UseDBF=F ICtDFT=           0.
 Integral derivatives from FoFDir, PRISM(SPDF).
 Calling FoFJK, ICntrl=      2127 FMM=F ISym2X=0 I1Cent= 0 IOpClX= 0 NMat=1 NMatS=1 NMatT=0.
 FoFCou: FMM=F IPFlag=           0 FMFlag=      100000 FMFlg1=         800
         NFxFlg=           0 DoJE=F BraDBF=F KetDBF=F FulRan=T
         Omega=  0.000000  0.000000  1.000000  0.000000  0.000000 ICntrl=    2127 IOpCl=  0
         NMat0=    1 NMatS0=    1 NMatT0=    0 NMatD0=    1 NMtDS0=    0 NMtDT0=    0
         I1Cent=           0 NGrid=           0.
 Symmetry not used in FoFCou.
 Leave Link  703 at Fri Aug 26 23:48:36 2022, MaxMem=  209715200 cpu:     203.8
 (Enter /opt/gaussian/l716.exe)
 Dipole        =-1.12585491D-01 2.73658709D+00 1.66338027D+00
 ***** Axes restored to original set *****
 -------------------------------------------------------------------
 Center     Atomic                   Forces (Hartrees/Bohr)
 Number     Number              X              Y              Z
 -------------------------------------------------------------------
      1        8           0.019163412   -0.020740070    0.018201409
      2        6          -0.025905679    0.012267044   -0.007172898
      3        6           0.013049845   -0.029083991    0.013286131
      4        7          -0.000955394    0.039446710   -0.043635349
      5        7          -0.001055558   -0.018168538    0.005507929
      6        7           0.008134333    0.011054286   -0.029242446
      7        6          -0.005395147   -0.048291667   -0.009356713
      8        6          -0.001084230    0.007810007    0.008975905
      9        6           0.003814265    0.014850428   -0.002902422
     10        6           0.001804680   -0.004693033   -0.011934750
     11        6          -0.002322602   -0.010702503   -0.002115326
     12        6           0.000880356    0.024389375    0.039946954
     13        7           0.011296973    0.017935685   -0.016052508
     14        6           0.008232378   -0.010361625    0.041008480
     15        6           0.011675298    0.010086958   -0.005394490
     16        6           0.017227160   -0.004603675    0.017250024
     17        6          -0.004928459   -0.024946749   -0.002884815
     18        6          -0.012567161    0.004959817   -0.022449601
     19        6          -0.025648142    0.006356500   -0.006950067
     20        6           0.010297861    0.000994530    0.000917327
     21        6          -0.001501511   -0.003586087   -0.007001269
     22        6           0.019410227    0.001457330    0.003780660
     23        6          -0.004712451    0.002453062    0.006587615
     24        6           0.012015670    0.001144824    0.000652930
     25        6          -0.029317777    0.006507922    0.000393211
     26        6           0.000008686   -0.003032333   -0.002891700
     27        6          -0.007564000    0.003686972    0.000560670
     28        6          -0.012959192   -0.001556769   -0.002541259
     29        7           0.014608456   -0.019966196   -0.010267992
     30        6           0.003402404    0.005636007    0.004593099
     31        1          -0.007270275    0.019175206   -0.027301046
     32        1          -0.010396948    0.008418414    0.027943014
     33        1          -0.001243600   -0.017279223   -0.009714825
     34        1          -0.006126019   -0.016420506    0.009849344
     35        1          -0.004960402    0.000114850    0.019644306
     36        1           0.001172919    0.016793160    0.008181063
     37        1          -0.017753820   -0.012642571   -0.016150608
     38        1           0.023504149    0.017862045   -0.011207233
     39        1          -0.016979523   -0.009687958    0.009131963
     40        1          -0.019016450    0.002170877    0.003550413
     41        1           0.010538729    0.000871946   -0.015439553
     42        1          -0.013569198    0.009391338    0.010542226
     43        1           0.016372225    0.006193149   -0.008622561
     44        1           0.021167492   -0.004728119   -0.002238598
     45        1          -0.010886117   -0.000530645    0.015702395
     46        1          -0.011186559    0.007123427    0.016718405
     47        1           0.007925761    0.007108808    0.017291028
     48        1           0.013337946   -0.006890963   -0.014527888
     49        1          -0.004586442   -0.006117296   -0.018924027
     50        1          -0.011101985    0.013894967    0.008567050
     51        1           0.008172542    0.013887816    0.009989191
     52        1           0.023915067   -0.001724953    0.001832043
     53        1          -0.010134192   -0.018287988   -0.013684845
 -------------------------------------------------------------------
 Cartesian Forces:  Max     0.048291667 RMS     0.014523086
 Leave Link  716 at Fri Aug 26 23:48:36 2022, MaxMem=  209715200 cpu:       0.2
 (Enter /opt/gaussian/l103.exe)

 GradGradGradGradGradGradGradGradGradGradGradGradGradGradGradGradGradGrad
 Berny optimization.
 Internal  Forces:  Max     0.045600077 RMS     0.009012115
 Search for a local minimum.
 Step number   1 out of a maximum of  318
 All quantities printed in internal units (Hartrees-Bohrs-Radians)
 RMS Force = .90121D-02 SwitMx=.10000D-02 MixMth= 1
 Mixed Optimization -- RFO/linear search
 Second derivative matrix not updated -- first step.
 ITU=  0
     Eigenvalues ---    0.00230   0.00230   0.00493   0.00880   0.01102
     Eigenvalues ---    0.01161   0.01320   0.01334   0.01384   0.01574
     Eigenvalues ---    0.01618   0.01719   0.01766   0.01770   0.01774
     Eigenvalues ---    0.01834   0.01850   0.01978   0.01995   0.02051
     Eigenvalues ---    0.02056   0.02067   0.02072   0.02081   0.02087
     Eigenvalues ---    0.02096   0.02109   0.02111   0.02123   0.02127
     Eigenvalues ---    0.02127   0.02144   0.02151   0.02153   0.02181
     Eigenvalues ---    0.02184   0.02187   0.02270   0.02319   0.02423
     Eigenvalues ---    0.03029   0.03927   0.04036   0.04853   0.04872
     Eigenvalues ---    0.04881   0.04883   0.05200   0.05556   0.05858
     Eigenvalues ---    0.06182   0.06232   0.06251   0.06495   0.06505
     Eigenvalues ---    0.07896   0.08364   0.09942   0.10156   0.10442
     Eigenvalues ---    0.13192   0.13380   0.15997   0.15998   0.15999
     Eigenvalues ---    0.15999   0.16000   0.16000   0.16000   0.16000
     Eigenvalues ---    0.16000   0.16000   0.16000   0.16000   0.19491
     Eigenvalues ---    0.22000   0.22000   0.22000   0.22028   0.22105
     Eigenvalues ---    0.22582   0.22963   0.23196   0.23445   0.23490
     Eigenvalues ---    0.24000   0.24464   0.24699   0.24973   0.24986
     Eigenvalues ---    0.24990   0.24996   0.24999   0.25000   0.25000
     Eigenvalues ---    0.25000   0.25312   0.26179   0.28040   0.28095
     Eigenvalues ---    0.28431   0.30305   0.30605   0.30637   0.30743
     Eigenvalues ---    0.30897   0.32113   0.32474   0.32526   0.32562
     Eigenvalues ---    0.32572   0.32578   0.32593   0.33069   0.33170
     Eigenvalues ---    0.33535   0.33541   0.33550   0.33558   0.33596
     Eigenvalues ---    0.33615   0.33697   0.33767   0.33942   0.33958
     Eigenvalues ---    0.35001   0.37331   0.38428   0.38961   0.39569
     Eigenvalues ---    0.40483   0.41056   0.41262   0.41653   0.42015
     Eigenvalues ---    0.42763   0.43054   0.43478   0.44019   0.44674
     Eigenvalues ---    0.44827   0.45739   0.45933   0.45997   0.46847
     Eigenvalues ---    0.46957   0.47193   0.47449   0.48360   0.53777
     Eigenvalues ---    0.55143   0.76882   0.85634
 RFO step:  Lambda=-6.19277076D-02 EMin= 2.30000000D-03
 Linear search not attempted -- first point.
 Maximum step size (   0.300) exceeded in Quadratic search.
    -- Step size scaled by   0.771
 Iteration  1 RMS(Cart)=  0.10767248 RMS(Int)=  0.00098030
 Iteration  2 RMS(Cart)=  0.00312171 RMS(Int)=  0.00010204
 Iteration  3 RMS(Cart)=  0.00000332 RMS(Int)=  0.00010203
 Iteration  4 RMS(Cart)=  0.00000000 RMS(Int)=  0.00010203
 Variable       Old X    -DE/DX   Delta X   Delta X   Delta X     New X
                                 (Linear)    (Quad)   (Total)
    R1        2.35013  -0.03312   0.00000  -0.02782  -0.02782   2.32230
    R2        2.91206  -0.01233   0.00000  -0.02747  -0.02747   2.88459
    R3        2.62531  -0.02149   0.00000  -0.03091  -0.03091   2.59440
    R4        2.72143  -0.00687   0.00000  -0.01159  -0.01159   2.70984
    R5        2.12909  -0.03405   0.00000  -0.07083  -0.07083   2.05826
    R6        2.13206  -0.03071   0.00000  -0.06415  -0.06415   2.06792
    R7        2.59564  -0.01080   0.00000  -0.01351  -0.01355   2.58210
    R8        2.67692  -0.03349   0.00000  -0.05405  -0.05405   2.62287
    R9        2.37267  -0.00232   0.00000  -0.00072  -0.00076   2.37191
   R10        2.70631  -0.02672   0.00000  -0.04364  -0.04363   2.66269
   R11        2.63616  -0.01120   0.00000  -0.01722  -0.01719   2.61897
[...]
 ! D139  D(26,25,30,29)          0.3568         -DE/DX =    0.0                 !
 ! D140  D(26,25,30,53)       -178.5327         -DE/DX =    0.0                 !
 ! D141  D(25,26,27,28)         -0.1792         -DE/DX =    0.0                 !
 ! D142  D(25,26,27,51)       -179.6764         -DE/DX =    0.0                 !
 ! D143  D(50,26,27,28)        178.7478         -DE/DX =    0.0                 !
 ! D144  D(50,26,27,51)         -0.7493         -DE/DX =    0.0                 !
 ! D145  D(26,27,28,29)          0.2963         -DE/DX =    0.0                 !
 ! D146  D(26,27,28,52)       -179.7238         -DE/DX =    0.0                 !
 ! D147  D(51,27,28,29)        179.7962         -DE/DX =    0.0                 !
 ! D148  D(51,27,28,52)         -0.2239         -DE/DX =    0.0                 !
 ! D149  D(27,28,29,30)         -0.0824         -DE/DX =    0.0                 !
 ! D150  D(52,28,29,30)        179.9367         -DE/DX =    0.0                 !
 ! D151  D(28,29,30,25)         -0.2551         -DE/DX =    0.0                 !
 ! D152  D(28,29,30,53)        178.6815         -DE/DX =    0.0                 !
 --------------------------------------------------------------------------------
 GradGradGradGradGradGradGradGradGradGradGradGradGradGradGradGradGradGrad

 Largest change from initial coordinates is atom   35       0.564 Angstoms.
 Leave Link  103 at Sat Aug 27 00:18:17 2022, MaxMem=  209715200 cpu:       0.9
 (Enter /opt/gaussian/l202.exe)
 Stoichiometry    C24H23N5O
 Framework group  C1[X(C24H23N5O)]
 Deg. of freedom   153
 Full point group                 C1      NOp   1
 RotChk:  IX=0 Diff= 6.90D-16
 Largest Abelian subgroup         C1      NOp   1
 Largest concise Abelian subgroup C1      NOp   1
                         Standard orientation:                         
 ---------------------------------------------------------------------
 Center     Atomic      Atomic             Coordinates (Angstroms)
 Number     Number       Type             X           Y           Z
 ---------------------------------------------------------------------
      1          8           0        1.017365   -0.550765    2.141885
      2          6           0        1.415028    0.292007    1.338523
      3          6           0        2.880238    0.705233    1.418285
      4          7           0        3.682009    0.042832    0.414752
      5          7           0        4.362668    0.772136   -0.515770
      6          7           0        5.051721   -0.005522   -1.244273
      7          6           0        4.862455   -1.308631   -0.814364
      8          6           0        5.403746   -2.507074   -1.281084
      9          6           0        5.027648   -3.657773   -0.634066
     10          6           0        4.127032   -3.622748    0.455540
     11          6           0        3.585503   -2.448859    0.922363
     12          6           0        3.979348   -1.281736    0.258380
     13          7           0        0.615150    0.841041    0.389698
     14          6           0        1.051060    1.907287   -0.534650
     15          6           0        0.788629    3.315047   -0.019823
     16          6           0        1.227286    4.486974   -0.943756
     17          6           0       -0.081738    5.231337   -0.571206
     18          6           0       -0.657336    3.892204   -0.040376
     19          6           0       -0.741083    0.378783    0.277863
     20          6           0       -1.672402    0.651952    1.268343
     21          6           0       -2.979350    0.216509    1.133348
     22          6           0       -3.387462   -0.493622    0.004591
     23          6           0       -2.440857   -0.764892   -0.981136
     24          6           0       -1.129058   -0.340413   -0.842157
     25          6           0       -4.791750   -0.952789   -0.140234
     26          6           0       -5.870576   -0.125231    0.164379
     27          6           0       -7.164340   -0.597571    0.011747
     28          6           0       -7.351322   -1.890756   -0.447463
     29          7           0       -6.327406   -2.690344   -0.739234
     30          6           0       -5.085790   -2.239278   -0.588920
     31          1           0        3.029903    1.764105    1.293732
     32          1           0        3.218305    0.415706    2.401466
     33          1           0        6.083569   -2.512195   -2.108959
     34          1           0        5.416602   -4.603903   -0.954824
     35          1           0        3.855697   -4.546231    0.928956
     36          1           0        2.887908   -2.426955    1.734404
     37          1           0        2.100609    1.786073   -0.753189
     38          1           0        0.523857    1.758388   -1.467081
     39          1           0        1.223682    3.430508    0.967970
     40          1           0        2.164816    4.972993   -0.711882
     41          1           0        1.244186    4.192730   -1.987499
     42          1           0        0.069987    5.955695    0.219125
     43          1           0       -0.618963    5.711534   -1.377154
     44          1           0       -1.280288    3.396185   -0.774856
     45          1           0       -1.192441    3.919126    0.898354
     46          1           0       -1.368689    1.179884    2.149462
     47          1           0       -3.680752    0.411488    1.921211
     48          1           0       -2.729026   -1.300024   -1.864925
     49          1           0       -0.407580   -0.569508   -1.602350
     50          1           0       -5.698939    0.879393    0.499281
     51          1           0       -8.007338    0.024920    0.235719
     52          1           0       -8.331063   -2.298963   -0.585747
     53          1           0       -4.301416   -2.931588   -0.817272
 ---------------------------------------------------------------------
 Rotational constants (GHZ):      0.2235141      0.0796152      0.0635410
 Leave Link  202 at Sat Aug 27 00:18:17 2022, MaxMem=  209715200 cpu:       0.0
 (Enter /opt/gaussian/l601.exe)
 Copying SCF densities to generalized density rwf, IOpCl= 0 IROHF=0.

 **********************************************************************

            Population analysis using the SCF density.

 **********************************************************************

 Orbital symmetries:
       Occupied  (A) (A) (A) (A) (A) (A) (A) (A) (A) (A) (A) (A)
                 (A) (A) (A) (A) (A) (A) (A) (A) (A) (A) (A) (A)
                 (A) (A) (A) (A) (A) (A) (A) (A) (A) (A) (A) (A)
                 (A) (A) (A) (A) (A) (A) (A) (A) (A) (A) (A) (A)
                 (A) (A) (A) (A) (A) (A) (A) (A) (A) (A) (A) (A)
                 (A) (A) (A) (A) (A) (A) (A) (A) (A) (A) (A) (A)
                 (A) (A) (A) (A) (A) (A) (A) (A) (A) (A) (A) (A)
                 (A) (A) (A) (A) (A) (A) (A) (A) (A) (A) (A) (A)
                 (A) (A) (A) (A) (A) (A) (A) (A) (A)
       Virtual   (A) (A) (A) (A) (A) (A) (A) (A) (A) (A) (A) (A)
                 (A) (A) (A) (A) (A) (A) (A) (A) (A) (A) (A) (A)
                 (A) (A) (A) (A) (A) (A) (A) (A) (A) (A) (A) (A)
                 (A) (A) (A) (A) (A) (A) (A) (A) (A) (A) (A) (A)
                 (A) (A) (A) (A) (A) (A) (A) (A) (A) (A) (A) (A)
                 (A) (A) (A) (A) (A) (A) (A) (A) (A) (A) (A) (A)
                 (A) (A) (A) (A) (A) (A) (A) (A) (A) (A) (A) (A)
                 (A) (A) (A) (A) (A) (A) (A) (A) (A) (A) (A) (A)
                 (A) (A) (A) (A) (A) (A) (A) (A) (A) (A) (A) (A)
                 (A) (A) (A) (A) (A) (A) (A) (A) (A) (A) (A) (A)
                 (A) (A) (A) (A) (A) (A) (A) (A) (A) (A) (A) (A)
                 (A) (A) (A) (A) (A) (A) (A) (A) (A) (A) (A) (A)
                 (A) (A) (A) (A) (A) (A) (A) (A) (A) (A) (A) (A)
                 (A) (A) (A) (A) (A) (A) (A) (A) (A) (A) (A) (A)
                 (A) (A) (A) (A) (A) (A) (A) (A) (A) (A) (A) (A)
                 (A) (A) (A) (A) (A) (A) (A) (A) (A) (A) (A) (A)
                 (A) (A) (A) (A) (A) (A) (A) (A) (A) (A) (A) (A)
                 (A) (A) (A) (A) (A) (A) (A)
 The electronic state is 1-A.
 Alpha  occ. eigenvalues --  -20.54430 -15.67496 -15.66684 -15.62320 -15.61258
 Alpha  occ. eigenvalues --  -15.57624 -11.38407 -11.31000 -11.30225 -11.29170
 Alpha  occ. eigenvalues --  -11.27935 -11.27934 -11.27898 -11.27471 -11.26445
 Alpha  occ. eigenvalues --  -11.26354 -11.26293 -11.25884 -11.25696 -11.25476
 Alpha  occ. eigenvalues --  -11.25139 -11.25099 -11.24965 -11.24946 -11.24841
 Alpha  occ. eigenvalues --  -11.24761 -11.24435 -11.23063 -11.22941 -11.22853
 Alpha  occ. eigenvalues --   -1.48434  -1.41490  -1.28060  -1.27660  -1.25581
 Alpha  occ. eigenvalues --   -1.18412  -1.17737  -1.14870  -1.10946  -1.07178
 Alpha  occ. eigenvalues --   -1.06733  -1.05358  -1.03718  -1.02704  -1.01530
 Alpha  occ. eigenvalues --   -0.99051  -0.91469  -0.89512  -0.89001  -0.88078
 Alpha  occ. eigenvalues --   -0.87320  -0.85831  -0.84293  -0.84067  -0.81933
 Alpha  occ. eigenvalues --   -0.77868  -0.76531  -0.74174  -0.73476  -0.72948
 Alpha  occ. eigenvalues --   -0.70355  -0.70214  -0.68623  -0.68085  -0.66647
 Alpha  occ. eigenvalues --   -0.66070  -0.66031  -0.65836  -0.63780  -0.63186
 Alpha  occ. eigenvalues --   -0.63050  -0.62680  -0.62350  -0.60453  -0.59781
 Alpha  occ. eigenvalues --   -0.59325  -0.58899  -0.57780  -0.56801  -0.55222
 Alpha  occ. eigenvalues --   -0.55148  -0.54886  -0.54136  -0.53883  -0.52904
 Alpha  occ. eigenvalues --   -0.51769  -0.51523  -0.51116  -0.50501  -0.50149
 Alpha  occ. eigenvalues --   -0.48471  -0.46929  -0.45973  -0.45005  -0.44376
 Alpha  occ. eigenvalues --   -0.43470  -0.42346  -0.40739  -0.39911  -0.38373
 Alpha  occ. eigenvalues --   -0.36732  -0.35023  -0.34504  -0.32724  -0.31598
 Alpha virt. eigenvalues --    0.08929   0.09685   0.12026   0.12895   0.14866
 Alpha virt. eigenvalues --    0.15398   0.17040   0.19626   0.20675   0.23234
 Alpha virt. eigenvalues --    0.23995   0.24283   0.24507   0.25228   0.25931
 Alpha virt. eigenvalues --    0.27014   0.27621   0.28325   0.29145   0.29367
 Alpha virt. eigenvalues --    0.29781   0.30636   0.31793   0.32007   0.32253
 Alpha virt. eigenvalues --    0.32623   0.32985   0.33573   0.34072   0.34567
 Alpha virt. eigenvalues --    0.35147   0.35394   0.35768   0.36664   0.37220
 Alpha virt. eigenvalues --    0.37438   0.38064   0.38630   0.39254   0.40108
 Alpha virt. eigenvalues --    0.40327   0.41627   0.41966   0.42632   0.43732
 Alpha virt. eigenvalues --    0.44360   0.45737   0.46615   0.48019   0.48511
 Alpha virt. eigenvalues --    0.49730   0.50433   0.51657   0.51971   0.52573
 Alpha virt. eigenvalues --    0.53969   0.54721   0.57478   0.58452   0.59546
 Alpha virt. eigenvalues --    0.61292   0.62460   0.63686   0.65694   0.68409
 Alpha virt. eigenvalues --    0.70776   0.71751   0.72352   0.73515   0.74036
 Alpha virt. eigenvalues --    0.74229   0.75084   0.75373   0.76274   0.77010
 Alpha virt. eigenvalues --    0.77903   0.78406   0.78713   0.78825   0.79130
 Alpha virt. eigenvalues --    0.79913   0.80823   0.81637   0.82170   0.82636
 Alpha virt. eigenvalues --    0.82767   0.83318   0.83587   0.84671   0.85143
 Alpha virt. eigenvalues --    0.85324   0.85427   0.85671   0.86030   0.86323
 Alpha virt. eigenvalues --    0.86511   0.86977   0.87578   0.88034   0.88662
 Alpha virt. eigenvalues --    0.89189   0.90086   0.90656   0.91256   0.92045
 Alpha virt. eigenvalues --    0.92514   0.93162   0.93966   0.94136   0.95421
 Alpha virt. eigenvalues --    0.96476   0.96938   0.97249   0.98660   0.99234
 Alpha virt. eigenvalues --    0.99842   1.00165   1.00469   1.00899   1.02954
 Alpha virt. eigenvalues --    1.04050   1.04370   1.05631   1.07022   1.09365
 Alpha virt. eigenvalues --    1.10068   1.10794   1.11492   1.11900   1.12022
 Alpha virt. eigenvalues --    1.12201   1.12815   1.12997   1.13241   1.13698
 Alpha virt. eigenvalues --    1.14136   1.14486   1.15143   1.15985   1.16086
 Alpha virt. eigenvalues --    1.16750   1.17287   1.17581   1.18971   1.19096
 Alpha virt. eigenvalues --    1.19719   1.20223   1.20607   1.20836   1.21383
 Alpha virt. eigenvalues --    1.22585   1.23195   1.23739   1.24378   1.25664
 Alpha virt. eigenvalues --    1.26089   1.26514   1.27070   1.27770   1.28710
 Alpha virt. eigenvalues --    1.29333   1.29390   1.29876   1.30783   1.31177
 Alpha virt. eigenvalues --    1.32972   1.34331   1.35098   1.36337   1.37803
 Alpha virt. eigenvalues --    1.38381   1.39007   1.40095   1.41966   1.42543
 Alpha virt. eigenvalues --    1.43326   1.44504   1.45322   1.46987   1.48654
 Alpha virt. eigenvalues --    1.50326   1.50391   1.51892   1.53255   1.54056
 Alpha virt. eigenvalues --    1.56261   1.59115   1.60224   1.61148   1.64075
 Alpha virt. eigenvalues --    1.64695   1.70046   1.72185   1.72829   1.73178
 Alpha virt. eigenvalues --    1.75008   1.75907   1.79925   1.82846   1.84330
 Alpha virt. eigenvalues --    1.90593   1.93542   1.95760   2.04950   2.08923
 Alpha virt. eigenvalues --    2.10863   2.12428   2.22021   2.25122   2.34412
 Alpha virt. eigenvalues --    2.35927
          Condensed to atoms (all electrons):
 Mulliken atomic charges:
              1
     1  O   -0.604366
     2  C    0.779606
     3  C   -0.122201
     4  N   -0.879629
     5  N    0.076772
     6  N   -0.333872
     7  C   -0.012726
     8  C   -0.082939
     9  C   -0.229971
    10  C   -0.209577
    11  C   -0.081147
    12  C    0.437370
    13  N   -0.949465
    14  C   -0.084550
    15  C   -0.183398
    16  C   -0.312540
    17  C   -0.321705
    18  C   -0.297302
    19  C    0.297295
    20  C   -0.138776
    21  C   -0.211153
    22  C   -0.013161
    23  C   -0.204323
    24  C   -0.175912
    25  C   -0.091290
    26  C   -0.140616
    27  C   -0.245174
    28  C    0.058545
    29  N   -0.533057
    30  C    0.060764
    31  H    0.237582
    32  H    0.242442
    33  H    0.241264
    34  H    0.206806
    35  H    0.211114
    36  H    0.279629
    37  H    0.227696
    38  H    0.185288
    39  H    0.161306
    40  H    0.170391
    41  H    0.167143
    42  H    0.166543
    43  H    0.164079
    44  H    0.169289
    45  H    0.162692
    46  H    0.224059
    47  H    0.217203
    48  H    0.221258
    49  H    0.223063
    50  H    0.222769
    51  H    0.214398
    52  H    0.211145
    53  H    0.221340
 Sum of Mulliken atomic charges =   0.00000
 Mulliken charges with hydrogens summed into heavy atoms:
              1
     1  O   -0.604366
     2  C    0.779606
     3  C    0.357823
     4  N   -0.879629
     5  N    0.076772
     6  N   -0.333872
     7  C   -0.012726
     8  C    0.158325
     9  C   -0.023165
    10  C    0.001538
    11  C    0.198483
    12  C    0.437370
    13  N   -0.949465
    14  C    0.328433
    15  C   -0.022092
    16  C    0.024994
    17  C    0.008916
    18  C    0.034679
    19  C    0.297295
    20  C    0.085282
    21  C    0.006050
    22  C   -0.013161
    23  C    0.016935
    24  C    0.047151
    25  C   -0.091290
    26  C    0.082153
    27  C   -0.030776
    28  C    0.269689
    29  N   -0.533057
    30  C    0.282104
 Sum of Mulliken charges with hydrogens summed into heavy atoms =   0.00000
 Electronic spatial extent (au):  <R**2>=          16261.1730
 Charge=              0.0000 electrons
 Dipole moment (field-independent basis, Debye):
    X=             -1.1932    Y=              2.8419    Z=              0.6935  Tot=              3.1593
 Quadrupole moment (field-independent basis, Debye-Ang):
   XX=           -182.3637   YY=           -172.3540   ZZ=           -180.4737
   XY=            -26.7311   XZ=              1.5122   YZ=              7.2760
 Traceless Quadrupole moment (field-independent basis, Debye-Ang):
   XX=             -3.9665   YY=              6.0431   ZZ=             -2.0766
   XY=            -26.7311   XZ=              1.5122   YZ=              7.2760
 Octapole moment (field-independent basis, Debye-Ang**2):
  XXX=           -169.0482  YYY=             10.2129  ZZZ=             -0.5585  XYY=            111.3281
  XXY=             26.9100  XXZ=             77.1410  XZZ=             11.4300  YZZ=             16.2218
  YYZ=             12.2828  XYZ=             32.9477
 Hexadecapole moment (field-independent basis, Debye-Ang**3):
 XXXX=         -15584.2531 YYYY=          -5450.6779 ZZZZ=          -1078.1744 XXXY=           -893.7400
 XXXZ=           -158.0034 YYYX=           -427.5149 YYYZ=            -31.2847 ZZZX=             -0.1551
 ZZZY=             34.0021 XXYY=          -3818.0133 XXZZ=          -2977.1799 YYZZ=          -1091.1268
 XXYZ=            101.1686 YYXZ=            -74.4100 ZZXY=            -53.1365
 N-N= 2.689477498526D+03 E-N=-8.340135919474D+03  KE= 1.270151977897D+03
 No NMR shielding tensors so no spin-rotation constants.
 Leave Link  601 at Sat Aug 27 00:18:17 2022, MaxMem=  209715200 cpu:       1.3
 (Enter /opt/gaussian/l9999.exe)
 1\1\GINC-LQCAPF-6\FOpt\RHF\6-31G\C24H23N5O1\LQCAPF-6\27-Aug-2022\0\\#p
  opt hf/6-31G\\Mol24.out\\0,1\O,21.7942545849,-7.9682053181,-3.0968091
 044\C,22.3255376475,-8.4657298616,-2.1048421619\C,23.8445808571,-8.385
 7814006,-2.0044631824\N,24.2709424028,-7.3197023272,-1.1267494386\N,25
 .018360401,-7.5956458253,-0.0193767935\N,25.3379801701,-6.5120329382,0
 .5584553133\C,24.8150115534,-5.4491253978,-0.1595051882\C,24.899609295
 ,-4.0739846439,0.0616745069\C,24.2745679535,-3.2545067943,-0.844950848
 3\C,23.5737991963,-3.7883232413,-1.951088634\C,23.4814721458,-5.140825
 6254,-2.1778150255\C,24.1261330517,-5.9664898709,-1.2499923398\N,21.61
 8567295,-9.0540346662,-1.1070432579\C,22.2390023634,-9.7229437696,0.05
 43954106\C,22.4876914034,-11.2101371775,-0.150824188\C,23.1431238639,-
 11.976081862,1.0337530665\C,22.183214108,-13.1631664557,0.7584060126\C
 ,21.2975175487,-12.2121158868,-0.0885975758\C,20.1832644712,-9.0469352
 495,-1.180607833\C,19.5138577032,-9.7923685646,-2.139382931\C,18.13032
 516,-9.7896112662,-2.1815568657\C,17.3846709932,-9.04998025,-1.2640179
 578\C,18.0696845497,-8.3022260841,-0.3085457672\C,19.4549420235,-8.294
 009513,-0.2723883001\C,15.9007891357,-9.0551223789,-1.3076248137\C,15.
 1749203657,-10.2312262621,-1.4848281445\C,13.7902934392,-10.1866440269
 ,-1.5172181195\C,13.1597181725,-8.9626834433,-1.3673535286\N,13.843972
 267,-7.8328306955,-1.1997093536\C,15.1725908961,-7.8742772182,-1.17285
 131\H,24.2941537612,-9.2936686785,-1.6401187285\H,24.1996395438,-8.194
 8947229,-3.005589914\H,25.4344212068,-3.6897475046,0.9066011781\H,24.3
 111984732,-2.190487122,-0.7190398068\H,23.0951381656,-3.1119749302,-2.
 6322655214\H,22.9330222938,-5.5433795957,-3.0046652353\H,23.1644108783
 ,-9.2268152145,0.3023459804\H,21.577711157,-9.5792288299,0.8979481078\
 H,23.0588258852,-11.3634931235,-1.0611122471\H,24.205886429,-12.164595
 561,0.9709763051\H,22.9365724352,-11.499150075,1.9856651316\H,22.64838
 91811,-13.9350570406,0.1582936201\H,21.7211070054,-13.629326506,1.6174
 199682\H,20.4647325593,-11.8159528358,0.4798108452\H,20.919983802,-12.
 5904829014,-1.0280564732\H,20.0738156255,-10.3501312353,-2.8623435989\
 H,17.6282011051,-10.3490508858,-2.9468072541\H,17.5218487787,-7.732219
 3819,0.4163402621\H,19.9690741674,-7.7017094083,0.4595665001\H,15.6869
 057421,-11.1693074,-1.5784326692\H,13.2139157686,-11.0806004254,-1.647
 3507298\H,12.0928249006,-8.8778237315,-1.3809614253\H,15.6717261164,-6
 .9339548753,-1.057365942\\Version=EM64L-G09RevC.01\State=1-A\HF=-1268.
 7380861\RMSD=5.959e-09\RMSF=5.366e-06\Dipole=-0.0660174,-1.240352,-0.0
 459766\Quadrupole=-13.020522,17.2528945,-4.2323726,12.1276009,-6.66179
 38,2.6683223\PG=C01 [X(C24H23N5O1)]\\@


 A DANDELION FROM A LOVER MEANS MORE THAN AN ORCHID FROM A FRIEND.
 Job cpu time:  0 days  4 hours  8 minutes 48.7 seconds.
 File lengths (MBytes):  RWF=     69 Int=      0 D2E=      0 Chk=     11 Scr=      1
 Normal termination of Gaussian 09 at Sat Aug 27 00:18:17 2022.
