 Entering Gaussian System, Link 0=g09
 Input=Mol21.gjf
 Output=Mol21.log
 Initial command:
 /opt/gaussian/l1.exe /home/scr/lqcapf-6/Gau-262410.inp -scrdir=/home/scr/lqcapf-6/
 Entering Link 1 = /opt/gaussian/l1.exe PID=    262412.
  
 Copyright (c) 1988,1990,1992,1993,1995,1998,2003,2009,2011,
            Gaussian, Inc.  All Rights Reserved.
  
 This is part of the Gaussian(R) 09 program.  It is based on
 the Gaussian(R) 03 system (copyright 2003, Gaussian, Inc.),
 the Gaussian(R) 98 system (copyright 1998, Gaussian, Inc.),
 the Gaussian(R) 94 system (copyright 1995, Gaussian, Inc.),
 the Gaussian 92(TM) system (copyright 1992, Gaussian, Inc.),
 the Gaussian 90(TM) system (copyright 1990, Gaussian, Inc.),
 the Gaussian 88(TM) system (copyright 1988, Gaussian, Inc.),
 the Gaussian 86(TM) system (copyright 1986, Carnegie Mellon
 University), and the Gaussian 82(TM) system (copyright 1983,
 Carnegie Mellon University). Gaussian is a federally registered
 trademark of Gaussian, Inc.
  
 This software contains proprietary and confidential information,
 including trade secrets, belonging to Gaussian, Inc.
  
 This software is provided under written license and may be
 used, copied, transmitted, or stored only in accord with that
 written license.
  
 The following legend is applicable only to US Government
 contracts under FAR:
  
                    RESTRICTED RIGHTS LEGEND
  
 Use, reproduction and disclosure by the US Government is
 subject to restrictions as set forth in subparagraphs (a)
 and (c) of the Commercial Computer Software - Restricted
 Rights clause in FAR 52.227-19.
  
 Gaussian, Inc.
 340 Quinnipiac St., Bldg. 40, Wallingford CT 06492
  
  
 ---------------------------------------------------------------
 Warning -- This program may not be used in any manner that
 competes with the business of Gaussian, Inc. or will provide
 assistance to any competitor of Gaussian, Inc.  The licensee
 of this program is prohibited from giving any competitor of
 Gaussian, Inc. access to this program.  By using this program,
 the user acknowledges that Gaussian, Inc. is engaged in the
 business of creating and licensing software in the field of
 computational chemistry and represents and warrants to the
 licensee that it is not a competitor of Gaussian, Inc. and that
 it will not use this program in any manner prohibited above.
 ---------------------------------------------------------------
  

 Cite this work as:
 Gaussian 09, Revision C.01,
 M. J. Frisch, G. W. Trucks, H. B. Schlegel, G. E. Scuseria, 
 M. A. Robb, J. R. Cheeseman, G. Scalmani, V. Barone, B. Mennucci, 
 G. A. Petersson, H. Nakatsuji, M. Caricato, X. Li, H. P. Hratchian, 
 A. F. Izmaylov, J. Bloino, G. Zheng, J. L. Sonnenberg, M. Hada, 
 M. Ehara, K. Toyota, R. Fukuda, J. Hasegawa, M. Ishida, T. Nakajima, 
 Y. Honda, O. Kitao, H. Nakai, T. Vreven, J. A. Montgomery, Jr., 
 J. E. Peralta, F. Ogliaro, M. Bearpark, J. J. Heyd, E. Brothers, 
 K. N. Kudin, V. N. Staroverov, T. Keith, R. Kobayashi, J. Normand, 
 K. Raghavachari, A. Rendell, J. C. Burant, S. S. Iyengar, J. Tomasi, 
 M. Cossi, N. Rega, J. M. Millam, M. Klene, J. E. Knox, J. B. Cross, 
 V. Bakken, C. Adamo, J. Jaramillo, R. Gomperts, R. E. Stratmann, 
 O. Yazyev, A. J. Austin, R. Cammi, C. Pomelli, J. W. Ochterski, 
 R. L. Martin, K. Morokuma, V. G. Zakrzewski, G. A. Voth, 
 P. Salvador, J. J. Dannenberg, S. Dapprich, A. D. Daniels, 
 O. Farkas, J. B. Foresman, J. V. Ortiz, J. Cioslowski, 
 and D. J. Fox, Gaussian, Inc., Wallingford CT, 2010.
 
 ******************************************
 Gaussian 09:  EM64L-G09RevC.01 23-Sep-2011
                26-Aug-2022 
 ******************************************
 %nprocshared=8
 Will use up to    8 processors via shared memory.
 %mem=1600MB
 ---------------
 #p opt hf/6-31G
 ---------------
 1/18=20,19=15,38=1/1,3;
 2/9=110,12=2,17=6,18=5,40=1/2;
 3/5=1,6=6,11=9,16=1,25=1,30=1,71=1/1,2,3;
 4//1;
 5/5=2,38=5/2;
 6/7=2,8=2,9=2,10=2,28=1/1;
 7//1,2,3,16;
 1/18=20,19=15/3(2);
 2/9=110/2;
 99//99;
 2/9=110/2;
 3/5=1,6=6,11=9,16=1,25=1,30=1,71=1/1,2,3;
 4/5=5,16=3/1;
 5/5=2,38=5/2;
 7//1,2,3,16;
 1/18=20,19=15/3(-5);
 2/9=110/2;
 6/7=2,8=2,9=2,10=2,19=2,28=1/1;
 99/9=1/99;
 Leave Link    1 at Fri Aug 26 22:10:45 2022, MaxMem=  209715200 cpu:       0.1
 (Enter /opt/gaussian/l101.exe)
 ---------
 Mol21.out
 ---------
 Charge =  0 Multiplicity = 1
 Symbolic Z-Matrix:
 O                     20.7324  -7.6844   -1.5067 
 C                     21.256   -8.722    -1.0715 
 C                     22.7211  -8.7515   -0.5969 
 N                     23.462   -7.5374   -0.819 
 N                     23.2839  -6.3928   -0.0778 
 N                     23.7756  -5.382    -0.6349 
 C                     24.3017  -5.7529   -1.9155 
 C                     24.9477  -5.0435   -2.927 
 C                     25.3421  -5.753    -4.057 
 C                     25.11    -7.1321   -4.1836 
 C                     24.4735  -7.8693   -3.19 
 C                     24.0641  -7.1754   -2.0512 
 N                     20.5359  -9.9152   -0.9544 
 C                     21.1829  -11.1361  -0.5294 
 C                     22.088   -11.7979  -1.5117 
 C                     23.1536  -12.6575  -1.0774 
 C                     23.8291  -13.202   -2.1459 
 S                     23.1945  -12.6872  -3.6026 
 C                     22.0214  -11.7413  -2.8894 
 C                     19.185   -10.0023  -1.3884 
 C                     18.7303  -11.1365  -2.0959 
 C                     17.3976  -11.2443  -2.4718 
 C                     16.4771  -10.2323  -2.1643 
 C                     16.9303  -9.095    -1.4811 
 C                     18.2612  -8.9767   -1.0953 
 C                     15.0871  -10.3751  -2.5478 
 C                     14.4435  -11.5763  -2.9313 
 N                     13.1203  -11.2439  -3.2045 
 C                     12.994   -9.8662   -2.9827 
 N                     14.1593  -9.3189   -2.5864 
 H                     22.7217  -8.9628    0.5125 
 H                     23.2649  -9.5792   -1.1384 
 H                     25.1342  -3.9645   -2.8312 
 H                     25.8484  -5.2208   -4.8765 
 H                     25.4388  -7.6456   -5.1005 
 H                     24.2988  -8.9471   -3.3011 
 H                     21.7742  -10.9153   0.4093 
 H                     20.3789  -11.8808  -0.2451 
 H                     23.3787  -12.8445  -0.0256 
 H                     24.6738  -13.8861  -2.0776 
 H                     21.3003  -11.1588  -3.4646 
 H                     19.4286  -11.9472  -2.3594 
 H                     17.0673  -12.1357  -3.0262 
 H                     16.2285  -8.28     -1.2409 
 H                     18.5936  -8.0629   -0.576 
 H                     14.8224  -12.5926  -3.0135 
 H                     12.0517  -9.3267   -3.1228 
 H                     12.4137  -11.8623  -3.4995 
 
 NAtoms=     48 NQM=        0 NQMF=       0 NMMI=     48 NMMIF=      0
                NMic=       0 NMicF=      0.
                    Isotopes and Nuclear Properties:
 (Nuclear quadrupole moments (NQMom) in fm**2, nuclear magnetic moments (NMagM)
  in nuclear magnetons)

  Atom         1           2           3           4           5           6           7           8           9          10
 IAtWgt=          16          12          12          14          14          14          12          12          12          12
 AtmWgt=  15.9949146  12.0000000  12.0000000  14.0030740  14.0030740  14.0030740  12.0000000  12.0000000  12.0000000  12.0000000
 NucSpn=           0           0           0           2           2           2           0           0           0           0
 AtZEff=   0.0000000   0.0000000   0.0000000   0.0000000   0.0000000   0.0000000   0.0000000   0.0000000   0.0000000   0.0000000
 NQMom=    0.0000000   0.0000000   0.0000000   2.0440000   2.0440000   2.0440000   0.0000000   0.0000000   0.0000000   0.0000000
 NMagM=    0.0000000   0.0000000   0.0000000   0.4037610   0.4037610   0.4037610   0.0000000   0.0000000   0.0000000   0.0000000

  Atom        11          12          13          14          15          16          17          18          19          20
 IAtWgt=          12          12          14          12          12          12          12          32          12          12
 AtmWgt=  12.0000000  12.0000000  14.0030740  12.0000000  12.0000000  12.0000000  12.0000000  31.9720718  12.0000000  12.0000000
 NucSpn=           0           0           2           0           0           0           0           0           0           0
 AtZEff=   0.0000000   0.0000000   0.0000000   0.0000000   0.0000000   0.0000000   0.0000000   0.0000000   0.0000000   0.0000000
 NQMom=    0.0000000   0.0000000   2.0440000   0.0000000   0.0000000   0.0000000   0.0000000   0.0000000   0.0000000   0.0000000
 NMagM=    0.0000000   0.0000000   0.4037610   0.0000000   0.0000000   0.0000000   0.0000000   0.0000000   0.0000000   0.0000000

  Atom        21          22          23          24          25          26          27          28          29          30
 IAtWgt=          12          12          12          12          12          12          12          14          12          14
 AtmWgt=  12.0000000  12.0000000  12.0000000  12.0000000  12.0000000  12.0000000  12.0000000  14.0030740  12.0000000  14.0030740
 NucSpn=           0           0           0           0           0           0           0           2           0           2
 AtZEff=   0.0000000   0.0000000   0.0000000   0.0000000   0.0000000   0.0000000   0.0000000   0.0000000   0.0000000   0.0000000
 NQMom=    0.0000000   0.0000000   0.0000000   0.0000000   0.0000000   0.0000000   0.0000000   2.0440000   0.0000000   2.0440000
 NMagM=    0.0000000   0.0000000   0.0000000   0.0000000   0.0000000   0.0000000   0.0000000   0.4037610   0.0000000   0.4037610

  Atom        31          32          33          34          35          36          37          38          39          40
 IAtWgt=           1           1           1           1           1           1           1           1           1           1
 AtmWgt=   1.0078250   1.0078250   1.0078250   1.0078250   1.0078250   1.0078250   1.0078250   1.0078250   1.0078250   1.0078250
 NucSpn=           1           1           1           1           1           1           1           1           1           1
 AtZEff=   0.0000000   0.0000000   0.0000000   0.0000000   0.0000000   0.0000000   0.0000000   0.0000000   0.0000000   0.0000000
 NQMom=    0.0000000   0.0000000   0.0000000   0.0000000   0.0000000   0.0000000   0.0000000   0.0000000   0.0000000   0.0000000
 NMagM=    2.7928460   2.7928460   2.7928460   2.7928460   2.7928460   2.7928460   2.7928460   2.7928460   2.7928460   2.7928460

  Atom        41          42          43          44          45          46          47          48
 IAtWgt=           1           1           1           1           1           1           1           1
 AtmWgt=   1.0078250   1.0078250   1.0078250   1.0078250   1.0078250   1.0078250   1.0078250   1.0078250
 NucSpn=           1           1           1           1           1           1           1           1
 AtZEff=   0.0000000   0.0000000   0.0000000   0.0000000   0.0000000   0.0000000   0.0000000   0.0000000
 NQMom=    0.0000000   0.0000000   0.0000000   0.0000000   0.0000000   0.0000000   0.0000000   0.0000000
 NMagM=    2.7928460   2.7928460   2.7928460   2.7928460   2.7928460   2.7928460   2.7928460   2.7928460
 Leave Link  101 at Fri Aug 26 22:10:45 2022, MaxMem=  209715200 cpu:       0.8
 (Enter /opt/gaussian/l103.exe)

 GradGradGradGradGradGradGradGradGradGradGradGradGradGradGradGradGradGrad
 Berny optimization.
 Initialization pass.
                           ----------------------------
                           !    Initial Parameters    !
                           ! (Angstroms and Degrees)  !
 --------------------------                            --------------------------
 ! Name  Definition              Value          Derivative Info.                !
 --------------------------------------------------------------------------------
 ! R1    R(1,2)                  1.241          estimate D2E/DX2                !
 ! R2    R(2,3)                  1.5403         estimate D2E/DX2                !
 ! R3    R(2,13)                 1.3986         estimate D2E/DX2                !
 ! R4    R(3,4)                  1.4395         estimate D2E/DX2                !
 ! R5    R(3,31)                 1.1293         estimate D2E/DX2                !
 ! R6    R(3,32)                 1.1287         estimate D2E/DX2                !
 ! R7    R(4,5)                  1.3752         estimate D2E/DX2                !
 ! R8    R(4,12)                 1.4184         estimate D2E/DX2                !
 ! R9    R(5,6)                  1.2545         estimate D2E/DX2                !
 ! R10   R(6,7)                  1.4333         estimate D2E/DX2                !
 ! R11   R(7,8)                  1.3942         estimate D2E/DX2                !
 ! R12   R(7,12)                 1.4486         estimate D2E/DX2                !
 ! R13   R(8,9)                  1.3913         estimate D2E/DX2                !
 ! R14   R(8,33)                 1.0992         estimate D2E/DX2                !
 ! R15   R(9,10)                 1.4042         estimate D2E/DX2                !
 ! R16   R(9,34)                 1.1005         estimate D2E/DX2                !
 ! R17   R(10,11)                1.3913         estimate D2E/DX2                !
 ! R18   R(10,35)                1.1011         estimate D2E/DX2                !
 ! R19   R(11,12)                1.395          estimate D2E/DX2                !
 ! R20   R(11,36)                1.0975         estimate D2E/DX2                !
 ! R21   R(13,14)                1.4456         estimate D2E/DX2                !
 ! R22   R(13,20)                1.4216         estimate D2E/DX2                !
 ! R23   R(14,15)                1.4907         estimate D2E/DX2                !
 ! R24   R(14,37)                1.1312         estimate D2E/DX2                !
 ! R25   R(14,38)                1.1322         estimate D2E/DX2                !
 ! R26   R(15,16)                1.4363         estimate D2E/DX2                !
 ! R27   R(15,19)                1.3805         estimate D2E/DX2                !
 ! R28   R(16,17)                1.3764         estimate D2E/DX2                !
 ! R29   R(16,39)                1.0918         estimate D2E/DX2                !
 ! R30   R(17,18)                1.6702         estimate D2E/DX2                !
 ! R31   R(17,40)                1.0891         estimate D2E/DX2                !
 ! R32   R(18,19)                1.6672         estimate D2E/DX2                !
 ! R33   R(19,41)                1.0909         estimate D2E/DX2                !
 ! R34   R(20,21)                1.412          estimate D2E/DX2                !
 ! R35   R(20,25)                1.4111         estimate D2E/DX2                !
 ! R36   R(21,22)                1.3889         estimate D2E/DX2                !
 ! R37   R(21,42)                1.1019         estimate D2E/DX2                !
 ! R38   R(22,23)                1.4021         estimate D2E/DX2                !
 ! R39   R(22,43)                1.1005         estimate D2E/DX2                !
 ! R40   R(23,24)                1.402          estimate D2E/DX2                !
 ! R41   R(23,26)                1.449          estimate D2E/DX2                !
 ! R42   R(24,25)                1.3907         estimate D2E/DX2                !
 ! R43   R(24,44)                1.102          estimate D2E/DX2                !
 ! R44   R(25,45)                1.1024         estimate D2E/DX2                !
 ! R45   R(26,27)                1.4157         estimate D2E/DX2                !
 ! R46   R(26,30)                1.4064         estimate D2E/DX2                !
 ! R47   R(27,28)                1.3914         estimate D2E/DX2                !
 ! R48   R(27,46)                1.0877         estimate D2E/DX2                !
 ! R49   R(28,29)                1.4011         estimate D2E/DX2                !
 ! R50   R(28,48)                0.9842         estimate D2E/DX2                !
 ! R51   R(29,30)                1.347          estimate D2E/DX2                !
 ! R52   R(29,47)                1.0948         estimate D2E/DX2                !
 ! A1    A(1,2,3)              121.6924         estimate D2E/DX2                !
 ! A2    A(1,2,13)             121.6976         estimate D2E/DX2                !
 ! A3    A(3,2,13)             116.5897         estimate D2E/DX2                !
 ! A4    A(2,3,4)              115.2043         estimate D2E/DX2                !
 ! A5    A(2,3,31)             107.8642         estimate D2E/DX2                !
 ! A6    A(2,3,32)             108.9339         estimate D2E/DX2                !
 ! A7    A(4,3,31)             108.0041         estimate D2E/DX2                !
 ! A8    A(4,3,32)             107.2464         estimate D2E/DX2                !
 ! A9    A(31,3,32)            109.5005         estimate D2E/DX2                !
 ! A10   A(3,4,5)              123.5147         estimate D2E/DX2                !
 ! A11   A(3,4,12)             124.5935         estimate D2E/DX2                !
 ! A12   A(5,4,12)             108.1057         estimate D2E/DX2                !
 ! A13   A(4,5,6)              112.3651         estimate D2E/DX2                !
 ! A14   A(5,6,7)              109.3981         estimate D2E/DX2                !
 ! A15   A(6,7,8)              133.3651         estimate D2E/DX2                !
 ! A16   A(6,7,12)             106.1177         estimate D2E/DX2                !
 ! A17   A(8,7,12)             120.5115         estimate D2E/DX2                !
 ! A18   A(7,8,9)              117.4592         estimate D2E/DX2                !
 ! A19   A(7,8,33)             120.9893         estimate D2E/DX2                !
 ! A20   A(9,8,33)             121.5514         estimate D2E/DX2                !
 ! A21   A(8,9,10)             121.8156         estimate D2E/DX2                !
 ! A22   A(8,9,34)             119.2475         estimate D2E/DX2                !
 ! A23   A(10,9,34)            118.9368         estimate D2E/DX2                !
 ! A24   A(9,10,11)            122.1138         estimate D2E/DX2                !
 ! A25   A(9,10,35)            118.9283         estimate D2E/DX2                !
 ! A26   A(11,10,35)           118.9575         estimate D2E/DX2                !
 ! A27   A(10,11,12)           116.9802         estimate D2E/DX2                !
 ! A28   A(10,11,36)           121.3902         estimate D2E/DX2                !
 ! A29   A(12,11,36)           121.6291         estimate D2E/DX2                !
 ! A30   A(4,12,7)             103.8197         estimate D2E/DX2                !
 ! A31   A(4,12,11)            134.9762         estimate D2E/DX2                !
 ! A32   A(7,12,11)            121.1184         estimate D2E/DX2                !
 ! A33   A(2,13,14)            120.9781         estimate D2E/DX2                !
 ! A34   A(2,13,20)            121.0642         estimate D2E/DX2                !
 ! A35   A(14,13,20)           117.6012         estimate D2E/DX2                !
 ! A36   A(13,14,15)           116.934          estimate D2E/DX2                !
 ! A37   A(13,14,37)           108.2442         estimate D2E/DX2                !
 ! A38   A(13,14,38)           108.1501         estimate D2E/DX2                !
 ! A39   A(15,14,37)           108.4278         estimate D2E/DX2                !
 ! A40   A(15,14,38)           107.736          estimate D2E/DX2                !
 ! A41   A(37,14,38)           106.9311         estimate D2E/DX2                !
 ! A42   A(14,15,16)           121.125          estimate D2E/DX2                !
 ! A43   A(14,15,19)           127.6002         estimate D2E/DX2                !
 ! A44   A(16,15,19)           111.2287         estimate D2E/DX2                !
 ! A45   A(15,16,17)           111.4769         estimate D2E/DX2                !
 ! A46   A(15,16,39)           123.1462         estimate D2E/DX2                !
 ! A47   A(17,16,39)           125.3763         estimate D2E/DX2                !
 ! A48   A(16,17,18)           111.6326         estimate D2E/DX2                !
 ! A49   A(16,17,40)           125.4813         estimate D2E/DX2                !
 ! A50   A(18,17,40)           122.8862         estimate D2E/DX2                !
 ! A51   A(17,18,19)            93.9636         estimate D2E/DX2                !
 ! A52   A(15,19,18)           111.6982         estimate D2E/DX2                !
 ! A53   A(15,19,41)           125.4488         estimate D2E/DX2                !
 ! A54   A(18,19,41)           122.853          estimate D2E/DX2                !
 ! A55   A(13,20,21)           120.5445         estimate D2E/DX2                !
 ! A56   A(13,20,25)           120.9426         estimate D2E/DX2                !
 ! A57   A(21,20,25)           118.4948         estimate D2E/DX2                !
 ! A58   A(20,21,22)           120.4614         estimate D2E/DX2                !
 ! A59   A(20,21,42)           120.4447         estimate D2E/DX2                !
 ! A60   A(22,21,42)           119.0937         estimate D2E/DX2                !
 ! A61   A(21,22,23)           120.968          estimate D2E/DX2                !
 ! A62   A(21,22,43)           119.1578         estimate D2E/DX2                !
 ! A63   A(23,22,43)           119.8722         estimate D2E/DX2                !
 ! A64   A(22,23,24)           118.6944         estimate D2E/DX2                !
 ! A65   A(22,23,26)           120.0393         estimate D2E/DX2                !
 ! A66   A(24,23,26)           121.266          estimate D2E/DX2                !
 ! A67   A(23,24,25)           120.8993         estimate D2E/DX2                !
 ! A68   A(23,24,44)           120.0186         estimate D2E/DX2                !
 ! A69   A(25,24,44)           119.082          estimate D2E/DX2                !
 ! A70   A(20,25,24)           120.4683         estimate D2E/DX2                !
 ! A71   A(20,25,45)           120.1944         estimate D2E/DX2                !
 ! A72   A(24,25,45)           119.3247         estimate D2E/DX2                !
 ! A73   A(23,26,27)           126.2585         estimate D2E/DX2                !
 ! A74   A(23,26,30)           124.4794         estimate D2E/DX2                !
 ! A75   A(27,26,30)           109.2612         estimate D2E/DX2                !
 ! A76   A(26,27,28)           106.4289         estimate D2E/DX2                !
 ! A77   A(26,27,46)           130.91           estimate D2E/DX2                !
 ! A78   A(28,27,46)           122.6585         estimate D2E/DX2                !
 ! A79   A(27,28,29)           106.8304         estimate D2E/DX2                !
 ! A80   A(27,28,48)           126.262          estimate D2E/DX2                !
 ! A81   A(29,28,48)           126.9073         estimate D2E/DX2                !
 ! A82   A(28,29,30)           111.5981         estimate D2E/DX2                !
 ! A83   A(28,29,47)           122.8103         estimate D2E/DX2                !
 ! A84   A(30,29,47)           125.5917         estimate D2E/DX2                !
 ! A85   A(26,30,29)           105.8814         estimate D2E/DX2                !
 ! D1    D(1,2,3,4)             -5.8823         estimate D2E/DX2                !
 ! D2    D(1,2,3,31)           114.8218         estimate D2E/DX2                !
 ! D3    D(1,2,3,32)          -126.4047         estimate D2E/DX2                !
 ! D4    D(13,2,3,4)           175.7313         estimate D2E/DX2                !
 ! D5    D(13,2,3,31)          -63.5646         estimate D2E/DX2                !
 ! D6    D(13,2,3,32)           55.2089         estimate D2E/DX2                !
 ! D7    D(1,2,13,14)          175.8718         estimate D2E/DX2                !
 ! D8    D(1,2,13,20)            2.891          estimate D2E/DX2                !
 ! D9    D(3,2,13,14)           -5.7419         estimate D2E/DX2                !
 ! D10   D(3,2,13,20)         -178.7227         estimate D2E/DX2                !
 ! D11   D(2,3,4,5)             73.9797         estimate D2E/DX2                !
 ! D12   D(2,3,4,12)           -81.4627         estimate D2E/DX2                !
 ! D13   D(31,3,4,5)           -46.6481         estimate D2E/DX2                !
 ! D14   D(31,3,4,12)          157.9095         estimate D2E/DX2                !
 ! D15   D(32,3,4,5)          -164.5798         estimate D2E/DX2                !
 ! D16   D(32,3,4,12)           39.9778         estimate D2E/DX2                !
 ! D17   D(3,4,5,6)           -163.6039         estimate D2E/DX2                !
 ! D18   D(12,4,5,6)            -4.7011         estimate D2E/DX2                !
 ! D19   D(3,4,12,7)           162.5434         estimate D2E/DX2                !
 ! D20   D(3,4,12,11)          -20.9549         estimate D2E/DX2                !
 ! D21   D(5,4,12,7)             3.924          estimate D2E/DX2                !
 ! D22   D(5,4,12,11)         -179.5743         estimate D2E/DX2                !
 ! D23   D(4,5,6,7)              3.276          estimate D2E/DX2                !
 ! D24   D(5,6,7,8)           -179.7151         estimate D2E/DX2                !
 ! D25   D(5,6,7,12)            -0.6123         estimate D2E/DX2                !
 ! D26   D(6,7,8,9)            179.26           estimate D2E/DX2                !
 ! D27   D(6,7,8,33)            -0.8509         estimate D2E/DX2                !
 ! D28   D(12,7,8,9)             0.2605         estimate D2E/DX2                !
 ! D29   D(12,7,8,33)         -179.8504         estimate D2E/DX2                !
 ! D30   D(6,7,12,4)            -2.0905         estimate D2E/DX2                !
 ! D31   D(6,7,12,11)         -179.2004         estimate D2E/DX2                !
 ! D32   D(8,7,12,4)           177.1524         estimate D2E/DX2                !
 ! D33   D(8,7,12,11)            0.0425         estimate D2E/DX2                !
 ! D34   D(7,8,9,10)            -0.2921         estimate D2E/DX2                !
 ! D35   D(7,8,9,34)           179.5888         estimate D2E/DX2                !
 ! D36   D(33,8,9,10)          179.8194         estimate D2E/DX2                !
 ! D37   D(33,8,9,34)           -0.2997         estimate D2E/DX2                !
 ! D38   D(8,9,10,11)            0.0154         estimate D2E/DX2                !
 ! D39   D(8,9,10,35)          179.7662         estimate D2E/DX2                !
 ! D40   D(34,9,10,11)        -179.8659         estimate D2E/DX2                !
 ! D41   D(34,9,10,35)          -0.115          estimate D2E/DX2                !
 ! D42   D(9,10,11,12)           0.2884         estimate D2E/DX2                !
 ! D43   D(9,10,11,36)        -179.9556         estimate D2E/DX2                !
 ! D44   D(35,10,11,12)       -179.4623         estimate D2E/DX2                !
 ! D45   D(35,10,11,36)          0.2936         estimate D2E/DX2                !
 ! D46   D(10,11,12,4)        -176.3445         estimate D2E/DX2                !
 ! D47   D(10,11,12,7)          -0.3132         estimate D2E/DX2                !
 ! D48   D(36,11,12,4)           3.9002         estimate D2E/DX2                !
 ! D49   D(36,11,12,7)         179.9314         estimate D2E/DX2                !
 ! D50   D(2,13,14,15)         -73.1022         estimate D2E/DX2                !
 ! D51   D(2,13,14,37)          49.6372         estimate D2E/DX2                !
 ! D52   D(2,13,14,38)         165.1526         estimate D2E/DX2                !
 ! D53   D(20,13,14,15)        100.1142         estimate D2E/DX2                !
 ! D54   D(20,13,14,37)       -137.1463         estimate D2E/DX2                !
 ! D55   D(20,13,14,38)        -21.631          estimate D2E/DX2                !
 ! D56   D(2,13,20,21)         137.8488         estimate D2E/DX2                !
 ! D57   D(2,13,20,25)         -43.7246         estimate D2E/DX2                !
 ! D58   D(14,13,20,21)        -35.3614         estimate D2E/DX2                !
 ! D59   D(14,13,20,25)        143.0652         estimate D2E/DX2                !
 ! D60   D(13,14,15,16)        155.0979         estimate D2E/DX2                !
 ! D61   D(13,14,15,19)        -27.5953         estimate D2E/DX2                !
 ! D62   D(37,14,15,16)         32.4533         estimate D2E/DX2                !
 ! D63   D(37,14,15,19)       -150.2399         estimate D2E/DX2                !
 ! D64   D(38,14,15,16)        -82.9411         estimate D2E/DX2                !
 ! D65   D(38,14,15,19)         94.3657         estimate D2E/DX2                !
 ! D66   D(14,15,16,17)        177.6259         estimate D2E/DX2                !
 ! D67   D(14,15,16,39)         -2.1243         estimate D2E/DX2                !
 ! D68   D(19,15,16,17)         -0.0852         estimate D2E/DX2                !
 ! D69   D(19,15,16,39)       -179.8354         estimate D2E/DX2                !
 ! D70   D(14,15,19,18)       -177.4658         estimate D2E/DX2                !
 ! D71   D(14,15,19,41)          2.4834         estimate D2E/DX2                !
 ! D72   D(16,15,19,18)          0.061          estimate D2E/DX2                !
 ! D73   D(16,15,19,41)       -179.9898         estimate D2E/DX2                !
 ! D74   D(15,16,17,18)          0.0721         estimate D2E/DX2                !
 ! D75   D(15,16,17,40)       -179.8602         estimate D2E/DX2                !
 ! D76   D(39,16,17,18)        179.8156         estimate D2E/DX2                !
 ! D77   D(39,16,17,40)         -0.1167         estimate D2E/DX2                !
 ! D78   D(16,17,18,19)         -0.0326         estimate D2E/DX2                !
 ! D79   D(40,17,18,19)        179.9017         estimate D2E/DX2                !
 ! D80   D(17,18,19,15)         -0.0177         estimate D2E/DX2                !
 ! D81   D(17,18,19,41)       -179.9684         estimate D2E/DX2                !
 ! D82   D(13,20,21,22)        177.3806         estimate D2E/DX2                !
 ! D83   D(13,20,21,42)         -2.7623         estimate D2E/DX2                !
 ! D84   D(25,20,21,22)         -1.0839         estimate D2E/DX2                !
 ! D85   D(25,20,21,42)        178.7732         estimate D2E/DX2                !
 ! D86   D(13,20,25,24)       -177.5786         estimate D2E/DX2                !
 ! D87   D(13,20,25,45)          3.7212         estimate D2E/DX2                !
 ! D88   D(21,20,25,24)          0.8796         estimate D2E/DX2                !
 ! D89   D(21,20,25,45)       -177.8206         estimate D2E/DX2                !
 ! D90   D(20,21,22,23)          0.2608         estimate D2E/DX2                !
 ! D91   D(20,21,22,43)        179.7507         estimate D2E/DX2                !
 ! D92   D(42,21,22,23)       -179.5982         estimate D2E/DX2                !
 ! D93   D(42,21,22,43)         -0.1083         estimate D2E/DX2                !
 ! D94   D(21,22,23,24)          0.7744         estimate D2E/DX2                !
 ! D95   D(21,22,23,26)       -179.033          estimate D2E/DX2                !
 ! D96   D(43,22,23,24)       -178.7119         estimate D2E/DX2                !
 ! D97   D(43,22,23,26)          1.4807         estimate D2E/DX2                !
 ! D98   D(22,23,24,25)         -0.9803         estimate D2E/DX2                !
 ! D99   D(22,23,24,44)        179.1398         estimate D2E/DX2                !
 ! D100  D(26,23,24,25)        178.8246         estimate D2E/DX2                !
 ! D101  D(26,23,24,44)         -1.0553         estimate D2E/DX2                !
 ! D102  D(22,23,26,27)         16.4665         estimate D2E/DX2                !
 ! D103  D(22,23,26,30)       -163.9326         estimate D2E/DX2                !
 ! D104  D(24,23,26,27)       -163.3358         estimate D2E/DX2                !
 ! D105  D(24,23,26,30)         16.265          estimate D2E/DX2                !
 ! D106  D(23,24,25,20)          0.1514         estimate D2E/DX2                !
 ! D107  D(23,24,25,45)        178.8628         estimate D2E/DX2                !
 ! D108  D(44,24,25,20)       -179.9676         estimate D2E/DX2                !
 ! D109  D(44,24,25,45)         -1.2562         estimate D2E/DX2                !
 ! D110  D(23,26,27,28)        179.7174         estimate D2E/DX2                !
 ! D111  D(23,26,27,46)          0.3128         estimate D2E/DX2                !
 ! D112  D(30,26,27,28)          0.0659         estimate D2E/DX2                !
 ! D113  D(30,26,27,46)       -179.3387         estimate D2E/DX2                !
 ! D114  D(23,26,30,29)       -179.7504         estimate D2E/DX2                !
 ! D115  D(27,26,30,29)         -0.0913         estimate D2E/DX2                !
 ! D116  D(26,27,28,29)         -0.0151         estimate D2E/DX2                !
 ! D117  D(26,27,28,48)        179.8104         estimate D2E/DX2                !
 ! D118  D(46,27,28,29)        179.4504         estimate D2E/DX2                !
 ! D119  D(46,27,28,48)         -0.7242         estimate D2E/DX2                !
 ! D120  D(27,28,29,30)         -0.0436         estimate D2E/DX2                !
 ! D121  D(27,28,29,47)        179.9224         estimate D2E/DX2                !
 ! D122  D(48,28,29,30)       -179.8676         estimate D2E/DX2                !
 ! D123  D(48,28,29,47)          0.0984         estimate D2E/DX2                !
 ! D124  D(28,29,30,26)          0.0831         estimate D2E/DX2                !
 ! D125  D(47,29,30,26)       -179.8818         estimate D2E/DX2                !
 --------------------------------------------------------------------------------
 Trust Radius=3.00D-01 FncErr=1.00D-07 GrdErr=1.00D-07
 Number of steps in this run=    272 maximum allowed number of steps=    288.
 GradGradGradGradGradGradGradGradGradGradGradGradGradGradGradGradGradGrad

 Leave Link  103 at Fri Aug 26 22:10:45 2022, MaxMem=  209715200 cpu:       0.1
 (Enter /opt/gaussian/l202.exe)
                          Input orientation:                          
 ---------------------------------------------------------------------
 Center     Atomic      Atomic             Coordinates (Angstroms)
 Number     Number       Type             X           Y           Z
 ---------------------------------------------------------------------
      1          8           0       20.732400   -7.684400   -1.506700
      2          6           0       21.256000   -8.722000   -1.071500
      3          6           0       22.721100   -8.751500   -0.596900
      4          7           0       23.462000   -7.537400   -0.819000
      5          7           0       23.283900   -6.392800   -0.077800
      6          7           0       23.775600   -5.382000   -0.634900
      7          6           0       24.301700   -5.752900   -1.915500
      8          6           0       24.947700   -5.043500   -2.927000
      9          6           0       25.342100   -5.753000   -4.057000
     10          6           0       25.110000   -7.132100   -4.183600
     11          6           0       24.473500   -7.869300   -3.190000
     12          6           0       24.064100   -7.175400   -2.051200
     13          7           0       20.535900   -9.915200   -0.954400
     14          6           0       21.182900  -11.136100   -0.529400
     15          6           0       22.088000  -11.797900   -1.511700
     16          6           0       23.153600  -12.657500   -1.077400
     17          6           0       23.829100  -13.202000   -2.145900
     18         16           0       23.194500  -12.687200   -3.602600
     19          6           0       22.021400  -11.741300   -2.889400
     20          6           0       19.185000  -10.002300   -1.388400
     21          6           0       18.730300  -11.136500   -2.095900
     22          6           0       17.397600  -11.244300   -2.471800
     23          6           0       16.477100  -10.232300   -2.164300
     24          6           0       16.930300   -9.095000   -1.481100
     25          6           0       18.261200   -8.976700   -1.095300
     26          6           0       15.087100  -10.375100   -2.547800
     27          6           0       14.443500  -11.576300   -2.931300
     28          7           0       13.120300  -11.243900   -3.204500
     29          6           0       12.994000   -9.866200   -2.982700
     30          7           0       14.159300   -9.318900   -2.586400
     31          1           0       22.721700   -8.962800    0.512500
     32          1           0       23.264900   -9.579200   -1.138400
     33          1           0       25.134200   -3.964500   -2.831200
     34          1           0       25.848400   -5.220800   -4.876500
     35          1           0       25.438800   -7.645600   -5.100500
     36          1           0       24.298800   -8.947100   -3.301100
     37          1           0       21.774200  -10.915300    0.409300
     38          1           0       20.378900  -11.880800   -0.245100
     39          1           0       23.378700  -12.844500   -0.025600
     40          1           0       24.673800  -13.886100   -2.077600
     41          1           0       21.300300  -11.158800   -3.464600
     42          1           0       19.428600  -11.947200   -2.359400
     43          1           0       17.067300  -12.135700   -3.026200
     44          1           0       16.228500   -8.280000   -1.240900
     45          1           0       18.593600   -8.062900   -0.576000
     46          1           0       14.822400  -12.592600   -3.013500
     47          1           0       12.051700   -9.326700   -3.122800
     48          1           0       12.413700  -11.862300   -3.499500
 ---------------------------------------------------------------------
                    Distance matrix (angstroms):
                    1          2          3          4          5
     1  O    0.000000
     2  C    1.241036   0.000000
     3  C    2.433386   1.540335   0.000000
     4  N    2.818733   2.516639   1.439549   0.000000
     5  N    3.196895   3.244224   2.479854   1.375211   0.000000
     6  N    3.914351   4.206495   3.530856   2.185861   1.254530
     7  C    4.078935   4.336379   3.637115   2.256512   2.196026
     8  C    5.173042   5.531988   4.912879   3.587549   3.564657
     9  C    5.611031   5.867230   5.275693   4.147711   4.525435
    10  C    5.160834   5.202525   4.603663   3.768382   4.553987
    11  C    4.106521   3.945560   3.251669   2.599025   3.644309
    12  C    3.414057   3.352195   2.530361   1.418409   2.261743
    13  N    2.306538   1.398564   2.501420   3.772841   4.552717
    14  C    3.615563   2.475297   2.838474   4.269521   5.207402
    15  C    4.331115   3.216700   3.243182   4.529853   5.718510
    16  C    5.547813   4.369105   3.959138   5.135884   6.345285
    17  C    6.359405   5.276891   4.840869   5.829504   7.137190
    18  S    5.956739   5.087933   4.974744   5.860070   7.214685
    19  C    4.475692   3.606490   3.831976   4.902516   6.172961
    20  C    2.789463   2.455328   3.833403   4.969173   5.616684
    21  C    4.033926   3.641204   4.884845   6.080541   6.878277
    22  C    4.972444   4.817685   6.170004   7.297246   7.994799
    23  C    5.003180   5.129630   6.605834   7.606651   8.088743
    24  C    4.055418   4.361030   5.867978   6.747414   7.045521
    25  C    2.818886   3.005706   4.493309   5.403355   5.739282
    26  C    6.339808   6.554962   8.044877   9.010008   9.441777
    27  C    7.531709   7.616826   9.052490  10.104844  10.637848
    28  N    8.573018   8.780620  10.256071  11.241864  11.687951
    29  C    8.174452   8.557016  10.077255  10.940015  11.242108
    30  N    6.858789   7.281096   8.808205   9.635231   9.905224
    31  H    3.109468   2.171478   1.129343   2.086313   2.696187
    32  H    3.184253   2.185165   1.128728   2.076009   3.358330
    33  H    5.913358   6.385201   5.807798   4.428410   4.111139
    34  H    6.602903   6.915675   6.368738   5.246413   5.565767
    35  H    5.921748   5.906547   5.375065   4.717063   5.607193
    36  H    4.187301   3.778944   3.136892   2.974611   4.236052
    37  H    3.898092   2.696640   2.567312   3.970844   4.792647
    38  H    4.396177   3.380867   3.924561   5.357237   6.211695
    39  H    5.985248   4.753395   4.184671   5.366725   6.452608
    40  H    7.370322   6.273876   5.689431   6.584719   7.879122
    41  H    4.028317   3.415682   4.004681   4.978623   6.174127
    42  H    4.538552   3.924282   4.915227   6.171506   7.135853
    43  H    5.962878   5.746252   7.022803   8.179748   8.962147
    44  H    4.550879   5.049734   6.541476   7.283747   7.395471
    45  H    2.363034   2.787168   4.184598   4.902705   5.003634
    46  H    7.828727   7.755264   9.109526  10.247613  10.892788
    47  H    8.981285   9.449478  10.979395  11.777268  12.001754
    48  H    9.519815   9.692416  11.150994  12.163666  12.640598
                    6          7          8          9         10
     6  N    0.000000
     7  C    1.433277   0.000000
     8  C    2.596560   1.394165   0.000000
     9  C    3.781842   2.380852   1.391345   0.000000
    10  C    4.175733   2.774855   2.442874   1.404213   0.000000
    11  C    3.633492   2.476492   2.877356   2.446402   1.391344
    12  C    2.303350   1.448577   2.468354   2.771234   2.375481
    13  N    5.581007   5.694708   6.862113   7.074574   6.252661
    14  C    6.312122   6.373934   7.552614   7.662941   6.693826
    15  C    6.691827   6.450236   7.470132   7.321785   6.167757
    16  C    7.315435   7.049400   8.038209   7.831965   6.633704
    17  C    7.964822   7.467632   8.271790   7.837670   6.529672
    18  S    7.906381   7.221961   7.871232   7.273362   5.904730
    19  C    6.971419   6.481449   7.309252   6.946227   5.697291
    20  C    6.556565   6.672020   7.756655   7.942786   7.152399
    21  C    7.791267   7.749593   8.744795   8.748936   7.816283
    22  C    8.855487   8.839205   9.780651   9.786844   8.906265
    23  C    8.895649   9.019495   9.962752  10.111116   9.392325
    24  C    7.833298   8.105299   9.098570   9.410771   8.835382
    25  C    6.598670   6.895887   7.970851   8.324846   7.736033
    26  C   10.201974  10.328281  11.216113  11.349296  10.660742
    27  C   11.433761  11.494692  12.369952  12.407961  11.622968
    28  N   12.429808  12.523430  13.356997  13.425689  12.712924
    29  C   11.910630  12.079827  12.890015  13.059407  12.478578
    30  N   10.572642  10.771942  11.609678  11.829342  11.280557
    31  H    3.905043   4.323776   5.669757   6.168439   5.577526
    32  H    4.258029   4.039729   5.157856   5.241449   4.320409
    33  H    2.945986   2.174842   1.099182   2.178197   3.444309
    34  H    4.723733   3.382740   2.154819   1.100526   2.162964
    35  H    5.275576   3.875504   3.425815   2.163372   1.101135
    36  H    4.482443   3.481783   3.974810   3.444145   2.175104
    37  H    5.976066   6.200268   7.461906   7.702408   6.821649
    38  H    7.343291   7.465236   8.649578   8.758645   7.774654
    39  H    7.497845   7.396921   8.469680   8.390262   7.274468
    40  H    8.672247   8.143321   8.887524   8.397140   7.088161
    41  H    6.892440   6.374313   7.140689   6.775674   5.589731
    42  H    8.060531   7.893890   8.856845   8.730375   7.667542
    43  H    9.814890   9.711351  10.602351  10.501130   9.542568
    44  H    8.107056   8.486335   9.452106   9.867819   9.426463
    45  H    5.834708   6.301807   7.417450   7.936955   7.506306
    46  H   11.739262  11.740708  12.630047  12.590993  11.705593
    47  H   12.617454  12.817649  13.590105  13.794158  13.283854
    48  H   13.390033  13.459508  14.280229  14.310062  13.566091
                   11         12         13         14         15
    11  C    0.000000
    12  C    1.394981   0.000000
    13  N    4.968733   4.599747   0.000000
    14  C    5.345916   5.128775   1.445625   0.000000
    15  C    4.892974   5.056040   2.502830   1.490671   0.000000
    16  C    5.397414   5.641872   3.793111   2.549239   1.436326
    17  C    5.472028   6.031923   4.802905   3.726042   2.324895
    18  S    5.001824   5.791631   4.665308   3.987105   2.527263
    19  C    4.592988   5.071750   3.047224   2.576616   1.380470
    20  C    5.980275   5.677701   1.421574   2.452547   3.415668
    21  C    6.697462   6.643925   2.460648   2.910184   3.471727
    22  C    7.872407   7.821450   3.730675   4.255951   4.819556
    23  C    8.401086   8.180464   4.247148   5.063033   5.861671
    24  C    7.830871   7.409520   3.735036   4.812113   5.823098
    25  C    6.648817   6.150778   2.464730   3.676898   4.772521
    26  C    9.736322   9.543124   5.695599   6.466207   7.218758
    27  C   10.696246  10.615952   6.617003   7.168153   7.778351
    28  N   11.844125  11.732415   7.862539   8.495487   9.142873
    29  C   11.653733  11.430451   7.810036   8.642304   9.412552
    30  N   10.433043  10.148206   6.609087   7.540850   8.376437
    31  H    4.239464   3.401381   2.799390   2.859492   3.540728
    32  H    2.931473   2.692616   2.755756   2.670120   2.539109
    33  H    3.976522   3.473240   7.750972   8.505463   8.507795
    34  H    3.427708   3.871241   8.102032   8.697985   8.289797
    35  H    2.152175   3.377739   6.810261   7.154805   6.430314
    36  H    1.097505   2.180884   4.539123   4.709870   4.026990
    37  H    5.433166   5.028375   2.096012   1.131170   2.137216
    38  H    6.444402   6.243676   2.095552   1.132175   2.128890
    39  H    5.997052   6.059003   4.186285   2.827363   2.229298
    40  H    6.122045   6.738392   5.843958   4.705933   3.371525
    41  H    4.578800   5.050125   2.903782   2.937635   2.200622
    42  H    6.539891   6.659799   2.707243   2.661645   2.795227
    43  H    8.548731   8.631941   4.610224   4.916439   5.255021
    44  H    8.482198   7.954455   4.616238   5.762779   6.839788
    45  H    6.437678   5.735001   2.710485   4.018856   5.199672
    46  H   10.746369  10.755515   6.637202   6.981984   7.461628
    47  H   12.507184  12.250476   8.776670   9.663253  10.460869
    48  H   12.707424  12.641061   8.731487   9.286966   9.876618
                   16         17         18         19         20
    16  C    0.000000
    17  C    1.376398   0.000000
    18  S    2.525706   1.670243   0.000000
    19  C    2.324789   2.440126   1.667197   0.000000
    20  C    4.785039   5.690303   5.309186   3.649971   0.000000
    21  C    4.787104   5.501504   4.960232   3.439006   1.411991
    22  C    6.088762   6.730750   6.079862   4.669146   2.431279
    23  C    7.186000   7.929146   7.295115   5.791555   2.826242
    24  C    7.182189   8.056230   7.526278   5.908089   2.432172
    25  C    6.122433   7.068128   6.662718   5.000091   1.411088
    26  C    8.511160   9.196491   8.496372   7.075854   4.275041
    27  C    8.970606   9.557680   8.846736   7.579812   5.228751
    28  N   10.353257  10.937696  10.184847   8.920554   6.451386
    29  C   10.706960  11.367814  10.601534   9.220556   6.394435
    30  N    9.711888  10.429647   9.696027   8.232402   5.211516
    31  H    4.045384   5.124865   5.570345   4.447854   4.147557
    32  H    3.080915   3.802375   3.966976   3.047453   4.109391
    33  H    9.086630   9.354375   8.969002   8.376845   8.598237
    34  H    8.774942   8.673713   8.025779   7.817379   8.912378
    35  H    6.821042   6.495720   5.718244   5.774283   7.644850
    36  H    4.474751   4.433879   3.911359   3.628168   5.560829
    37  H    2.673627   3.997582   4.610013   3.409517   3.281654
    38  H    2.999158   4.154815   4.455411   3.116021   2.502258
    39  H    1.091752   2.196893   3.585192   3.355691   5.246184
    40  H    2.195647   1.089117   2.439532   3.506339   6.759129
    41  H    3.373358   3.508342   2.437836   1.090938   3.181602
    42  H    4.002958   4.580885   4.034247   2.654413   2.187423
    43  H    6.411953   6.901729   6.178913   4.971657   3.423220
    44  H    8.194281   9.100232   8.574742   6.946642   3.424758
    45  H    6.492715   7.502359   7.191157   5.534642   2.184266
    46  H    8.553455   9.068889   8.393333   7.250222   5.327559
    47  H   11.769880  12.437019  11.648397  10.260589   7.372147
    48  H   11.038313  11.573175  10.812804   9.627812   7.332588
                   21         22         23         24         25
    21  C    0.000000
    22  C    1.388888   0.000000
    23  C    2.428820   1.402149   0.000000
    24  C    2.790287   2.412332   1.402000   0.000000
    25  C    2.426106   2.789725   2.429466   1.390731   0.000000
    26  C    3.749247   2.469756   1.448987   2.484732   3.760344
    27  C    4.389530   3.008001   2.555417   3.800540   4.970277
    28  N    5.719495   4.339602   3.656974   4.701487   6.001481
    29  C    5.941819   4.642399   3.596636   4.282991   5.665411
    30  N    4.943511   3.769202   2.526789   2.991699   4.377906
    31  H    5.240229   6.515929   6.911723   6.126356   4.741442
    32  H    4.889232   6.243054   6.895886   6.362315   5.040028
    33  H    9.643038  10.629188  10.708663   9.769789   8.681799
    34  H    9.664088  10.652753  10.967790  10.299062   9.271993
    35  H    8.137443   9.193563   9.778771   9.359241   8.326548
    36  H    6.103620   7.320617   8.007687   7.591381   6.427989
    37  H    3.948453   5.250105   5.928674   5.509126   4.285226
    38  H    2.587919   3.775113   4.650261   4.602306   3.693412
    39  H    5.367591   6.657183   7.683079   7.599940   6.503302
    40  H    6.548727   7.750973   8.974612   9.125363   8.135635
    41  H    2.911827   4.027906   5.080595   5.224026   4.428462
    42  H    1.101948   2.152130   3.419108   3.892038   3.432877
    43  H    2.151610   1.100478   2.171207   3.413497   3.890122
    44  H    3.892251   3.415989   2.173924   1.102018   2.153708
    45  H    3.431589   3.891758   3.421778   2.156618   1.102358
    46  H    4.270117   2.956858   3.005027   4.361731   5.345986
    47  H    6.995255   5.716611   4.617683   5.152631   6.541494
    48  H    6.511245   5.126144   4.577213   5.668471   6.949829
                   26         27         28         29         30
    26  C    0.000000
    27  C    1.415689   0.000000
    28  N    2.248193   1.391397   0.000000
    29  C    2.197541   2.242350   1.401144   0.000000
    30  N    1.406365   2.301213   2.273146   1.347039   0.000000
    31  H    8.345486   9.339097  10.545444  10.375968   9.112886
    32  H    8.336443   9.220629  10.485843  10.439119   9.223688
    33  H   11.921423  13.124046  14.052146  13.499536  12.213843
    34  H   12.157106  13.200300  14.180192  13.798617  12.596588
    35  H   11.005641  11.876551  12.972587  12.817534  11.676804
    36  H    9.352115  10.206683  11.412427  11.346569  10.171455
    37  H    7.331682   8.083050   9.383897   9.470913   8.337231
    38  H    5.964286   6.522067   7.864538   8.129564   7.122390
    39  H    9.011662   9.480993  10.858273  11.200746  10.197298
    40  H   10.220226  10.522501  11.905229  12.385335  11.474881
    41  H    6.329183   6.890168   8.184577   8.420075   7.426328
    42  H    4.621214   5.031487   6.403395   6.791402   5.892793
    43  H    2.692540   2.684448   4.050421   4.663078   4.072376
    44  H    2.720336   4.112088   4.722429   4.001486   2.677923
    45  H    4.640022   5.925770   6.854545   6.356069   5.028147
    46  H    2.281282   1.087744   2.180050   3.282873   3.367377
    47  H    3.262426   3.289085   2.196415   1.094814   2.174802
    48  H    3.203836   2.127143   0.984239   2.142019   3.217103
                   31         32         33         34         35
    31  H    0.000000
    32  H    1.844041   0.000000
    33  H    6.479467   6.155056   0.000000
    34  H    7.267746   6.296310   2.504321   0.000000
    35  H    6.373650   4.915576   4.335089   2.469333   0.000000
    36  H    4.126868   2.479067   5.073953   4.332258   2.496266
    37  H    2.172709   2.530361   8.372817   8.773034   7.380930
    38  H    3.818035   3.797939   9.590026   9.783706   8.192339
    39  H    3.973512   3.451588   9.476686   9.367574   7.551634
    40  H    5.895608   4.627795   9.960825   9.181555   6.976173
    41  H    4.760265   3.430160   8.176670   7.611736   5.669738
    42  H    5.291404   4.670703   9.823440   9.632968   7.882886
    43  H    7.386605   6.964892  11.483963  11.329041   9.723463
    44  H    6.760346   7.156071  10.023177  10.729341  10.006428
    45  H    4.363011   4.943329   8.041285   8.899660   8.215960
    46  H    9.381208   9.158187  13.446582  13.393539  11.896904
    47  H   11.278153  11.390235  14.141783  14.501131  13.636416
    48  H   11.434951  11.337367  14.987761  15.049811  13.783940
                   36         37         38         39         40
    36  H    0.000000
    37  H    4.900458   0.000000
    38  H    5.771598   1.818596   0.000000
    39  H    5.173511   2.546639   3.158433   0.000000
    40  H    5.102088   4.839215   5.081875   2.640628   0.000000
    41  H    3.729524   3.910368   3.425703   4.357528   4.554387
    42  H    5.797090   3.772580   2.318996   4.674940   5.599185
    43  H    7.908055   5.953734   4.331996   7.024227   7.862734
    44  H    8.355788   6.357889   5.584192   8.569538  10.171112
    45  H    6.384143   4.384429   4.227665   6.787033   8.551801
    46  H   10.157487   7.928204   6.248631   9.066492   9.979937
    47  H   12.254279  10.465485   9.173159  12.258405  13.460980
    48  H   12.239010  10.187958   8.604410  11.543999  12.507103
                   41         42         43         44         45
    41  H    0.000000
    42  H    2.312207   0.000000
    43  H    4.366328   2.460872   0.000000
    44  H    6.241433   4.994000   4.330970   0.000000
    45  H    5.025419   4.354943   4.992071   2.466358   0.000000
    46  H    6.649997   4.696964   2.290959   4.870087   6.378208
    47  H    9.434512   7.865650   5.749440   4.699233   7.133010
    48  H    8.914471   7.107451   4.685590   5.699723   7.821346
                   46         47         48
    46  H    0.000000
    47  H    4.284253   0.000000
    48  H    2.563468   2.588864   0.000000
 Stoichiometry    C22H18N6OS
 Framework group  C1[X(C22H18N6OS)]
 Deg. of freedom   138
 Full point group                 C1      NOp   1
 Largest Abelian subgroup         C1      NOp   1
 Largest concise Abelian subgroup C1      NOp   1
                         Standard orientation:                         
 ---------------------------------------------------------------------
 Center     Atomic      Atomic             Coordinates (Angstroms)
 Number     Number       Type             X           Y           Z
 ---------------------------------------------------------------------
      1          8           0        0.658332   -1.716808   -0.431681
      2          6           0        0.847790   -0.604246   -0.947899
      3          6           0        2.244645   -0.158365   -1.419724
      4          7           0        3.317751   -1.062574   -1.098556
      5          7           0        3.521972   -2.258850   -1.745414
      6          7           0        4.286235   -3.022153   -1.107358
      7          6           0        4.636952   -2.410342    0.140428
      8          6           0        5.442469   -2.805667    1.207460
      9          6           0        5.567572   -1.925198    2.277490
     10          6           0        4.917761   -0.680467    2.291822
     11          6           0        4.112207   -0.254491    1.240412
     12          6           0        3.968267   -1.125491    0.160314
     13          7           0       -0.201959    0.294577   -1.162671
     14          6           0        0.047970    1.619872   -1.683210
     15          6           0        0.677396    2.602159   -0.755291
     16          6           0        1.437094    3.714034   -1.254915
     17          6           0        1.882072    4.520555   -0.232177
     18         16           0        1.397785    3.946674    1.259747
     19          6           0        0.593884    2.632532    0.622315
     20          6           0       -1.525115   -0.008496   -0.740441
     21          6           0       -2.326857    0.979285   -0.127891
     22          6           0       -3.637510    0.697056    0.234803
     23          6           0       -4.191932   -0.570643    0.007703
     24          6           0       -3.391323   -1.559980   -0.580380
     25          6           0       -2.078870   -1.289013   -0.952099
     26          6           0       -5.568075   -0.836878    0.375007
     27          6           0       -6.561243    0.131257    0.658743
     28          7           0       -7.724184   -0.573025    0.954617
     29          6           0       -7.412963   -1.934715    0.844401
     30          7           0       -6.125256   -2.122439    0.496425
     31          1           0        2.210322   -0.042192   -2.542552
     32          1           0        2.491398    0.835717   -0.945443
     33          1           0        5.955452   -3.777770    1.199499
     34          1           0        6.190819   -2.210455    3.138506
     35          1           0        5.046816   -0.022270    3.165103
     36          1           0        3.610394    0.721294    1.263749
     37          1           0        0.703978    1.522524   -2.599574
     38          1           0       -0.938545    2.054934   -2.028653
     39          1           0        1.622147    3.881115   -2.317817
     40          1           0        2.475907    5.425456   -0.353377
     41          1           0        0.072348    1.900725    1.240867
     42          1           0       -1.920362    1.984010    0.071049
     43          1           0       -4.241847    1.481641    0.714651
     44          1           0       -3.800456   -2.568096   -0.755758
     45          1           0       -1.466582   -2.091511   -1.395149
     46          1           0       -6.516932    1.218098    0.659599
     47          1           0       -8.146189   -2.727360    1.025258
     48          1           0       -8.594945   -0.183478    1.197014
 ---------------------------------------------------------------------
 Rotational constants (GHZ):      0.2091733      0.0731733      0.0610058
 Leave Link  202 at Fri Aug 26 22:10:45 2022, MaxMem=  209715200 cpu:       0.0
 (Enter /opt/gaussian/l301.exe)
 Standard basis: 6-31G (6D, 7F)
 Ernie: Thresh=  0.10000D-02 Tol=  0.10000D-05 Strict=F.
 There are   310 symmetry adapted basis functions of A   symmetry.
 Integral buffers will be    131072 words long.
 Raffenetti 1 integral format.
 Two-electron integral symmetry is turned on.
   310 basis functions,   756 primitive gaussians,   310 cartesian basis functions
   108 alpha electrons      108 beta electrons
       nuclear repulsion energy      2792.6470756702 Hartrees.



 Warning!  S  atom   18 may be hypervalent but has no d functions.



 IExCor=    0 DFT=F Ex=HF Corr=None ExCW=0 ScaHFX=  1.000000
 ScaDFX=  1.000000  1.000000  1.000000  1.000000 ScalE2=  1.000000  1.000000
 IRadAn=      0 IRanWt=     -1 IRanGd=            0 ICorTp=0
 NAtoms=   48 NActive=   48 NUniq=   48 SFac= 1.00D+00 NAtFMM=   60 NAOKFM=F Big=F
 Leave Link  301 at Fri Aug 26 22:10:45 2022, MaxMem=  209715200 cpu:       0.2
 (Enter /opt/gaussian/l302.exe)
 NPDir=0 NMtPBC=     1 NCelOv=     1 NCel=       1 NClECP=     1 NCelD=      1
         NCelK=      1 NCelE2=     1 NClLst=     1 CellRange=     0.0.
 One-electron integrals computed using PRISM.
 NBasis=   310 RedAO= T  NBF=   310
 NBsUse=   310 1.00D-06 NBFU=   310
 Leave Link  302 at Fri Aug 26 22:10:46 2022, MaxMem=  209715200 cpu:       1.9
 (Enter /opt/gaussian/l303.exe)
 DipDrv:  MaxL=1.
 Leave Link  303 at Fri Aug 26 22:10:46 2022, MaxMem=  209715200 cpu:       0.4
 (Enter /opt/gaussian/l401.exe)
 Harris functional with IExCor=  205 diagonalized for initial guess.
 ExpMin= 1.17D-01 ExpMax= 2.19D+04 ExpMxC= 3.30D+03 IAcc=1 IRadAn=         1 AccDes= 0.00D+00
 HarFok:  IExCor=  205 AccDes= 0.00D+00 IRadAn=         1 IDoV= 1
 ScaDFX=  1.000000  1.000000  1.000000  1.000000
 FoFCou: FMM=F IPFlag=           0 FMFlag=      100000 FMFlg1=           0
         NFxFlg=           0 DoJE=T BraDBF=F KetDBF=T FulRan=T
         Omega=  0.000000  0.000000  1.000000  0.000000  0.000000 ICntrl=     500 IOpCl=  0
         NMat0=    1 NMatS0=    1 NMatT0=    0 NMatD0=    1 NMtDS0=    0 NMtDT0=    0
         I1Cent=           4 NGrid=           0.
 Petite list used in FoFCou.
 Harris En= -1643.05361489126    
 Initial guess orbital symmetries:
       Occupied  (A) (A) (A) (A) (A) (A) (A) (A) (A) (A) (A) (A)
                 (A) (A) (A) (A) (A) (A) (A) (A) (A) (A) (A) (A)
                 (A) (A) (A) (A) (A) (A) (A) (A) (A) (A) (A) (A)
                 (A) (A) (A) (A) (A) (A) (A) (A) (A) (A) (A) (A)
                 (A) (A) (A) (A) (A) (A) (A) (A) (A) (A) (A) (A)
                 (A) (A) (A) (A) (A) (A) (A) (A) (A) (A) (A) (A)
                 (A) (A) (A) (A) (A) (A) (A) (A) (A) (A) (A) (A)
                 (A) (A) (A) (A) (A) (A) (A) (A) (A) (A) (A) (A)
                 (A) (A) (A) (A) (A) (A) (A) (A) (A) (A) (A) (A)
       Virtual   (A) (A) (A) (A) (A) (A) (A) (A) (A) (A) (A) (A)
                 (A) (A) (A) (A) (A) (A) (A) (A) (A) (A) (A) (A)
                 (A) (A) (A) (A) (A) (A) (A) (A) (A) (A) (A) (A)
                 (A) (A) (A) (A) (A) (A) (A) (A) (A) (A) (A) (A)
                 (A) (A) (A) (A) (A) (A) (A) (A) (A) (A) (A) (A)
                 (A) (A) (A) (A) (A) (A) (A) (A) (A) (A) (A) (A)
                 (A) (A) (A) (A) (A) (A) (A) (A) (A) (A) (A) (A)
                 (A) (A) (A) (A) (A) (A) (A) (A) (A) (A) (A) (A)
                 (A) (A) (A) (A) (A) (A) (A) (A) (A) (A) (A) (A)
                 (A) (A) (A) (A) (A) (A) (A) (A) (A) (A) (A) (A)
                 (A) (A) (A) (A) (A) (A) (A) (A) (A) (A) (A) (A)
                 (A) (A) (A) (A) (A) (A) (A) (A) (A) (A) (A) (A)
                 (A) (A) (A) (A) (A) (A) (A) (A) (A) (A) (A) (A)
                 (A) (A) (A) (A) (A) (A) (A) (A) (A) (A) (A) (A)
                 (A) (A) (A) (A) (A) (A) (A) (A) (A) (A) (A) (A)
                 (A) (A) (A) (A) (A) (A) (A) (A) (A) (A) (A) (A)
                 (A) (A) (A) (A) (A) (A) (A) (A) (A) (A)
 The electronic state of the initial guess is 1-A.
 Leave Link  401 at Fri Aug 26 22:10:46 2022, MaxMem=  209715200 cpu:       4.1
 (Enter /opt/gaussian/l502.exe)
 Closed shell SCF:
 Requested convergence on RMS density matrix=1.00D-08 within 128 cycles.
 Requested convergence on MAX density matrix=1.00D-06.
 Requested convergence on             energy=1.00D-06.
 No special actions if energy rises.
 Using DIIS extrapolation, IDIIS=  1040.
 Integral symmetry usage will be decided dynamically.
 IEnd=      311319 IEndB=      311319 NGot=   209715200 MDV=   209516932
 LenX=   209516932 LenY=   209420391
 Fock matrices will be formed incrementally for  20 cycles.
 Integral accuracy reduced to 1.0D-05 until final iterations.

 Cycle   1  Pass 0  IDiag  1:
 FoFCou: FMM=F IPFlag=           0 FMFlag=      100000 FMFlg1=           0
         NFxFlg=           0 DoJE=F BraDBF=F KetDBF=F FulRan=T
         Omega=  0.000000  0.000000  1.000000  0.000000  0.000000 ICntrl=       0 IOpCl=  0
         NMat0=    1 NMatS0=    1 NMatT0=    0 NMatD0=    1 NMtDS0=    0 NMtDT0=    0
         I1Cent=           0 NGrid=           0.
 Symmetry not used in FoFCou.
 E= -1641.04923254095    
 DIIS: error= 4.57D-02 at cycle   1 NSaved=   1.
 NSaved= 1 IEnMin= 1 EnMin= -1641.04923254095     IErMin= 1 ErrMin= 4.57D-02
 ErrMax= 4.57D-02 EMaxC= 1.00D-01 BMatC= 1.05D+00 BMatP= 1.05D+00
 IDIUse=3 WtCom= 5.43D-01 WtEn= 4.57D-01
 Coeff-Com:  0.100D+01
 Coeff-En:   0.100D+01
 Coeff:      0.100D+01
 Gap=     0.401 Goal=   None    Shift=    0.000
 GapD=    0.401 DampG=2.000 DampE=0.500 DampFc=1.0000 IDamp=-1.
 RMSDP=6.20D-03 MaxDP=1.65D-01              OVMax= 1.96D-01

 Cycle   2  Pass 0  IDiag  1:
 RMSU=  4.36D-03    CP:  9.72D-01
 E= -1641.75028180639     Delta-E=       -0.701049265444 Rises=F Damp=F
 DIIS: error= 2.00D-02 at cycle   2 NSaved=   2.
 NSaved= 2 IEnMin= 2 EnMin= -1641.75028180639     IErMin= 2 ErrMin= 2.00D-02
 ErrMax= 2.00D-02 EMaxC= 1.00D-01 BMatC= 2.10D-01 BMatP= 1.05D+00
 IDIUse=3 WtCom= 8.00D-01 WtEn= 2.00D-01
 Coeff-Com:  0.262D+00 0.738D+00
 Coeff-En:   0.000D+00 0.100D+01
 Coeff:      0.209D+00 0.791D+00
 Gap=     0.420 Goal=   None    Shift=    0.000
 RMSDP=2.88D-03 MaxDP=8.80D-02 DE=-7.01D-01 OVMax= 9.36D-02

 Cycle   3  Pass 0  IDiag  1:
 RMSU=  1.75D-03    CP:  9.72D-01  7.61D-01
 E= -1641.92973532254     Delta-E=       -0.179453516147 Rises=F Damp=F
 DIIS: error= 8.87D-03 at cycle   3 NSaved=   3.
 NSaved= 3 IEnMin= 3 EnMin= -1641.92973532254     IErMin= 3 ErrMin= 8.87D-03
 ErrMax= 8.87D-03 EMaxC= 1.00D-01 BMatC= 2.93D-02 BMatP= 2.10D-01
 IDIUse=3 WtCom= 9.11D-01 WtEn= 8.87D-02
 Coeff-Com:  0.372D-02 0.256D+00 0.740D+00
 Coeff-En:   0.000D+00 0.000D+00 0.100D+01
 Coeff:      0.339D-02 0.234D+00 0.763D+00
 Gap=     0.378 Goal=   None    Shift=    0.000
 RMSDP=8.23D-04 MaxDP=2.97D-02 DE=-1.79D-01 OVMax= 3.38D-02

 Cycle   4  Pass 0  IDiag  1:
 RMSU=  3.62D-04    CP:  9.72D-01  8.53D-01  8.77D-01
 E= -1641.95732761981     Delta-E=       -0.027592297272 Rises=F Damp=F
 DIIS: error= 2.35D-03 at cycle   4 NSaved=   4.
 NSaved= 4 IEnMin= 4 EnMin= -1641.95732761981     IErMin= 4 ErrMin= 2.35D-03
 ErrMax= 2.35D-03 EMaxC= 1.00D-01 BMatC= 2.69D-03 BMatP= 2.93D-02
 IDIUse=3 WtCom= 9.77D-01 WtEn= 2.35D-02
 Coeff-Com: -0.145D-01 0.251D-01 0.275D+00 0.714D+00
 Coeff-En:   0.000D+00 0.000D+00 0.000D+00 0.100D+01
 Coeff:     -0.141D-01 0.245D-01 0.268D+00 0.721D+00
 Gap=     0.373 Goal=   None    Shift=    0.000
 RMSDP=2.75D-04 MaxDP=9.01D-03 DE=-2.76D-02 OVMax= 1.17D-02

 Cycle   5  Pass 0  IDiag  1:
 RMSU=  1.40D-04    CP:  9.71D-01  8.48D-01  9.37D-01  7.80D-01
 E= -1641.96010507861     Delta-E=       -0.002777458802 Rises=F Damp=F
 DIIS: error= 9.49D-04 at cycle   5 NSaved=   5.
 NSaved= 5 IEnMin= 5 EnMin= -1641.96010507861     IErMin= 5 ErrMin= 9.49D-04
 ErrMax= 9.49D-04 EMaxC= 1.00D-01 BMatC= 1.37D-04 BMatP= 2.69D-03
 IDIUse=3 WtCom= 9.91D-01 WtEn= 9.49D-03
 Coeff-Com: -0.164D-02-0.172D-01-0.160D-01 0.829D-01 0.952D+00
 Coeff-En:   0.000D+00 0.000D+00 0.000D+00 0.000D+00 0.100D+01
 Coeff:     -0.162D-02-0.171D-01-0.159D-01 0.821D-01 0.952D+00
 Gap=     0.373 Goal=   None    Shift=    0.000
 RMSDP=1.06D-04 MaxDP=5.05D-03 DE=-2.78D-03 OVMax= 5.25D-03

 Cycle   6  Pass 0  IDiag  1:
 RMSU=  5.31D-05    CP:  9.71D-01  8.48D-01  9.60D-01  8.55D-01  1.14D+00
 E= -1641.96048426924     Delta-E=       -0.000379190629 Rises=F Damp=F
 DIIS: error= 4.60D-04 at cycle   6 NSaved=   6.
 NSaved= 6 IEnMin= 6 EnMin= -1641.96048426924     IErMin= 6 ErrMin= 4.60D-04
 ErrMax= 4.60D-04 EMaxC= 1.00D-01 BMatC= 3.45D-05 BMatP= 1.37D-04
 IDIUse=3 WtCom= 9.95D-01 WtEn= 4.60D-03
 Coeff-Com:  0.281D-02-0.943D-02-0.579D-01-0.158D+00 0.133D+00 0.109D+01
 Coeff-En:   0.000D+00 0.000D+00 0.000D+00 0.000D+00 0.000D+00 0.100D+01
 Coeff:      0.280D-02-0.939D-02-0.577D-01-0.157D+00 0.132D+00 0.109D+01
 Gap=     0.374 Goal=   None    Shift=    0.000
 RMSDP=7.00D-05 MaxDP=2.53D-03 DE=-3.79D-04 OVMax= 6.23D-03

 Cycle   7  Pass 0  IDiag  1:
 RMSU=  2.06D-05    CP:  9.71D-01  8.47D-01  9.72D-01  8.74D-01  1.40D+00
                    CP:  1.28D+00
 E= -1641.96060896092     Delta-E=       -0.000124691684 Rises=F Damp=F
 DIIS: error= 2.43D-04 at cycle   7 NSaved=   7.
 NSaved= 7 IEnMin= 7 EnMin= -1641.96060896092     IErMin= 7 ErrMin= 2.43D-04
 ErrMax= 2.43D-04 EMaxC= 1.00D-01 BMatC= 3.95D-06 BMatP= 3.45D-05
 IDIUse=3 WtCom= 9.98D-01 WtEn= 2.43D-03
 Coeff-Com:  0.186D-03 0.186D-02 0.420D-02-0.147D-01-0.109D+00-0.142D-02
 Coeff-Com:  0.112D+01
 Coeff-En:   0.000D+00 0.000D+00 0.000D+00 0.000D+00 0.000D+00 0.000D+00
 Coeff-En:   0.100D+01
 Coeff:      0.186D-03 0.186D-02 0.419D-02-0.146D-01-0.109D+00-0.142D-02
 Coeff:      0.112D+01
 Gap=     0.374 Goal=   None    Shift=    0.000
 RMSDP=2.31D-05 MaxDP=9.11D-04 DE=-1.25D-04 OVMax= 1.71D-03

 Cycle   8  Pass 0  IDiag  1:
 RMSU=  6.56D-06    CP:  9.71D-01  8.46D-01  9.74D-01  8.78D-01  1.45D+00
                    CP:  1.46D+00  1.35D+00
 E= -1641.96062394974     Delta-E=       -0.000014988820 Rises=F Damp=F
 DIIS: error= 5.66D-05 at cycle   8 NSaved=   8.
 NSaved= 8 IEnMin= 8 EnMin= -1641.96062394974     IErMin= 8 ErrMin= 5.66D-05
 ErrMax= 5.66D-05 EMaxC= 1.00D-01 BMatC= 7.06D-07 BMatP= 3.95D-06
 IDIUse=1 WtCom= 1.00D+00 WtEn= 0.00D+00
 Coeff-Com: -0.522D-03 0.223D-02 0.132D-01 0.276D-01-0.408D-01-0.225D+00
 Coeff-Com:  0.194D+00 0.103D+01
 Coeff:     -0.522D-03 0.223D-02 0.132D-01 0.276D-01-0.408D-01-0.225D+00
 Coeff:      0.194D+00 0.103D+01
 Gap=     0.374 Goal=   None    Shift=    0.000
 RMSDP=9.87D-06 MaxDP=3.87D-04 DE=-1.50D-05 OVMax= 7.52D-04

 Initial convergence to 1.0D-05 achieved.  Increase integral accuracy.
 Cycle   9  Pass 1  IDiag  1:
 E= -1641.96063027025     Delta-E=       -0.000006320507 Rises=F Damp=F
 DIIS: error= 1.54D-04 at cycle   1 NSaved=   1.
 NSaved= 1 IEnMin= 1 EnMin= -1641.96063027025     IErMin= 1 ErrMin= 1.54D-04
 ErrMax= 1.54D-04 EMaxC= 1.00D-01 BMatC= 1.54D-06 BMatP= 1.54D-06
 IDIUse=3 WtCom= 9.98D-01 WtEn= 1.54D-03
 Coeff-Com:  0.100D+01
 Coeff-En:   0.100D+01
 Coeff:      0.100D+01
 Gap=     0.374 Goal=   None    Shift=    0.000
 RMSDP=9.87D-06 MaxDP=3.87D-04 DE=-6.32D-06 OVMax= 1.93D-04

 Cycle  10  Pass 1  IDiag  1:
 RMSU=  4.09D-05    CP:  1.00D+00
 E= -1641.96063190551     Delta-E=       -0.000001635258 Rises=F Damp=F
 DIIS: error= 1.50D-05 at cycle   2 NSaved=   2.
 NSaved= 2 IEnMin= 2 EnMin= -1641.96063190551     IErMin= 2 ErrMin= 1.50D-05
 ErrMax= 1.50D-05 EMaxC= 1.00D-01 BMatC= 3.29D-08 BMatP= 1.54D-06
 IDIUse=1 WtCom= 1.00D+00 WtEn= 0.00D+00
 Coeff-Com: -0.319D-01 0.103D+01
 Coeff:     -0.319D-01 0.103D+01
 Gap=     0.374 Goal=   None    Shift=    0.000
 RMSDP=3.35D-06 MaxDP=5.66D-05 DE=-1.64D-06 OVMax= 1.29D-04

 Cycle  11  Pass 1  IDiag  1:
 RMSU=  1.06D-06    CP:  1.00D+00  1.05D+00
 E= -1641.96063198968     Delta-E=       -0.000000084176 Rises=F Damp=F
 DIIS: error= 1.02D-05 at cycle   3 NSaved=   3.
 NSaved= 3 IEnMin= 3 EnMin= -1641.96063198968     IErMin= 3 ErrMin= 1.02D-05
 ErrMax= 1.02D-05 EMaxC= 1.00D-01 BMatC= 1.54D-08 BMatP= 3.29D-08
 IDIUse=1 WtCom= 1.00D+00 WtEn= 0.00D+00
 Coeff-Com: -0.240D-01 0.343D+00 0.681D+00
 Coeff:     -0.240D-01 0.343D+00 0.681D+00
 Gap=     0.374 Goal=   None    Shift=    0.000
 RMSDP=6.12D-07 MaxDP=1.85D-05 DE=-8.42D-08 OVMax= 5.71D-05

 Cycle  12  Pass 1  IDiag  1:
 RMSU=  4.22D-07    CP:  1.00D+00  1.05D+00  1.02D+00
 E= -1641.96063202023     Delta-E=       -0.000000030545 Rises=F Damp=F
 DIIS: error= 7.30D-06 at cycle   4 NSaved=   4.
 NSaved= 4 IEnMin= 4 EnMin= -1641.96063202023     IErMin= 4 ErrMin= 7.30D-06
 ErrMax= 7.30D-06 EMaxC= 1.00D-01 BMatC= 4.47D-09 BMatP= 1.54D-08
 IDIUse=1 WtCom= 1.00D+00 WtEn= 0.00D+00
 Coeff-Com:  0.261D-01-0.633D+00-0.291D+00 0.190D+01
 Coeff:      0.261D-01-0.633D+00-0.291D+00 0.190D+01
 Gap=     0.374 Goal=   None    Shift=    0.000
 RMSDP=1.05D-06 MaxDP=2.44D-05 DE=-3.05D-08 OVMax= 1.33D-04

 Cycle  13  Pass 1  IDiag  1:
 RMSU=  3.28D-07    CP:  1.00D+00  1.06D+00  1.53D+00  1.94D+00
 E= -1641.96063204901     Delta-E=       -0.000000028781 Rises=F Damp=F
 DIIS: error= 1.74D-06 at cycle   5 NSaved=   5.
 NSaved= 5 IEnMin= 5 EnMin= -1641.96063204901     IErMin= 5 ErrMin= 1.74D-06
 ErrMax= 1.74D-06 EMaxC= 1.00D-01 BMatC= 3.50D-10 BMatP= 4.47D-09
 IDIUse=1 WtCom= 1.00D+00 WtEn= 0.00D+00
 Coeff-Com:  0.860D-02-0.183D+00-0.137D+00 0.444D+00 0.868D+00
 Coeff:      0.860D-02-0.183D+00-0.137D+00 0.444D+00 0.868D+00
 Gap=     0.374 Goal=   None    Shift=    0.000
 RMSDP=1.99D-07 MaxDP=4.83D-06 DE=-2.88D-08 OVMax= 2.55D-05

 Cycle  14  Pass 1  IDiag  1:
 RMSU=  7.61D-08    CP:  1.00D+00  1.05D+00  1.58D+00  2.13D+00  1.19D+00
 E= -1641.96063205037     Delta-E=       -0.000000001358 Rises=F Damp=F
 DIIS: error= 6.61D-07 at cycle   6 NSaved=   6.
 NSaved= 6 IEnMin= 6 EnMin= -1641.96063205037     IErMin= 6 ErrMin= 6.61D-07
 ErrMax= 6.61D-07 EMaxC= 1.00D-01 BMatC= 5.68D-11 BMatP= 3.50D-10
 IDIUse=1 WtCom= 1.00D+00 WtEn= 0.00D+00
 Coeff-Com: -0.383D-02 0.955D-01 0.356D-01-0.295D+00 0.801D-01 0.109D+01
 Coeff:     -0.383D-02 0.955D-01 0.356D-01-0.295D+00 0.801D-01 0.109D+01
 Gap=     0.374 Goal=   None    Shift=    0.000
 RMSDP=8.54D-08 MaxDP=1.75D-06 DE=-1.36D-09 OVMax= 1.05D-05

 Cycle  15  Pass 1  IDiag  1:
 RMSU=  3.17D-08    CP:  1.00D+00  1.05D+00  1.59D+00  2.19D+00  1.32D+00
                    CP:  1.17D+00
 E= -1641.96063205057     Delta-E=       -0.000000000206 Rises=F Damp=F
 DIIS: error= 2.32D-07 at cycle   7 NSaved=   7.
 NSaved= 7 IEnMin= 7 EnMin= -1641.96063205057     IErMin= 7 ErrMin= 2.32D-07
 ErrMax= 2.32D-07 EMaxC= 1.00D-01 BMatC= 7.92D-12 BMatP= 5.68D-11
 IDIUse=1 WtCom= 1.00D+00 WtEn= 0.00D+00
 Coeff-Com: -0.102D-02 0.217D-01 0.141D-01-0.513D-01-0.111D+00 0.671D-02
 Coeff-Com:  0.112D+01
 Coeff:     -0.102D-02 0.217D-01 0.141D-01-0.513D-01-0.111D+00 0.671D-02
 Coeff:      0.112D+01
 Gap=     0.374 Goal=   None    Shift=    0.000
 RMSDP=3.10D-08 MaxDP=8.49D-07 DE=-2.06D-10 OVMax= 3.31D-06

 Cycle  16  Pass 1  IDiag  1:
 RMSU=  1.16D-08    CP:  1.00D+00  1.05D+00  1.59D+00  2.21D+00  1.33D+00
                    CP:  1.32D+00  1.35D+00
 E= -1641.96063205064     Delta-E=       -0.000000000062 Rises=F Damp=F
 DIIS: error= 9.00D-08 at cycle   8 NSaved=   8.
 NSaved= 8 IEnMin= 8 EnMin= -1641.96063205064     IErMin= 8 ErrMin= 9.00D-08
 ErrMax= 9.00D-08 EMaxC= 1.00D-01 BMatC= 2.70D-12 BMatP= 7.92D-12
 IDIUse=1 WtCom= 1.00D+00 WtEn= 0.00D+00
 Coeff-Com:  0.510D-03-0.140D-01-0.302D-02 0.513D-01-0.614D-01-0.257D+00
 Coeff-Com:  0.421D+00 0.862D+00
 Coeff:      0.510D-03-0.140D-01-0.302D-02 0.513D-01-0.614D-01-0.257D+00
 Coeff:      0.421D+00 0.862D+00
 Gap=     0.374 Goal=   None    Shift=    0.000
 RMSDP=1.34D-08 MaxDP=4.17D-07 DE=-6.18D-11 OVMax= 1.20D-06

 Cycle  17  Pass 1  IDiag  1:
 RMSU=  6.02D-09    CP:  1.00D+00  1.05D+00  1.59D+00  2.21D+00  1.33D+00
                    CP:  1.35D+00  1.56D+00  1.01D+00
 E= -1641.96063205063     Delta-E=        0.000000000005 Rises=F Damp=F
 DIIS: error= 6.43D-08 at cycle   9 NSaved=   9.
 NSaved= 9 IEnMin= 8 EnMin= -1641.96063205064     IErMin= 9 ErrMin= 6.43D-08
 ErrMax= 6.43D-08 EMaxC= 1.00D-01 BMatC= 1.88D-13 BMatP= 2.70D-12
 IDIUse=1 WtCom= 1.00D+00 WtEn= 0.00D+00
 Coeff-Com:  0.117D-03-0.254D-02-0.168D-02 0.592D-02 0.110D-01-0.512D-02
 Coeff-Com: -0.893D-01-0.362D-01 0.112D+01
 Coeff:      0.117D-03-0.254D-02-0.168D-02 0.592D-02 0.110D-01-0.512D-02
 Coeff:     -0.893D-01-0.362D-01 0.112D+01
 Gap=     0.374 Goal=   None    Shift=    0.000
 RMSDP=4.88D-09 MaxDP=1.62D-07 DE= 5.46D-12 OVMax= 5.28D-07

 SCF Done:  E(RHF) =  -1641.96063205     A.U. after   17 cycles
             Convg  =    0.4878D-08             -V/T =  2.0001
 KE= 1.641730540341D+03 PE=-9.436970406225D+03 EE= 3.360632158163D+03
 Leave Link  502 at Fri Aug 26 22:11:56 2022, MaxMem=  209715200 cpu:     553.1
 (Enter /opt/gaussian/l601.exe)
 Copying SCF densities to generalized density rwf, IOpCl= 0 IROHF=0.

 **********************************************************************

            Population analysis using the SCF density.

 **********************************************************************

 Orbital symmetries:
       Occupied  (A) (A) (A) (A) (A) (A) (A) (A) (A) (A) (A) (A)
                 (A) (A) (A) (A) (A) (A) (A) (A) (A) (A) (A) (A)
                 (A) (A) (A) (A) (A) (A) (A) (A) (A) (A) (A) (A)
                 (A) (A) (A) (A) (A) (A) (A) (A) (A) (A) (A) (A)
                 (A) (A) (A) (A) (A) (A) (A) (A) (A) (A) (A) (A)
                 (A) (A) (A) (A) (A) (A) (A) (A) (A) (A) (A) (A)
                 (A) (A) (A) (A) (A) (A) (A) (A) (A) (A) (A) (A)
                 (A) (A) (A) (A) (A) (A) (A) (A) (A) (A) (A) (A)
                 (A) (A) (A) (A) (A) (A) (A) (A) (A) (A) (A) (A)
       Virtual   (A) (A) (A) (A) (A) (A) (A) (A) (A) (A) (A) (A)
                 (A) (A) (A) (A) (A) (A) (A) (A) (A) (A) (A) (A)
                 (A) (A) (A) (A) (A) (A) (A) (A) (A) (A) (A) (A)
                 (A) (A) (A) (A) (A) (A) (A) (A) (A) (A) (A) (A)
                 (A) (A) (A) (A) (A) (A) (A) (A) (A) (A) (A) (A)
                 (A) (A) (A) (A) (A) (A) (A) (A) (A) (A) (A) (A)
                 (A) (A) (A) (A) (A) (A) (A) (A) (A) (A) (A) (A)
                 (A) (A) (A) (A) (A) (A) (A) (A) (A) (A) (A) (A)
                 (A) (A) (A) (A) (A) (A) (A) (A) (A) (A) (A) (A)
                 (A) (A) (A) (A) (A) (A) (A) (A) (A) (A) (A) (A)
                 (A) (A) (A) (A) (A) (A) (A) (A) (A) (A) (A) (A)
                 (A) (A) (A) (A) (A) (A) (A) (A) (A) (A) (A) (A)
                 (A) (A) (A) (A) (A) (A) (A) (A) (A) (A) (A) (A)
                 (A) (A) (A) (A) (A) (A) (A) (A) (A) (A) (A) (A)
                 (A) (A) (A) (A) (A) (A) (A) (A) (A) (A) (A) (A)
                 (A) (A) (A) (A) (A) (A) (A) (A) (A) (A) (A) (A)
                 (A) (A) (A) (A) (A) (A) (A) (A) (A) (A)
 The electronic state is 1-A.
 Alpha  occ. eigenvalues --  -91.99503 -20.54811 -15.66751 -15.65283 -15.63730
 Alpha  occ. eigenvalues --  -15.61954 -15.61900 -15.57321 -11.39014 -11.32276
 Alpha  occ. eigenvalues --  -11.32211 -11.31106 -11.30328 -11.29235 -11.29073
 Alpha  occ. eigenvalues --  -11.28555 -11.28549 -11.27866 -11.27484 -11.27180
 Alpha  occ. eigenvalues --  -11.26746 -11.26126 -11.26079 -11.25911 -11.24956
 Alpha  occ. eigenvalues --  -11.24832 -11.24794 -11.24537 -11.23697 -11.23483
 Alpha  occ. eigenvalues --   -9.01890  -6.70043  -6.69871  -6.69590  -1.45972
 Alpha  occ. eigenvalues --   -1.40427  -1.34124  -1.28260  -1.24040  -1.22592
 Alpha  occ. eigenvalues --   -1.18208  -1.16722  -1.15131  -1.06989  -1.05271
 Alpha  occ. eigenvalues --   -1.04608  -1.03715  -1.01976  -1.01426  -1.01401
 Alpha  occ. eigenvalues --   -0.98062  -0.94299  -0.88511  -0.87661  -0.84742
 Alpha  occ. eigenvalues --   -0.84285  -0.82403  -0.81414  -0.79037  -0.78064
 Alpha  occ. eigenvalues --   -0.76868  -0.75888  -0.75231  -0.72800  -0.71585
 Alpha  occ. eigenvalues --   -0.71003  -0.70140  -0.68371  -0.65176  -0.65065
 Alpha  occ. eigenvalues --   -0.64494  -0.63546  -0.62718  -0.62031  -0.61772
 Alpha  occ. eigenvalues --   -0.60834  -0.60471  -0.59758  -0.59490  -0.59209
 Alpha  occ. eigenvalues --   -0.58588  -0.57920  -0.57706  -0.56263  -0.55172
 Alpha  occ. eigenvalues --   -0.54290  -0.53468  -0.53305  -0.52716  -0.51719
 Alpha  occ. eigenvalues --   -0.50515  -0.50374  -0.49469  -0.49238  -0.48805
 Alpha  occ. eigenvalues --   -0.44973  -0.43390  -0.42638  -0.41881  -0.41019
 Alpha  occ. eigenvalues --   -0.39678  -0.36561  -0.35322  -0.34414  -0.33591
 Alpha  occ. eigenvalues --   -0.33420  -0.32277  -0.27593
 Alpha virt. eigenvalues --    0.09771   0.10706   0.10966   0.13872   0.14734
 Alpha virt. eigenvalues --    0.16380   0.17216   0.17833   0.19344   0.20193
 Alpha virt. eigenvalues --    0.20812   0.21557   0.22745   0.23503   0.23974
 Alpha virt. eigenvalues --    0.24178   0.25375   0.25996   0.26966   0.27196
 Alpha virt. eigenvalues --    0.28078   0.28587   0.29114   0.30319   0.31382
 Alpha virt. eigenvalues --    0.31557   0.32096   0.33117   0.34566   0.34665
 Alpha virt. eigenvalues --    0.35510   0.35994   0.37087   0.38029   0.38616
 Alpha virt. eigenvalues --    0.39686   0.40316   0.40869   0.41717   0.42272
 Alpha virt. eigenvalues --    0.43342   0.44017   0.45302   0.45893   0.46787
 Alpha virt. eigenvalues --    0.47160   0.47879   0.48946   0.49392   0.50582
 Alpha virt. eigenvalues --    0.51829   0.52519   0.54028   0.55223   0.55627
 Alpha virt. eigenvalues --    0.56362   0.57638   0.58166   0.59941   0.61406
 Alpha virt. eigenvalues --    0.63505   0.63739   0.64322   0.65482   0.71116
 Alpha virt. eigenvalues --    0.71959   0.72720   0.73430   0.74144   0.74639
[...]
    21  C   -0.035781   0.009358   0.000746  -0.000007   0.000009  -0.000133
    22  C   -0.049358  -0.067146  -0.009173   0.000052  -0.000207   0.002135
    23  C   -0.054474   0.221249  -0.127928   0.005067   0.006727  -0.049840
    24  C    0.473028  -0.008821   0.006780  -0.000074   0.000273   0.005631
    25  C    4.973467   0.007693  -0.000083   0.000002  -0.000006   0.000700
    26  C    0.007693   5.034705   0.498206  -0.053888  -0.140111   0.485962
    27  C   -0.000083   0.498206   5.227457   0.177495  -0.114552  -0.188862
    28  N    0.000002  -0.053888   0.177495   7.434893   0.231903  -0.113442
    29  C   -0.000006  -0.140111  -0.114552   0.231903   4.749400   0.496825
    30  N    0.000700   0.485962  -0.188862  -0.113442   0.496825   6.935311
    31  H    0.000051   0.000000   0.000000   0.000000   0.000000   0.000000
    32  H   -0.000014   0.000000   0.000000   0.000000   0.000000   0.000000
    33  H    0.000000   0.000000   0.000000   0.000000   0.000000   0.000000
    34  H    0.000000   0.000000   0.000000   0.000000   0.000000   0.000000
    35  H    0.000000   0.000000   0.000000   0.000000   0.000000   0.000000
    36  H    0.000000   0.000000   0.000000   0.000000   0.000000   0.000000
    37  H    0.000105   0.000000   0.000000   0.000000   0.000000   0.000000
    38  H    0.000595   0.000000   0.000000   0.000000   0.000000   0.000000
    39  H    0.000000   0.000000   0.000000   0.000000   0.000000   0.000000
    40  H    0.000000   0.000000   0.000000   0.000000   0.000000   0.000000
    41  H   -0.000001   0.000000   0.000000   0.000000   0.000000   0.000000
    42  H    0.002133  -0.000133   0.000002   0.000000   0.000000   0.000000
    43  H    0.000446  -0.000579  -0.000628  -0.000028  -0.000007   0.000220
    44  H   -0.019838  -0.000332   0.000307   0.000020  -0.000032   0.003660
    45  H    0.369838  -0.000155   0.000001   0.000000   0.000000  -0.000004
    46  H    0.000001  -0.003630   0.367400  -0.033888   0.003071   0.002255
    47  H    0.000000   0.004752   0.001662  -0.050784   0.396888  -0.025187
    48  H    0.000000   0.005533  -0.011949   0.318326  -0.007794   0.003912
             31         32         33         34         35         36
     1  O    0.001364   0.001383   0.000000   0.000000   0.000000   0.000537
     2  C   -0.039434  -0.048672   0.000000   0.000000   0.000000   0.000171
     3  C    0.390174   0.397669   0.000001   0.000000   0.000001  -0.000095
     4  N   -0.037924  -0.043946  -0.000108  -0.000006  -0.000101  -0.002952
     5  N    0.009066   0.001361  -0.000084   0.000002   0.000001  -0.000004
     6  N    0.000017  -0.000131   0.001115  -0.000066  -0.000004  -0.000101
     7  C   -0.000201   0.000086  -0.020330   0.002807   0.000468   0.000848
     8  C   -0.000003  -0.000005   0.361817  -0.020199   0.002348   0.000169
     9  C    0.000000  -0.000001  -0.020775   0.374899  -0.024552   0.002023
    10  C    0.000001  -0.000019   0.002068  -0.026378   0.373811  -0.015859
    11  C    0.000044  -0.000203   0.000020   0.002607  -0.022708   0.371226
    12  C    0.003962   0.001063   0.003156   0.000370   0.002802  -0.031406
    13  N    0.004489   0.004328   0.000000   0.000000   0.000000  -0.000017
    14  C   -0.003354  -0.002876   0.000000   0.000000   0.000000  -0.000005
    15  C    0.000097   0.005230   0.000000   0.000000   0.000000   0.000032
    16  C   -0.000031   0.000014   0.000000   0.000000   0.000000  -0.000001
    17  C   -0.000003  -0.000123   0.000000   0.000000   0.000000  -0.000001
    18  S    0.000001  -0.000312   0.000000   0.000000   0.000000   0.000058
    19  C    0.000099   0.002900   0.000000   0.000000   0.000000   0.000481
    20  C   -0.000192  -0.000158   0.000000   0.000000   0.000000   0.000000
    21  C   -0.000007   0.000019   0.000000   0.000000   0.000000   0.000000
    22  C    0.000000   0.000000   0.000000   0.000000   0.000000   0.000000
    23  C    0.000000   0.000000   0.000000   0.000000   0.000000   0.000000
    24  C    0.000000   0.000000   0.000000   0.000000   0.000000   0.000000
    25  C    0.000051  -0.000014   0.000000   0.000000   0.000000   0.000000
    26  C    0.000000   0.000000   0.000000   0.000000   0.000000   0.000000
    27  C    0.000000   0.000000   0.000000   0.000000   0.000000   0.000000
    28  N    0.000000   0.000000   0.000000   0.000000   0.000000   0.000000
    29  C    0.000000   0.000000   0.000000   0.000000   0.000000   0.000000
    30  N    0.000000   0.000000   0.000000   0.000000   0.000000   0.000000
    31  H    0.438365  -0.016402   0.000000   0.000000   0.000000   0.000017
    32  H   -0.016402   0.461917   0.000000   0.000000   0.000000   0.000282
    33  H    0.000000   0.000000   0.434014  -0.000113  -0.000089   0.000009
    34  H    0.000000   0.000000  -0.000113   0.463680  -0.000275  -0.000099
    35  H    0.000000   0.000000  -0.000089  -0.000275   0.464352  -0.000174
    36  H    0.000017   0.000282   0.000009  -0.000099  -0.000174   0.451382
    37  H    0.001642  -0.002002   0.000000   0.000000   0.000000  -0.000001
    38  H    0.000070   0.000135   0.000000   0.000000   0.000000   0.000000
    39  H   -0.000001   0.000001   0.000000   0.000000   0.000000   0.000000
    40  H    0.000000   0.000000   0.000000   0.000000   0.000000   0.000000
    41  H    0.000005  -0.000059   0.000000   0.000000   0.000000   0.000176
    42  H   -0.000001  -0.000002   0.000000   0.000000   0.000000   0.000000
    43  H    0.000000   0.000000   0.000000   0.000000   0.000000   0.000000
    44  H    0.000000   0.000000   0.000000   0.000000   0.000000   0.000000
    45  H   -0.000004   0.000000   0.000000   0.000000   0.000000   0.000000
    46  H    0.000000   0.000000   0.000000   0.000000   0.000000   0.000000
    47  H    0.000000   0.000000   0.000000   0.000000   0.000000   0.000000
    48  H    0.000000   0.000000   0.000000   0.000000   0.000000   0.000000
             37         38         39         40         41         42
     1  O    0.000079  -0.000054   0.000000   0.000000   0.000149   0.000003
     2  C   -0.000526   0.001742  -0.000002   0.000000   0.000636   0.000082
     3  C   -0.001167   0.000207   0.000001   0.000000  -0.000212   0.000009
     4  N   -0.000097  -0.000004   0.000000   0.000000   0.000003   0.000000
     5  N   -0.000029   0.000000   0.000000   0.000000   0.000000   0.000000
     6  N    0.000000   0.000000   0.000000   0.000000   0.000000   0.000000
     7  C    0.000000   0.000000   0.000000   0.000000   0.000000   0.000000
     8  C    0.000000   0.000000   0.000000   0.000000   0.000000   0.000000
     9  C    0.000000   0.000000   0.000000   0.000000   0.000000   0.000000
    10  C    0.000000   0.000000   0.000000   0.000000   0.000000   0.000000
    11  C    0.000000   0.000000   0.000000   0.000000   0.000010   0.000000
    12  C   -0.000009   0.000000   0.000000   0.000000  -0.000004   0.000000
    13  N   -0.053193  -0.042530   0.000030   0.000001   0.000235  -0.002203
    14  C    0.429711   0.421838  -0.000977  -0.000067  -0.000146  -0.000521
    15  C   -0.075493  -0.058217  -0.031007   0.000192  -0.014235   0.001995
    16  C    0.000223  -0.000007   0.377264  -0.010566   0.001292   0.000010
    17  C    0.000304   0.000106  -0.022155   0.381859   0.001864  -0.000075
    18  S   -0.000067   0.000006   0.002367  -0.016823  -0.013803  -0.000288
    19  C    0.000764  -0.001061   0.005963   0.002785   0.383654   0.003552
    20  C    0.002477   0.005681  -0.000002   0.000000   0.000333  -0.028286
    21  C    0.000368  -0.000084   0.000000   0.000000   0.000590   0.367761
    22  C    0.000010  -0.000223   0.000000   0.000000   0.000023  -0.014251
    23  C   -0.000001  -0.000017   0.000000   0.000000  -0.000001   0.001156
    24  C   -0.000004  -0.000101   0.000000   0.000000  -0.000001   0.000281
    25  C    0.000105   0.000595   0.000000   0.000000  -0.000001   0.002133
    26  C    0.000000   0.000000   0.000000   0.000000   0.000000  -0.000133
    27  C    0.000000   0.000000   0.000000   0.000000   0.000000   0.000002
    28  N    0.000000   0.000000   0.000000   0.000000   0.000000   0.000000
    29  C    0.000000   0.000000   0.000000   0.000000   0.000000   0.000000
    30  N    0.000000   0.000000   0.000000   0.000000   0.000000   0.000000
    31  H    0.001642   0.000070  -0.000001   0.000000   0.000005  -0.000001
    32  H   -0.002002   0.000135   0.000001   0.000000  -0.000059  -0.000002
    33  H    0.000000   0.000000   0.000000   0.000000   0.000000   0.000000
    34  H    0.000000   0.000000   0.000000   0.000000   0.000000   0.000000
    35  H    0.000000   0.000000   0.000000   0.000000   0.000000   0.000000
    36  H   -0.000001   0.000000   0.000000   0.000000   0.000176   0.000000
    37  H    0.529166  -0.023815   0.000224   0.000000  -0.000048   0.000099
    38  H   -0.023815   0.469777   0.000126   0.000000  -0.000023  -0.000753
    39  H    0.000224   0.000126   0.445342   0.000813  -0.000071   0.000001
    40  H    0.000000   0.000000   0.000813   0.404309  -0.000012   0.000000
    41  H   -0.000048  -0.000023  -0.000071  -0.000012   0.389427  -0.000136
    42  H    0.000099  -0.000753   0.000001   0.000000  -0.000136   0.446770
    43  H    0.000000  -0.000002   0.000000   0.000000   0.000000   0.000534
    44  H    0.000000   0.000000   0.000000   0.000000   0.000000   0.000007
    45  H    0.000014   0.000022   0.000000   0.000000   0.000000  -0.000109
    46  H    0.000000   0.000000   0.000000   0.000000   0.000000  -0.000002
    47  H    0.000000   0.000000   0.000000   0.000000   0.000000   0.000000
    48  H    0.000000   0.000000   0.000000   0.000000   0.000000   0.000000
             43         44         45         46         47         48
     1  O    0.000000  -0.000006   0.002401   0.000000   0.000000   0.000000
     2  C    0.000000  -0.000002   0.001973   0.000000   0.000000   0.000000
     3  C    0.000000   0.000000  -0.000084   0.000000   0.000000   0.000000
     4  N    0.000000   0.000000  -0.000006   0.000000   0.000000   0.000000
     5  N    0.000000   0.000000   0.000001   0.000000   0.000000   0.000000
     6  N    0.000000   0.000000   0.000000   0.000000   0.000000   0.000000
     7  C    0.000000   0.000000   0.000000   0.000000   0.000000   0.000000
     8  C    0.000000   0.000000   0.000000   0.000000   0.000000   0.000000
     9  C    0.000000   0.000000   0.000000   0.000000   0.000000   0.000000
    10  C    0.000000   0.000000   0.000000   0.000000   0.000000   0.000000
    11  C    0.000000   0.000000   0.000000   0.000000   0.000000   0.000000
    12  C    0.000000   0.000000   0.000001   0.000000   0.000000   0.000000
    13  N   -0.000126  -0.000103  -0.005317   0.000000   0.000000   0.000000
    14  C    0.000006   0.000001   0.000029   0.000000   0.000000   0.000000
    15  C   -0.000001   0.000000  -0.000008   0.000000   0.000000   0.000000
    16  C    0.000000   0.000000   0.000000   0.000000   0.000000   0.000000
    17  C    0.000000   0.000000   0.000000   0.000000   0.000000   0.000000
    18  S    0.000000   0.000000   0.000000   0.000000   0.000000   0.000000
    19  C   -0.000001   0.000000   0.000001   0.000000   0.000000   0.000000
    20  C    0.001449   0.001371  -0.025614   0.000000   0.000000   0.000000
    21  C   -0.019486   0.000343   0.002402   0.000025   0.000000   0.000000
    22  C    0.370872   0.002189   0.000300   0.000463   0.000002   0.000005
    23  C   -0.030392  -0.022779   0.001484   0.001790   0.000053   0.000086
    24  C    0.001834   0.369677  -0.014418  -0.000022  -0.000007  -0.000002
    25  C    0.000446  -0.019838   0.369838   0.000001   0.000000   0.000000
    26  C   -0.000579  -0.000332  -0.000155  -0.003630   0.004752   0.005533
    27  C   -0.000628   0.000307   0.000001   0.367400   0.001662  -0.011949
    28  N   -0.000028   0.000020   0.000000  -0.033888  -0.050784   0.318326
    29  C   -0.000007  -0.000032   0.000000   0.003071   0.396888  -0.007794
    30  N    0.000220   0.003660  -0.000004   0.002255  -0.025187   0.003912
    31  H    0.000000   0.000000  -0.000004   0.000000   0.000000   0.000000
    32  H    0.000000   0.000000   0.000000   0.000000   0.000000   0.000000
    33  H    0.000000   0.000000   0.000000   0.000000   0.000000   0.000000
    34  H    0.000000   0.000000   0.000000   0.000000   0.000000   0.000000
    35  H    0.000000   0.000000   0.000000   0.000000   0.000000   0.000000
    36  H    0.000000   0.000000   0.000000   0.000000   0.000000   0.000000
    37  H    0.000000   0.000000   0.000014   0.000000   0.000000   0.000000
    38  H   -0.000002   0.000000   0.000022   0.000000   0.000000   0.000000
    39  H    0.000000   0.000000   0.000000   0.000000   0.000000   0.000000
    40  H    0.000000   0.000000   0.000000   0.000000   0.000000   0.000000
    41  H    0.000000   0.000000   0.000000   0.000000   0.000000   0.000000
    42  H    0.000534   0.000007  -0.000109  -0.000002   0.000000   0.000000
    43  H    0.473433  -0.000128   0.000008   0.001654   0.000000   0.000005
    44  H   -0.000128   0.405795   0.000288  -0.000005  -0.000006   0.000000
    45  H    0.000008   0.000288   0.432752   0.000000   0.000000   0.000000
    46  H    0.001654  -0.000005   0.000000   0.414311  -0.000031   0.000114
    47  H    0.000000  -0.000006   0.000000  -0.000031   0.432434   0.001139
    48  H    0.000005   0.000000   0.000000   0.000114   0.001139   0.296679
 Mulliken atomic charges:
              1
     1  O   -0.569090
     2  C    0.786671
     3  C   -0.130393
     4  N   -0.883754
     5  N    0.093695
     6  N   -0.336394
     7  C   -0.020421
     8  C   -0.079158
     9  C   -0.233409
    10  C   -0.206321
    11  C   -0.061736
    12  C    0.488895
    13  N   -0.983237
    14  C   -0.081191
    15  C    0.069254
    16  C   -0.104060
    17  C   -0.552118
    18  S    0.475390
    19  C   -0.603141
    20  C    0.319877
    21  C   -0.217489
    22  C   -0.199235
    23  C    0.015590
    24  C   -0.206038
    25  C   -0.146686
    26  C    0.008019
    27  C    0.173148
    28  N   -0.915648
    29  C    0.377615
    30  N   -0.559144
    31  H    0.248092
    32  H    0.238538
    33  H    0.239299
    34  H    0.202769
    35  H    0.204119
    36  H    0.223305
    37  H    0.191268
    38  H    0.226588
    39  H    0.222082
    40  H    0.237508
    41  H    0.250356
    42  H    0.222364
    43  H    0.200915
    44  H    0.259571
    45  H    0.234206
    46  H    0.246494
    47  H    0.239085
    48  H    0.393948
 Sum of Mulliken atomic charges =   0.00000
 Mulliken charges with hydrogens summed into heavy atoms:
              1
     1  O   -0.569090
     2  C    0.786671
     3  C    0.356237
     4  N   -0.883754
     5  N    0.093695
     6  N   -0.336394
     7  C   -0.020421
     8  C    0.160142
     9  C   -0.030641
    10  C   -0.002202
    11  C    0.161569
    12  C    0.488895
    13  N   -0.983237
    14  C    0.336666
    15  C    0.069254
    16  C    0.118022
    17  C   -0.314610
    18  S    0.475390
    19  C   -0.352785
    20  C    0.319877
    21  C    0.004875
    22  C    0.001680
    23  C    0.015590
    24  C    0.053533
    25  C    0.087520
    26  C    0.008019
    27  C    0.419642
    28  N   -0.521700
    29  C    0.616700
    30  N   -0.559144
 Sum of Mulliken charges with hydrogens summed into heavy atoms =   0.00000
 Electronic spatial extent (au):  <R**2>=          17281.2920
 Charge=              0.0000 electrons
 Dipole moment (field-independent basis, Debye):
    X=             -5.6142    Y=              7.0386    Z=              2.5391  Tot=              9.3545
 Quadrupole moment (field-independent basis, Debye-Ang):
   XX=           -135.2668   YY=           -183.2234   ZZ=           -178.8962
   XY=              9.2113   XZ=             -3.3821   YZ=            -16.8240
 Traceless Quadrupole moment (field-independent basis, Debye-Ang):
   XX=             30.5287   YY=            -17.4279   ZZ=            -13.1007
   XY=              9.2113   XZ=             -3.3821   YZ=            -16.8240
 Octapole moment (field-independent basis, Debye-Ang**2):
  XXX=           -587.9668  YYY=             72.5147  ZZZ=             24.9122  XYY=              0.3388
  XXY=            -54.7587  XXZ=            232.1395  XZZ=            -22.2706  YZZ=             25.4810
  YYZ=            -13.1334  XYZ=            -53.9103
 Hexadecapole moment (field-independent basis, Debye-Ang**3):
 XXXX=         -11380.8651 YYYY=          -5538.7816 ZZZZ=          -1523.9287 XXXY=            582.6285
 XXXZ=           -789.2220 YYYX=            222.6794 YYYZ=           -223.0551 ZZZX=             90.5531
 ZZZY=           -105.7396 XXYY=          -3537.4545 XXZZ=          -2940.8948 YYZZ=          -1299.3604
 XXYZ=           -335.6296 YYXZ=             69.7823 ZZXY=             42.5270
 N-N= 2.784364144626D+03 E-N=-9.422146520459D+03  KE= 1.643404408129D+03
 No NMR shielding tensors so no spin-rotation constants.
 Leave Link  601 at Fri Aug 26 22:43:21 2022, MaxMem=  209715200 cpu:       1.3
 (Enter /opt/gaussian/l9999.exe)
 1\1\GINC-LQCAPF-6\FOpt\RHF\6-31G\C22H18N6O1S1\LQCAPF-6\26-Aug-2022\0\\
 #p opt hf/6-31G\\Mol21.out\\0,1\O,20.9348731713,-7.9626504635,-2.12762
 6443\C,21.375818352,-8.8685898252,-1.4375413559\C,22.7796695265,-8.775
 1663817,-0.8506964527\N,23.3917740326,-7.5075363485,-1.1080018718\N,23
 .4515552299,-6.578074473,-0.1123923025\N,24.0021922519,-5.5230863942,-
 0.5500474694\C,24.3293532126,-5.7085044128,-1.8835769159\C,24.94907394
 05,-4.8527656732,-2.7937038873\C,25.1488864097,-5.3266881972,-4.066713
 0522\C,24.7358134033,-6.6277757241,-4.4323718833\C,24.1215161422,-7.47
 56780301,-3.5426056598\C,23.9269868004,-6.987284588,-2.2478748715\N,20
 .6571801351,-10.0011501679,-1.1521479265\C,21.2321654604,-11.135627903
 9,-0.4268848859\C,22.1325759046,-12.0329194036,-1.2446983344\C,22.8907
 842322,-13.1015057983,-0.6232620306\C,23.6330936813,-13.8144132044,-1.
 483007409\S,23.4600080911,-13.2186805679,-3.1590393182\C,22.3259288944
 ,-11.9637527779,-2.5733544886\C,19.2748947957,-10.09023586,-1.54178562
 4\C,18.8140965822,-11.1999281987,-2.2355822873\C,17.4708290187,-11.315
 499388,-2.5550174793\C,16.5616708699,-10.3222045175,-2.2047309746\C,17
 .0373457372,-9.2102443356,-1.5106395349\C,18.37434372,-9.0969870673,-1
 .17761225\C,15.1397195422,-10.419612542,-2.5462254861\C,14.4895082679,
 -11.3115057265,-3.3446376773\N,13.1611895825,-10.9426482777,-3.3227154
 408\C,13.0560151257,-9.8486932629,-2.5213625673\N,14.2167757208,-9.511
 2445767,-2.0433345681\H,22.7395134168,-8.8788402105,0.2231248756\H,23.
 4012842128,-9.5689681964,-1.2418273932\H,25.250245294,-3.8685351706,-2
 .4966453423\H,25.6200895137,-4.7056528628,-4.8026684144\H,24.902913377
 9,-6.9575149158,-5.4394670427\H,23.7952069412,-8.4527337443,-3.8361377
 112\H,21.7768595596,-10.7862565044,0.442462886\H,20.4042044561,-11.715
 2726812,-0.043562735\H,22.8605039483,-13.3033199002,0.4290132246\H,24.
 2728678112,-14.6420371148,-1.2753453072\H,21.8857953441,-11.2835981626
 ,-3.2674788275\H,19.4941557739,-11.9757531387,-2.525761545\H,17.139993
 0968,-12.1913008021,-3.0793237404\H,16.3474003926,-8.441352432,-1.2307
 204984\H,18.7204355076,-8.2299613564,-0.6543304226\H,14.8358578786,-12
 .1394240315,-3.916420351\H,12.1339137703,-9.3535845261,-2.3271470383\H
 ,12.4228218698,-11.3891401612,-3.8070741686\\Version=EM64L-G09RevC.01\
 State=1-A\HF=-1642.0168986\RMSD=9.352e-09\RMSF=4.096e-06\Dipole=-1.147
 7765,-3.3781822,-0.9030604\Quadrupole=22.5938875,-14.2879798,-8.305907
 7,6.3125508,7.4281798,-10.5738759\PG=C01 [X(C22H18N6O1S1)]\\@


 LOGIC IS A SYSTEMATIC METHOD OF COMING TO THE
 WRONG CONCLUSION WITH CONFIDENCE.
 Job cpu time:  0 days  4 hours 18 minutes 51.4 seconds.
 File lengths (MBytes):  RWF=     66 Int=      0 D2E=      0 Chk=     10 Scr=      1
 Normal termination of Gaussian 09 at Fri Aug 26 22:43:21 2022.
