 Entering Gaussian System, Link 0=g09
 Input=Mol27.gjf
 Output=Mol27.log
 Initial command:
 /opt/gaussian/l1.exe /home/scr/lqcapf-6/Gau-282639.inp -scrdir=/home/scr/lqcapf-6/
 Entering Link 1 = /opt/gaussian/l1.exe PID=    282641.
  
 Copyright (c) 1988,1990,1992,1993,1995,1998,2003,2009,2011,
            Gaussian, Inc.  All Rights Reserved.
  
 This is part of the Gaussian(R) 09 program.  It is based on
 the Gaussian(R) 03 system (copyright 2003, Gaussian, Inc.),
 the Gaussian(R) 98 system (copyright 1998, Gaussian, Inc.),
 the Gaussian(R) 94 system (copyright 1995, Gaussian, Inc.),
 the Gaussian 92(TM) system (copyright 1992, Gaussian, Inc.),
 the Gaussian 90(TM) system (copyright 1990, Gaussian, Inc.),
 the Gaussian 88(TM) system (copyright 1988, Gaussian, Inc.),
 the Gaussian 86(TM) system (copyright 1986, Carnegie Mellon
 University), and the Gaussian 82(TM) system (copyright 1983,
 Carnegie Mellon University). Gaussian is a federally registered
 trademark of Gaussian, Inc.
  
 This software contains proprietary and confidential information,
 including trade secrets, belonging to Gaussian, Inc.
  
 This software is provided under written license and may be
 used, copied, transmitted, or stored only in accord with that
 written license.
  
 The following legend is applicable only to US Government
 contracts under FAR:
  
                    RESTRICTED RIGHTS LEGEND
  
 Use, reproduction and disclosure by the US Government is
 subject to restrictions as set forth in subparagraphs (a)
 and (c) of the Commercial Computer Software - Restricted
 Rights clause in FAR 52.227-19.
  
 Gaussian, Inc.
 340 Quinnipiac St., Bldg. 40, Wallingford CT 06492
  
  
 ---------------------------------------------------------------
 Warning -- This program may not be used in any manner that
 competes with the business of Gaussian, Inc. or will provide
 assistance to any competitor of Gaussian, Inc.  The licensee
 of this program is prohibited from giving any competitor of
 Gaussian, Inc. access to this program.  By using this program,
 the user acknowledges that Gaussian, Inc. is engaged in the
 business of creating and licensing software in the field of
 computational chemistry and represents and warrants to the
 licensee that it is not a competitor of Gaussian, Inc. and that
 it will not use this program in any manner prohibited above.
 ---------------------------------------------------------------
  

 Cite this work as:
 Gaussian 09, Revision C.01,
 M. J. Frisch, G. W. Trucks, H. B. Schlegel, G. E. Scuseria, 
 M. A. Robb, J. R. Cheeseman, G. Scalmani, V. Barone, B. Mennucci, 
 G. A. Petersson, H. Nakatsuji, M. Caricato, X. Li, H. P. Hratchian, 
 A. F. Izmaylov, J. Bloino, G. Zheng, J. L. Sonnenberg, M. Hada, 
 M. Ehara, K. Toyota, R. Fukuda, J. Hasegawa, M. Ishida, T. Nakajima, 
 Y. Honda, O. Kitao, H. Nakai, T. Vreven, J. A. Montgomery, Jr., 
 J. E. Peralta, F. Ogliaro, M. Bearpark, J. J. Heyd, E. Brothers, 
 K. N. Kudin, V. N. Staroverov, T. Keith, R. Kobayashi, J. Normand, 
 K. Raghavachari, A. Rendell, J. C. Burant, S. S. Iyengar, J. Tomasi, 
 M. Cossi, N. Rega, J. M. Millam, M. Klene, J. E. Knox, J. B. Cross, 
 V. Bakken, C. Adamo, J. Jaramillo, R. Gomperts, R. E. Stratmann, 
 O. Yazyev, A. J. Austin, R. Cammi, C. Pomelli, J. W. Ochterski, 
 R. L. Martin, K. Morokuma, V. G. Zakrzewski, G. A. Voth, 
 P. Salvador, J. J. Dannenberg, S. Dapprich, A. D. Daniels, 
 O. Farkas, J. B. Foresman, J. V. Ortiz, J. Cioslowski, 
 and D. J. Fox, Gaussian, Inc., Wallingford CT, 2010.
 
 ******************************************
 Gaussian 09:  EM64L-G09RevC.01 23-Sep-2011
                27-Aug-2022 
 ******************************************
 %nprocshared=8
 Will use up to    8 processors via shared memory.
 %mem=1600MB
 ---------------
 #p opt hf/6-31G
 ---------------
 1/18=20,19=15,38=1/1,3;
 2/9=110,12=2,17=6,18=5,40=1/2;
 3/5=1,6=6,11=9,16=1,25=1,30=1,71=1/1,2,3;
 4//1;
 5/5=2,38=5/2;
 6/7=2,8=2,9=2,10=2,28=1/1;
 7//1,2,3,16;
 1/18=20,19=15/3(2);
 2/9=110/2;
 99//99;
 2/9=110/2;
 3/5=1,6=6,11=9,16=1,25=1,30=1,71=1/1,2,3;
 4/5=5,16=3/1;
 5/5=2,38=5/2;
 7//1,2,3,16;
 1/18=20,19=15/3(-5);
 2/9=110/2;
 6/7=2,8=2,9=2,10=2,19=2,28=1/1;
 99/9=1/99;
 Leave Link    1 at Sat Aug 27 02:20:48 2022, MaxMem=  209715200 cpu:       0.1
 (Enter /opt/gaussian/l101.exe)
 ---------
 Mol27.out
 ---------
 Charge =  0 Multiplicity = 1
 Symbolic Z-Matrix:
 O                     21.2028  -7.1581    0.2336 
 C                     21.8362  -8.1782    0.5479 
 C                     23.3289  -8.118     0.9174 
 N                     23.9526  -6.836     0.7128 
 N                     23.7842  -5.7648    1.5602 
 N                     24.0985  -4.6762    1.0229 
 C                     24.4555  -4.9064   -0.347 
 C                     24.8703  -4.0707   -1.3825 
 C                     25.1362  -4.6605   -2.6147 
 C                     25.0068  -6.0439   -2.8172 
 C                     24.6054  -6.9065   -1.8017 
 C                     24.3248  -6.3323   -0.5618 
 N                     21.1924  -9.4193    0.6532 
 C                     21.9242  -10.6557   0.792 
 C                     22.3433  -11.3101  -0.4951 
 C                     22.0119  -12.6182  -0.8377 
 S                     22.6577  -13.0154  -2.3255 
 C                     23.3448  -11.4595  -2.4692 
 N                     23.1152  -10.6447  -1.4455 
 C                     19.823   -9.5385    0.2727 
 C                     18.9299  -10.266    1.0884 
 C                     17.5972  -10.4048   0.7198 
 C                     17.1094  -9.8192   -0.4565 
 C                     17.9907  -9.0798   -1.2565 
 C                     19.3284  -8.9397   -0.9041 
 C                     15.7115  -9.9727   -0.8355 
 C                     15.0176  -11.1717  -0.6129 
 C                     13.6809  -11.2669  -0.9981 
 C                     13.0714  -10.1496  -1.5961 
 N                     13.7152  -8.987    -1.8195 
 C                     15.0041  -8.9088   -1.4452 
 H                     23.4266  -8.3891    2.009 
 H                     23.902   -8.857     0.2876 
 H                     24.9784  -2.9879   -1.2275 
 H                     25.4525  -4.0266   -3.457 
 H                     25.2266  -6.4582   -3.8134 
 H                     24.5037  -7.9875   -1.97 
 H                     22.8436  -10.4781   1.4216 
 H                     21.2687  -11.3904   1.3464 
 H                     21.4092  -13.2929  -0.2331 
 H                     23.9335  -11.1387  -3.3336 
 H                     19.2743  -10.7213   2.0296 
 H                     16.9133  -10.9704   1.3712 
 H                     17.6258  -8.6069   -2.1818 
 H                     19.996   -8.3331   -1.5377 
 H                     15.5258  -12.0278  -0.1451 
 H                     13.1127  -12.1929  -0.8424 
 H                     12.0139  -10.1811  -1.9128 
 H                     15.5022  -7.94     -1.6338 
 
 NAtoms=     49 NQM=        0 NQMF=       0 NMMI=     49 NMMIF=      0
                NMic=       0 NMicF=      0.
                    Isotopes and Nuclear Properties:
 (Nuclear quadrupole moments (NQMom) in fm**2, nuclear magnetic moments (NMagM)
  in nuclear magnetons)

  Atom         1           2           3           4           5           6           7           8           9          10
 IAtWgt=          16          12          12          14          14          14          12          12          12          12
 AtmWgt=  15.9949146  12.0000000  12.0000000  14.0030740  14.0030740  14.0030740  12.0000000  12.0000000  12.0000000  12.0000000
 NucSpn=           0           0           0           2           2           2           0           0           0           0
 AtZEff=   0.0000000   0.0000000   0.0000000   0.0000000   0.0000000   0.0000000   0.0000000   0.0000000   0.0000000   0.0000000
 NQMom=    0.0000000   0.0000000   0.0000000   2.0440000   2.0440000   2.0440000   0.0000000   0.0000000   0.0000000   0.0000000
 NMagM=    0.0000000   0.0000000   0.0000000   0.4037610   0.4037610   0.4037610   0.0000000   0.0000000   0.0000000   0.0000000

  Atom        11          12          13          14          15          16          17          18          19          20
 IAtWgt=          12          12          14          12          12          12          32          12          14          12
 AtmWgt=  12.0000000  12.0000000  14.0030740  12.0000000  12.0000000  12.0000000  31.9720718  12.0000000  14.0030740  12.0000000
 NucSpn=           0           0           2           0           0           0           0           0           2           0
 AtZEff=   0.0000000   0.0000000   0.0000000   0.0000000   0.0000000   0.0000000   0.0000000   0.0000000   0.0000000   0.0000000
 NQMom=    0.0000000   0.0000000   2.0440000   0.0000000   0.0000000   0.0000000   0.0000000   0.0000000   2.0440000   0.0000000
 NMagM=    0.0000000   0.0000000   0.4037610   0.0000000   0.0000000   0.0000000   0.0000000   0.0000000   0.4037610   0.0000000

  Atom        21          22          23          24          25          26          27          28          29          30
 IAtWgt=          12          12          12          12          12          12          12          12          12          14
 AtmWgt=  12.0000000  12.0000000  12.0000000  12.0000000  12.0000000  12.0000000  12.0000000  12.0000000  12.0000000  14.0030740
 NucSpn=           0           0           0           0           0           0           0           0           0           2
 AtZEff=   0.0000000   0.0000000   0.0000000   0.0000000   0.0000000   0.0000000   0.0000000   0.0000000   0.0000000   0.0000000
 NQMom=    0.0000000   0.0000000   0.0000000   0.0000000   0.0000000   0.0000000   0.0000000   0.0000000   0.0000000   2.0440000
 NMagM=    0.0000000   0.0000000   0.0000000   0.0000000   0.0000000   0.0000000   0.0000000   0.0000000   0.0000000   0.4037610

  Atom        31          32          33          34          35          36          37          38          39          40
 IAtWgt=          12           1           1           1           1           1           1           1           1           1
 AtmWgt=  12.0000000   1.0078250   1.0078250   1.0078250   1.0078250   1.0078250   1.0078250   1.0078250   1.0078250   1.0078250
 NucSpn=           0           1           1           1           1           1           1           1           1           1
 AtZEff=   0.0000000   0.0000000   0.0000000   0.0000000   0.0000000   0.0000000   0.0000000   0.0000000   0.0000000   0.0000000
 NQMom=    0.0000000   0.0000000   0.0000000   0.0000000   0.0000000   0.0000000   0.0000000   0.0000000   0.0000000   0.0000000
 NMagM=    0.0000000   2.7928460   2.7928460   2.7928460   2.7928460   2.7928460   2.7928460   2.7928460   2.7928460   2.7928460

  Atom        41          42          43          44          45          46          47          48          49
 IAtWgt=           1           1           1           1           1           1           1           1           1
 AtmWgt=   1.0078250   1.0078250   1.0078250   1.0078250   1.0078250   1.0078250   1.0078250   1.0078250   1.0078250
 NucSpn=           1           1           1           1           1           1           1           1           1
 AtZEff=   0.0000000   0.0000000   0.0000000   0.0000000   0.0000000   0.0000000   0.0000000   0.0000000   0.0000000
 NQMom=    0.0000000   0.0000000   0.0000000   0.0000000   0.0000000   0.0000000   0.0000000   0.0000000   0.0000000
 NMagM=    2.7928460   2.7928460   2.7928460   2.7928460   2.7928460   2.7928460   2.7928460   2.7928460   2.7928460
 Leave Link  101 at Sat Aug 27 02:20:48 2022, MaxMem=  209715200 cpu:       0.8
 (Enter /opt/gaussian/l103.exe)

 GradGradGradGradGradGradGradGradGradGradGradGradGradGradGradGradGradGrad
 Berny optimization.
 Initialization pass.
                           ----------------------------
                           !    Initial Parameters    !
                           ! (Angstroms and Degrees)  !
 --------------------------                            --------------------------
 ! Name  Definition              Value          Derivative Info.                !
 --------------------------------------------------------------------------------
 ! R1    R(1,2)                  1.2412         estimate D2E/DX2                !
 ! R2    R(2,3)                  1.5389         estimate D2E/DX2                !
 ! R3    R(2,13)                 1.4021         estimate D2E/DX2                !
 ! R4    R(3,4)                  1.4403         estimate D2E/DX2                !
 ! R5    R(3,32)                 1.129          estimate D2E/DX2                !
 ! R6    R(3,33)                 1.1275         estimate D2E/DX2                !
 ! R7    R(4,5)                  1.3762         estimate D2E/DX2                !
 ! R8    R(4,12)                 1.4202         estimate D2E/DX2                !
 ! R9    R(5,6)                  1.254          estimate D2E/DX2                !
 ! R10   R(6,7)                  1.4342         estimate D2E/DX2                !
 ! R11   R(7,8)                  1.3938         estimate D2E/DX2                !
 ! R12   R(7,12)                 1.4479         estimate D2E/DX2                !
 ! R13   R(8,9)                  1.3917         estimate D2E/DX2                !
 ! R14   R(8,34)                 1.0992         estimate D2E/DX2                !
 ! R15   R(9,10)                 1.4041         estimate D2E/DX2                !
 ! R16   R(9,35)                 1.1006         estimate D2E/DX2                !
 ! R17   R(10,11)                1.3916         estimate D2E/DX2                !
 ! R18   R(10,36)                1.1011         estimate D2E/DX2                !
 ! R19   R(11,12)                1.3949         estimate D2E/DX2                !
 ! R20   R(11,37)                1.0987         estimate D2E/DX2                !
 ! R21   R(13,14)                1.4434         estimate D2E/DX2                !
 ! R22   R(13,20)                1.4263         estimate D2E/DX2                !
 ! R23   R(14,15)                1.5035         estimate D2E/DX2                !
 ! R24   R(14,38)                1.1284         estimate D2E/DX2                !
 ! R25   R(14,39)                1.13           estimate D2E/DX2                !
 ! R26   R(15,16)                1.3922         estimate D2E/DX2                !
 ! R27   R(15,19)                1.3935         estimate D2E/DX2                !
 ! R28   R(16,17)                1.6698         estimate D2E/DX2                !
 ! R29   R(16,40)                1.0881         estimate D2E/DX2                !
 ! R30   R(17,18)                1.7069         estimate D2E/DX2                !
 ! R31   R(18,19)                1.3284         estimate D2E/DX2                !
 ! R32   R(18,41)                1.0939         estimate D2E/DX2                !
 ! R33   R(20,21)                1.4115         estimate D2E/DX2                !
 ! R34   R(20,25)                1.41           estimate D2E/DX2                !
 ! R35   R(21,22)                1.3897         estimate D2E/DX2                !
 ! R36   R(21,42)                1.1008         estimate D2E/DX2                !
 ! R37   R(22,23)                1.4016         estimate D2E/DX2                !
 ! R38   R(22,43)                1.1009         estimate D2E/DX2                !
 ! R39   R(23,24)                1.4012         estimate D2E/DX2                !
 ! R40   R(23,26)                1.4565         estimate D2E/DX2                !
 ! R41   R(24,25)                1.3904         estimate D2E/DX2                !
 ! R42   R(24,44)                1.1013         estimate D2E/DX2                !
 ! R43   R(25,45)                1.1023         estimate D2E/DX2                !
 ! R44   R(26,27)                1.4031         estimate D2E/DX2                !
 ! R45   R(26,31)                1.4156         estimate D2E/DX2                !
 ! R46   R(27,28)                1.3943         estimate D2E/DX2                !
 ! R47   R(27,46)                1.1            estimate D2E/DX2                !
 ! R48   R(28,29)                1.4062         estimate D2E/DX2                !
 ! R49   R(28,47)                1.0975         estimate D2E/DX2                !
 ! R50   R(29,30)                1.3476         estimate D2E/DX2                !
 ! R51   R(29,48)                1.1044         estimate D2E/DX2                !
 ! R52   R(30,31)                1.3444         estimate D2E/DX2                !
 ! R53   R(31,49)                1.1056         estimate D2E/DX2                !
 ! A1    A(1,2,3)              121.5761         estimate D2E/DX2                !
 ! A2    A(1,2,13)             120.8097         estimate D2E/DX2                !
 ! A3    A(3,2,13)             117.5141         estimate D2E/DX2                !
 ! A4    A(2,3,4)              114.8816         estimate D2E/DX2                !
 ! A5    A(2,3,32)             107.8601         estimate D2E/DX2                !
 ! A6    A(2,3,33)             109.4676         estimate D2E/DX2                !
 ! A7    A(4,3,32)             108.2772         estimate D2E/DX2                !
 ! A8    A(4,3,33)             106.496          estimate D2E/DX2                !
 ! A9    A(32,3,33)            109.7985         estimate D2E/DX2                !
 ! A10   A(3,4,5)              123.5304         estimate D2E/DX2                !
 ! A11   A(3,4,12)             123.8273         estimate D2E/DX2                !
 ! A12   A(5,4,12)             107.9773         estimate D2E/DX2                !
 ! A13   A(4,5,6)              112.4086         estimate D2E/DX2                !
 ! A14   A(5,6,7)              109.4084         estimate D2E/DX2                !
 ! A15   A(6,7,8)              133.4276         estimate D2E/DX2                !
 ! A16   A(6,7,12)             106.0986         estimate D2E/DX2                !
 ! A17   A(8,7,12)             120.472          estimate D2E/DX2                !
 ! A18   A(7,8,9)              117.4216         estimate D2E/DX2                !
 ! A19   A(7,8,34)             121.0078         estimate D2E/DX2                !
 ! A20   A(9,8,34)             121.5703         estimate D2E/DX2                !
 ! A21   A(8,9,10)             121.8448         estimate D2E/DX2                !
 ! A22   A(8,9,35)             119.2359         estimate D2E/DX2                !
 ! A23   A(10,9,35)            118.9187         estimate D2E/DX2                !
 ! A24   A(9,10,11)            122.1456         estimate D2E/DX2                !
 ! A25   A(9,10,36)            118.8685         estimate D2E/DX2                !
 ! A26   A(11,10,36)           118.9855         estimate D2E/DX2                !
 ! A27   A(10,11,12)           116.8411         estimate D2E/DX2                !
 ! A28   A(10,11,37)           121.6541         estimate D2E/DX2                !
 ! A29   A(12,11,37)           121.5018         estimate D2E/DX2                !
 ! A30   A(4,12,7)             103.8747         estimate D2E/DX2                !
 ! A31   A(4,12,11)            134.7881         estimate D2E/DX2                !
 ! A32   A(7,12,11)            121.2713         estimate D2E/DX2                !
 ! A33   A(2,13,14)            122.1841         estimate D2E/DX2                !
 ! A34   A(2,13,20)            119.6566         estimate D2E/DX2                !
 ! A35   A(14,13,20)           116.1574         estimate D2E/DX2                !
 ! A36   A(13,14,15)           115.5836         estimate D2E/DX2                !
 ! A37   A(13,14,38)           109.3858         estimate D2E/DX2                !
 ! A38   A(13,14,39)           108.06           estimate D2E/DX2                !
 ! A39   A(15,14,38)           108.605          estimate D2E/DX2                !
 ! A40   A(15,14,39)           107.3809         estimate D2E/DX2                !
 ! A41   A(38,14,39)           107.5326         estimate D2E/DX2                !
 ! A42   A(14,15,16)           123.5907         estimate D2E/DX2                !
 ! A43   A(14,15,19)           122.0347         estimate D2E/DX2                !
 ! A44   A(16,15,19)           114.3725         estimate D2E/DX2                !
 ! A45   A(15,16,17)           110.5292         estimate D2E/DX2                !
 ! A46   A(15,16,40)           125.289          estimate D2E/DX2                !
 ! A47   A(17,16,40)           124.1793         estimate D2E/DX2                !
 ! A48   A(16,17,18)            90.7945         estimate D2E/DX2                !
 ! A49   A(17,18,19)           115.1291         estimate D2E/DX2                !
 ! A50   A(17,18,41)           123.3986         estimate D2E/DX2                !
 ! A51   A(19,18,41)           121.4723         estimate D2E/DX2                !
 ! A52   A(15,19,18)           109.1745         estimate D2E/DX2                !
 ! A53   A(13,20,21)           119.7632         estimate D2E/DX2                !
 ! A54   A(13,20,25)           121.5986         estimate D2E/DX2                !
 ! A55   A(21,20,25)           118.6376         estimate D2E/DX2                !
 ! A56   A(20,21,22)           120.3309         estimate D2E/DX2                !
 ! A57   A(20,21,42)           120.6197         estimate D2E/DX2                !
 ! A58   A(22,21,42)           119.0457         estimate D2E/DX2                !
 ! A59   A(21,22,23)           120.9723         estimate D2E/DX2                !
 ! A60   A(21,22,43)           119.3488         estimate D2E/DX2                !
 ! A61   A(23,22,43)           119.672          estimate D2E/DX2                !
 ! A62   A(22,23,24)           118.7328         estimate D2E/DX2                !
 ! A63   A(22,23,26)           120.5559         estimate D2E/DX2                !
 ! A64   A(24,23,26)           120.7108         estimate D2E/DX2                !
 ! A65   A(23,24,25)           120.9023         estimate D2E/DX2                !
 ! A66   A(23,24,44)           119.8588         estimate D2E/DX2                !
 ! A67   A(25,24,44)           119.2375         estimate D2E/DX2                !
 ! A68   A(20,25,24)           120.4129         estimate D2E/DX2                !
 ! A69   A(20,25,45)           120.0653         estimate D2E/DX2                !
 ! A70   A(24,25,45)           119.5011         estimate D2E/DX2                !
 ! A71   A(23,26,27)           121.5633         estimate D2E/DX2                !
 ! A72   A(23,26,31)           120.8288         estimate D2E/DX2                !
 ! A73   A(27,26,31)           117.6079         estimate D2E/DX2                !
 ! A74   A(26,27,28)           119.25           estimate D2E/DX2                !
 ! A75   A(26,27,46)           120.2685         estimate D2E/DX2                !
 ! A76   A(28,27,46)           120.4804         estimate D2E/DX2                !
 ! A77   A(27,28,29)           118.6034         estimate D2E/DX2                !
 ! A78   A(27,28,47)           120.9786         estimate D2E/DX2                !
 ! A79   A(29,28,47)           120.4179         estimate D2E/DX2                !
 ! A80   A(28,29,30)           123.2913         estimate D2E/DX2                !
 ! A81   A(28,29,48)           120.9528         estimate D2E/DX2                !
 ! A82   A(30,29,48)           115.7558         estimate D2E/DX2                !
 ! A83   A(29,30,31)           117.5185         estimate D2E/DX2                !
 ! A84   A(26,31,30)           123.7286         estimate D2E/DX2                !
 ! A85   A(26,31,49)           120.458          estimate D2E/DX2                !
 ! A86   A(30,31,49)           115.8116         estimate D2E/DX2                !
 ! D1    D(1,2,3,4)             -7.1547         estimate D2E/DX2                !
 ! D2    D(1,2,3,32)           113.6859         estimate D2E/DX2                !
 ! D3    D(1,2,3,33)          -126.8854         estimate D2E/DX2                !
 ! D4    D(13,2,3,4)           176.4549         estimate D2E/DX2                !
 ! D5    D(13,2,3,32)          -62.7045         estimate D2E/DX2                !
 ! D6    D(13,2,3,33)           56.7242         estimate D2E/DX2                !
 ! D7    D(1,2,13,14)          169.2934         estimate D2E/DX2                !
 ! D8    D(1,2,13,20)            6.011          estimate D2E/DX2                !
 ! D9    D(3,2,13,14)          -14.2871         estimate D2E/DX2                !
 ! D10   D(3,2,13,20)         -177.5695         estimate D2E/DX2                !
 ! D11   D(2,3,4,5)             76.7902         estimate D2E/DX2                !
 ! D12   D(2,3,4,12)           -76.0534         estimate D2E/DX2                !
 ! D13   D(32,3,4,5)           -43.8214         estimate D2E/DX2                !
 ! D14   D(32,3,4,12)          163.335          estimate D2E/DX2                !
 ! D15   D(33,3,4,5)          -161.8446         estimate D2E/DX2                !
 ! D16   D(33,3,4,12)           45.3118         estimate D2E/DX2                !
 ! D17   D(3,4,5,6)           -161.6674         estimate D2E/DX2                !
 ! D18   D(12,4,5,6)            -5.1592         estimate D2E/DX2                !
 ! D19   D(3,4,12,7)           160.689          estimate D2E/DX2                !
 ! D20   D(3,4,12,11)          -22.3707         estimate D2E/DX2                !
 ! D21   D(5,4,12,7)             4.267          estimate D2E/DX2                !
 ! D22   D(5,4,12,11)         -178.7927         estimate D2E/DX2                !
 ! D23   D(4,5,6,7)              3.6412         estimate D2E/DX2                !
 ! D24   D(5,6,7,8)            179.7671         estimate D2E/DX2                !
 ! D25   D(5,6,7,12)            -0.7364         estimate D2E/DX2                !
 ! D26   D(6,7,8,9)           -179.988          estimate D2E/DX2                !
 ! D27   D(6,7,8,34)            -0.1858         estimate D2E/DX2                !
 ! D28   D(12,7,8,9)             0.5733         estimate D2E/DX2                !
 ! D29   D(12,7,8,34)         -179.6244         estimate D2E/DX2                !
 ! D30   D(6,7,12,4)            -2.2367         estimate D2E/DX2                !
 ! D31   D(6,7,12,11)         -179.6965         estimate D2E/DX2                !
 ! D32   D(8,7,12,4)           177.339          estimate D2E/DX2                !
 ! D33   D(8,7,12,11)           -0.1208         estimate D2E/DX2                !
 ! D34   D(7,8,9,10)            -0.54           estimate D2E/DX2                !
 ! D35   D(7,8,9,35)           179.175          estimate D2E/DX2                !
 ! D36   D(34,8,9,10)          179.659          estimate D2E/DX2                !
 ! D37   D(34,8,9,35)           -0.626          estimate D2E/DX2                !
 ! D38   D(8,9,10,11)            0.0369         estimate D2E/DX2                !
 ! D39   D(8,9,10,36)          179.7964         estimate D2E/DX2                !
 ! D40   D(35,9,10,11)        -179.679          estimate D2E/DX2                !
 ! D41   D(35,9,10,36)           0.0806         estimate D2E/DX2                !
 ! D42   D(9,10,11,12)           0.4236         estimate D2E/DX2                !
 ! D43   D(9,10,11,37)         179.8004         estimate D2E/DX2                !
 ! D44   D(36,10,11,12)       -179.3356         estimate D2E/DX2                !
 ! D45   D(36,10,11,37)          0.0411         estimate D2E/DX2                !
 ! D46   D(10,11,12,4)        -176.9023         estimate D2E/DX2                !
 ! D47   D(10,11,12,7)          -0.3781         estimate D2E/DX2                !
 ! D48   D(37,11,12,4)           3.72           estimate D2E/DX2                !
 ! D49   D(37,11,12,7)        -179.7558         estimate D2E/DX2                !
 ! D50   D(2,13,14,15)         -87.2201         estimate D2E/DX2                !
 ! D51   D(2,13,14,38)          35.6987         estimate D2E/DX2                !
 ! D52   D(2,13,14,39)         152.4836         estimate D2E/DX2                !
 ! D53   D(20,13,14,15)         76.6095         estimate D2E/DX2                !
 ! D54   D(20,13,14,38)       -160.4718         estimate D2E/DX2                !
 ! D55   D(20,13,14,39)        -43.6869         estimate D2E/DX2                !
 ! D56   D(2,13,20,21)        -136.2075         estimate D2E/DX2                !
 ! D57   D(2,13,20,25)          43.5122         estimate D2E/DX2                !
 ! D58   D(14,13,20,21)         59.53           estimate D2E/DX2                !
 ! D59   D(14,13,20,25)       -120.7502         estimate D2E/DX2                !
 ! D60   D(13,14,15,16)       -124.1297         estimate D2E/DX2                !
 ! D61   D(13,14,15,19)         56.428          estimate D2E/DX2                !
 ! D62   D(38,14,15,16)        112.5396         estimate D2E/DX2                !
 ! D63   D(38,14,15,19)        -66.9027         estimate D2E/DX2                !
 ! D64   D(39,14,15,16)         -3.4646         estimate D2E/DX2                !
 ! D65   D(39,14,15,19)        177.093          estimate D2E/DX2                !
 ! D66   D(14,15,16,17)       -179.3556         estimate D2E/DX2                !
 ! D67   D(14,15,16,40)          1.1978         estimate D2E/DX2                !
 ! D68   D(19,15,16,17)          0.1254         estimate D2E/DX2                !
 ! D69   D(19,15,16,40)       -179.3212         estimate D2E/DX2                !
 ! D70   D(14,15,19,18)        179.4389         estimate D2E/DX2                !
 ! D71   D(16,15,19,18)         -0.0511         estimate D2E/DX2                !
 ! D72   D(15,16,17,18)         -0.123          estimate D2E/DX2                !
 ! D73   D(40,16,17,18)        179.331          estimate D2E/DX2                !
 ! D74   D(16,17,18,19)          0.1015         estimate D2E/DX2                !
 ! D75   D(16,17,18,41)       -179.8621         estimate D2E/DX2                !
 ! D76   D(17,18,19,15)         -0.046          estimate D2E/DX2                !
 ! D77   D(41,18,19,15)        179.9183         estimate D2E/DX2                !
 ! D78   D(13,20,21,22)       -179.1337         estimate D2E/DX2                !
 ! D79   D(13,20,21,42)          1.5694         estimate D2E/DX2                !
 ! D80   D(25,20,21,22)          1.1383         estimate D2E/DX2                !
 ! D81   D(25,20,21,42)       -178.1586         estimate D2E/DX2                !
 ! D82   D(13,20,25,24)        179.5336         estimate D2E/DX2                !
 ! D83   D(13,20,25,45)         -2.1296         estimate D2E/DX2                !
 ! D84   D(21,20,25,24)         -0.7436         estimate D2E/DX2                !
 ! D85   D(21,20,25,45)        177.5932         estimate D2E/DX2                !
 ! D86   D(20,21,22,23)         -0.5845         estimate D2E/DX2                !
 ! D87   D(20,21,22,43)       -179.6267         estimate D2E/DX2                !
 ! D88   D(42,21,22,23)        178.7234         estimate D2E/DX2                !
 ! D89   D(42,21,22,43)         -0.3188         estimate D2E/DX2                !
 ! D90   D(21,22,23,24)         -0.3783         estimate D2E/DX2                !
 ! D91   D(21,22,23,26)        179.8768         estimate D2E/DX2                !
 ! D92   D(43,22,23,24)        178.6609         estimate D2E/DX2                !
 ! D93   D(43,22,23,26)         -1.084          estimate D2E/DX2                !
 ! D94   D(22,23,24,25)          0.7782         estimate D2E/DX2                !
 ! D95   D(22,23,24,44)       -179.6538         estimate D2E/DX2                !
 ! D96   D(26,23,24,25)       -179.4774         estimate D2E/DX2                !
 ! D97   D(26,23,24,44)          0.0907         estimate D2E/DX2                !
 ! D98   D(22,23,26,27)        -37.2363         estimate D2E/DX2                !
 ! D99   D(22,23,26,31)        142.7769         estimate D2E/DX2                !
 ! D100  D(24,23,26,27)        143.0239         estimate D2E/DX2                !
 ! D101  D(24,23,26,31)        -36.9629         estimate D2E/DX2                !
 ! D102  D(23,24,25,20)         -0.2136         estimate D2E/DX2                !
 ! D103  D(23,24,25,45)       -178.5597         estimate D2E/DX2                !
 ! D104  D(44,24,25,20)       -179.7842         estimate D2E/DX2                !
 ! D105  D(44,24,25,45)          1.8696         estimate D2E/DX2                !
 ! D106  D(23,26,27,28)       -179.8334         estimate D2E/DX2                !
 ! D107  D(23,26,27,46)         -0.1938         estimate D2E/DX2                !
 ! D108  D(31,26,27,28)          0.1538         estimate D2E/DX2                !
 ! D109  D(31,26,27,46)        179.7934         estimate D2E/DX2                !
 ! D110  D(23,26,31,30)        179.923          estimate D2E/DX2                !
 ! D111  D(23,26,31,49)         -0.5956         estimate D2E/DX2                !
 ! D112  D(27,26,31,30)         -0.0643         estimate D2E/DX2                !
 ! D113  D(27,26,31,49)        179.4171         estimate D2E/DX2                !
 ! D114  D(26,27,28,29)         -0.1794         estimate D2E/DX2                !
 ! D115  D(26,27,28,47)        179.6676         estimate D2E/DX2                !
 ! D116  D(46,27,28,29)       -179.8182         estimate D2E/DX2                !
 ! D117  D(46,27,28,47)          0.0288         estimate D2E/DX2                !
 ! D118  D(27,28,29,30)          0.1175         estimate D2E/DX2                !
 ! D119  D(27,28,29,48)       -179.7827         estimate D2E/DX2                !
 ! D120  D(47,28,29,30)       -179.7304         estimate D2E/DX2                !
 ! D121  D(47,28,29,48)          0.3695         estimate D2E/DX2                !
 ! D122  D(28,29,30,31)         -0.0259         estimate D2E/DX2                !
 ! D123  D(48,29,30,31)        179.879          estimate D2E/DX2                !
 ! D124  D(29,30,31,26)         -0.0006         estimate D2E/DX2                !
 ! D125  D(29,30,31,49)       -179.5041         estimate D2E/DX2                !
 --------------------------------------------------------------------------------
 Trust Radius=3.00D-01 FncErr=1.00D-07 GrdErr=1.00D-07
 Number of steps in this run=    274 maximum allowed number of steps=    294.
 GradGradGradGradGradGradGradGradGradGradGradGradGradGradGradGradGradGrad

 Leave Link  103 at Sat Aug 27 02:20:48 2022, MaxMem=  209715200 cpu:       0.1
 (Enter /opt/gaussian/l202.exe)
                          Input orientation:                          
 ---------------------------------------------------------------------
 Center     Atomic      Atomic             Coordinates (Angstroms)
 Number     Number       Type             X           Y           Z
 ---------------------------------------------------------------------
      1          8           0       21.202800   -7.158100    0.233600
      2          6           0       21.836200   -8.178200    0.547900
      3          6           0       23.328900   -8.118000    0.917400
      4          7           0       23.952600   -6.836000    0.712800
      5          7           0       23.784200   -5.764800    1.560200
      6          7           0       24.098500   -4.676200    1.022900
      7          6           0       24.455500   -4.906400   -0.347000
      8          6           0       24.870300   -4.070700   -1.382500
      9          6           0       25.136200   -4.660500   -2.614700
     10          6           0       25.006800   -6.043900   -2.817200
     11          6           0       24.605400   -6.906500   -1.801700
     12          6           0       24.324800   -6.332300   -0.561800
     13          7           0       21.192400   -9.419300    0.653200
     14          6           0       21.924200  -10.655700    0.792000
     15          6           0       22.343300  -11.310100   -0.495100
     16          6           0       22.011900  -12.618200   -0.837700
     17         16           0       22.657700  -13.015400   -2.325500
     18          6           0       23.344800  -11.459500   -2.469200
     19          7           0       23.115200  -10.644700   -1.445500
     20          6           0       19.823000   -9.538500    0.272700
     21          6           0       18.929900  -10.266000    1.088400
     22          6           0       17.597200  -10.404800    0.719800
     23          6           0       17.109400   -9.819200   -0.456500
     24          6           0       17.990700   -9.079800   -1.256500
     25          6           0       19.328400   -8.939700   -0.904100
     26          6           0       15.711500   -9.972700   -0.835500
     27          6           0       15.017600  -11.171700   -0.612900
     28          6           0       13.680900  -11.266900   -0.998100
     29          6           0       13.071400  -10.149600   -1.596100
     30          7           0       13.715200   -8.987000   -1.819500
     31          6           0       15.004100   -8.908800   -1.445200
     32          1           0       23.426600   -8.389100    2.009000
     33          1           0       23.902000   -8.857000    0.287600
     34          1           0       24.978400   -2.987900   -1.227500
     35          1           0       25.452500   -4.026600   -3.457000
     36          1           0       25.226600   -6.458200   -3.813400
     37          1           0       24.503700   -7.987500   -1.970000
     38          1           0       22.843600  -10.478100    1.421600
     39          1           0       21.268700  -11.390400    1.346400
     40          1           0       21.409200  -13.292900   -0.233100
     41          1           0       23.933500  -11.138700   -3.333600
     42          1           0       19.274300  -10.721300    2.029600
     43          1           0       16.913300  -10.970400    1.371200
     44          1           0       17.625800   -8.606900   -2.181800
     45          1           0       19.996000   -8.333100   -1.537700
     46          1           0       15.525800  -12.027800   -0.145100
     47          1           0       13.112700  -12.192900   -0.842400
     48          1           0       12.013900  -10.181100   -1.912800
     49          1           0       15.502200   -7.940000   -1.633800
 ---------------------------------------------------------------------
                    Distance matrix (angstroms):
                    1          2          3          4          5
     1  O    0.000000
     2  C    1.241203   0.000000
     3  C    2.430903   1.538931   0.000000
     4  N    2.809765   2.511542   1.440273   0.000000
     5  N    3.219438   3.262507   2.481540   1.376196   0.000000
     6  N    3.894599   4.196145   3.528371   2.186821   1.254004
     7  C    3.998413   4.285587   3.630745   2.258194   2.196567
     8  C    5.059088   5.459282   4.903681   3.588780   3.564978
     9  C    5.460994   5.767690   5.262734   4.148007   4.525171
    10  C    5.001923   5.092331   4.589605   3.768244   4.553491
    11  C    3.972837   3.847897   3.238933   2.598813   3.644204
    12  C    3.325882   3.291187   2.523603   1.420159   2.262120
    13  N    2.299826   1.402104   2.515515   3.780965   4.571154
    14  C    3.614614   2.491051   2.903244   4.325597   5.288727
    15  C    4.367018   3.339730   3.627129   4.905756   6.086937
    16  C    5.622723   4.654499   5.006662   6.293187   7.473959
    17  S    6.555432   5.685929   5.911974   7.006641   8.302943
    18  C    5.513196   4.705921   4.757619   5.645467   6.989903
    19  N    4.316599   3.419519   3.466003   4.457095   5.770201
    20  C    2.751669   2.445225   3.837290   4.954875   5.620460
    21  C    3.944084   3.619065   4.898402   6.093726   6.636838
    22  C    4.876249   4.791286   6.174211   7.288861   7.779129
    23  C    4.930884   5.103365   6.592713   7.556198   8.065866
    24  C    4.028761   4.342420   5.843567   6.667611   7.244837
    25  C    2.825214   2.996205   4.471807   5.331336   6.000576
    26  C    6.262533   6.530389   8.033514   8.952757   9.413516
    27  C    7.421741   7.536697   8.985800  10.019481  10.526643
    28  C    8.659001   8.856585  10.328050  11.316708  11.785358
    29  C    8.855311   9.236064  10.754598  11.606527  11.998033
    30  N    7.976481   8.497610  10.033395  10.763071  11.099086
    31  C    6.656365   7.154286   8.689622   9.435524   9.798333
    32  H    3.100434   2.169946   1.128996   2.090199   2.686308
    33  H    3.189805   2.189990   1.127481   2.065865   3.345906
    34  H    5.812103   6.321762   5.799946   4.430000   4.112002
    35  H    6.441022   6.808277   6.354888   5.246871   5.565686
    36  H    5.749699   5.785685   5.360659   4.717234   5.606862
    37  H    4.054590   3.673111   3.119978   2.971040   4.233248
    38  H    3.889212   2.658523   2.461667   3.872618   4.808236
    39  H    4.376646   3.358257   3.890638   5.324221   6.166103
    40  H    6.155987   5.191575   5.638128   7.003939   8.094989
    41  H    6.002234   5.313122   5.249873   5.906517   7.269826
    42  H    4.431831   3.902067   4.945093   6.222219   6.717621
    43  H    5.850434   5.719191   7.035769   8.190146   8.622254
    44  H    4.552813   5.036121   6.509179   7.179359   7.746353
    45  H    2.444278   2.785688   4.145118   4.791737   5.526627
    46  H    7.489040   7.424340   8.792259   9.934875  10.504018
    47  H    9.589406   9.703103  11.138781  12.190917  12.687548
    48  H    9.908655  10.322026  11.844646  12.673438  13.042446
    49  H    6.049412   6.703440   8.233926   8.839378   9.139182
                    6          7          8          9         10
     6  N    0.000000
     7  C    1.434248   0.000000
     8  C    2.597740   1.393813   0.000000
     9  C    3.782751   2.380395   1.391720   0.000000
    10  C    4.176360   2.774838   2.443464   1.404118   0.000000
    11  C    3.634495   2.477705   2.878830   2.446882   1.391561
    12  C    2.303292   1.447899   2.466972   2.769058   2.373842
    13  N    5.574863   5.658135   6.802834   6.991345   6.163331
    14  C    6.366735   6.384297   7.534599   7.606903   6.617964
    15  C    7.028064   6.744679   7.718946   7.517325   6.341864
    16  C    8.419685   8.104556   9.029231   8.731779   7.490612
    17  S    9.101096   8.538292   9.262424   8.719573   7.373049
    18  C    7.666550   6.977142   7.622495   7.032545   5.675568
    19  N    6.533213   5.994263   6.804544   6.423560   5.160143
    20  C    6.518026   6.580307   7.623107   7.769302   6.973628
    21  C    7.613447   7.830577   8.931710   9.146187   8.367111
    22  C    8.670388   8.854758   9.871093  10.047507   9.296773
    23  C    8.802647   8.838143   9.702283   9.782614   9.066130
    24  C    7.867184   7.748425   8.510926   8.510763   7.802444
    25  C    6.681663   6.547139   7.392475   7.414057   6.655061
    26  C   10.091993  10.117488  10.909465  10.964032  10.284221
    27  C   11.284064  11.331313  12.169313  12.197909  11.442788
    28  C   12.491924  12.528843  13.309235  13.322230  12.604161
    29  C   12.586270  12.595600  13.274513  13.293877  12.680758
    30  N   11.596342  11.583333  12.198247  12.238880  11.711425
    31  C   10.330273  10.322510  10.988769  11.048766  10.494953
    32  H    3.899932   4.328807   5.677598   6.180922   5.593675
    33  H    4.249514   4.039346   5.160960   5.249496   4.332886
    34  H    2.947691   2.174706   1.099166   2.178719   3.444864
    35  H    4.724913   3.382330   2.155099   1.100611   2.162751
    36  H    5.276166   3.875385   3.425840   2.162586   1.101077
    37  H    4.481779   3.482762   3.977546   3.447408   2.179091
    38  H    5.949435   6.063828   7.281845   7.442594   6.504536
    39  H    7.293346   7.420617   8.602118   8.714323   7.739123
    40  H    9.113583   8.923357   9.917122   9.699530   8.495193
    41  H    7.795526   6.930644   7.391956   6.628000   5.232172
    42  H    7.799332   8.142857   9.337458   9.626250   8.844834
    43  H    9.558523   9.828992  10.885889  11.104878  10.359432
    44  H    8.222916   7.981541   8.584799   8.495151   7.839124
    45  H    6.063010   5.748668   6.476955   6.408555   5.655588
    46  H   11.353477  11.423425  12.335570  12.358633  11.525473
    47  H   13.441277  13.490649  14.300454  14.298344  13.534388
    48  H   13.599993  13.603955  14.244481  14.253577  13.665644
    49  H    9.571145   9.540449  10.138833  10.224052   9.763865
                   11         12         13         14         15
    11  C    0.000000
    12  C    1.394917   0.000000
    13  N    4.897884   4.562644   0.000000
    14  C    5.288914   5.127128   1.443427   0.000000
    15  C    5.120156   5.358105   2.493650   1.503499   0.000000
    16  C    6.346578   6.703594   3.623165   2.552454   1.392238
    17  S    6.433239   7.110112   4.894047   3.978066   2.521361
    18  C    4.771213   5.557585   4.306347   3.646865   2.218647
    19  N    4.040014   4.565178   3.098920   2.534760   1.393502
    20  C    5.839684   5.589482   1.426270   2.435744   3.174901
    21  C    7.200710   6.877652   2.454630   3.034065   3.904986
    22  C    8.228665   7.967958   3.728419   4.334869   4.982069
    23  C    8.153735   8.014459   4.249970   5.043886   5.442241
    24  C    6.983891   6.939178   3.743407   4.706616   4.949656
    25  C    5.725934   5.646213   2.475822   3.543951   3.856903
    26  C    9.457092   9.355018   5.706377   6.458551   6.773868
    27  C   10.560828  10.490299   6.542329   7.066903   7.327954
    28  C   11.789977  11.740240   7.909681   8.457542   8.677099
    29  C   11.983035  11.928142   8.458329   9.183204   9.408884
    30  N   11.087166  11.008763   7.887309   8.774518   9.032992
    31  C    9.814339   9.710520   6.554308   7.479606   7.780282
    32  H    4.255480   3.412653   2.809120   2.979223   3.997036
    33  H    2.943535   2.697100   2.791375   2.720558   3.009961
    34  H    3.977972   3.472083   7.696346   8.497157   8.760090
    35  H    3.428034   3.869127   8.007709   8.628318   8.455137
    36  H    2.152626   3.376684   6.707712   7.052273   6.547172
    37  H    1.098740   2.180532   4.460486   4.626203   4.228750
    38  H    5.123468   4.828611   2.106646   1.128377   2.148549
    39  H    6.414784   6.210101   2.090833   1.129966   2.133620
    40  H    7.311792   7.553722   3.979611   2.875914   2.207415
    41  H    4.550789   5.562146   5.134641   4.614234   3.258097
    42  H    7.592904   7.175390   2.696069   2.925394   4.017407
    43  H    9.260183   8.954261   4.607834   5.054070   5.751815
    44  H    7.193793   7.257741   4.627943   5.614028   5.692719
    45  H    4.832334   4.867658   2.722360   3.813126   3.931839
    46  H   10.555149  10.489745   6.289031   6.610623   6.864102
    47  H   12.686545  12.654507   8.672441   9.092677   9.279220
    48  H   13.010812  12.969068   9.560835  10.283736  10.487184
    49  H    9.163218   9.031730   6.308492   7.382521   7.710698
                   16         17         18         19         20
    16  C    0.000000
    17  S    1.669843   0.000000
    18  C    2.404371   1.706921   0.000000
    19  N    2.341238   2.569810   1.328374   0.000000
    20  C    3.938124   5.184110   4.859149   3.874851   0.000000
    21  C    4.329137   5.754164   5.794161   4.907219   1.411471
    22  C    5.178274   6.457379   6.657103   5.932487   2.429930
    23  C    5.658111   6.670269   6.754388   6.142410   2.823854
    24  C    5.372683   6.197790   5.983310   5.361449   2.430264
    25  C    4.553783   5.451234   4.993035   4.188078   1.409982
    26  C    6.833280   7.728377   7.946497   7.459119   4.280312
    27  C    7.145847   8.043840   8.536448   8.157333   5.152038
    28  C    8.441404   9.241330   9.777126   9.465375   6.505974
    29  C    9.306003  10.032048  10.393310  10.057123   7.032066
    30  N    9.109598   9.821016   9.963160   9.552374   6.479712
    31  C    7.952230   8.730217   8.781909   8.294775   5.154561
    32  H    5.290592   6.386059   5.430315   4.137423   4.161946
    33  H    4.357224   5.066445   3.831896   2.611237   4.135566
    34  H   10.084381  10.350942   8.716563   7.883250   8.469894
    35  H    9.618423   9.481019   7.788848   7.301257   8.716821
    36  H    7.558749   7.197914   5.510086   5.252784   7.441999
    37  H    5.379085   5.367856   3.694189   3.043640   5.417034
    38  H    3.221209   4.529151   4.043844   2.884750   3.365538
    39  H    2.613452   4.248858   4.344395   3.429335   2.583102
    40  H    1.088122   2.452325   3.479662   3.375398   4.106992
    41  H    3.480084   2.483130   1.093923   2.116264   5.697565
    42  H    4.394780   5.973038   6.111719   5.180222   2.187872
    43  H    5.795706   7.130620   7.506802   6.819343   3.423944
    44  H    6.093850   6.691453   6.397412   5.901549   3.423469
    45  H    4.787059   5.443272   4.675097   3.883478   2.181849
    46  H    6.549638   7.522865   8.176868   7.823235   4.983683
    47  H    8.909358   9.694489  10.386541  10.139559   7.301877
    48  H   10.346753  11.022434  11.416356  11.120798   8.134580
    49  H    8.055776   8.799961   8.636617   8.081375   4.985906
                   21         22         23         24         25
    21  C    0.000000
    22  C    1.389684   0.000000
    23  C    2.429108   1.401627   0.000000
    24  C    2.790649   2.411686   1.401214   0.000000
    25  C    2.426506   2.789377   2.428544   1.390415   0.000000
    26  C    3.761052   2.482244   1.456478   2.483800   3.762148
    27  C    4.361285   3.003092   2.495865   3.691827   4.863087
    28  C    5.736487   4.362545   3.760821   4.839892   6.108924
    29  C    6.445317   5.090323   4.208717   5.045722   6.410364
    30  N    6.106130   4.850580   3.751122   4.313407   5.687549
    31  C    4.865493   3.694511   2.497728   2.997437   4.358132
    32  H    4.958888   6.301348   6.930432   6.378837   5.058118
    33  H    5.229564   6.506380   6.900647   6.113702   4.727029
    34  H    9.742612  10.643519  10.449032   9.270385   8.212856
    35  H   10.106190  10.946818  10.590776   9.276610   8.255934
    36  H    8.841686   9.712533   9.405001   8.109795   7.029270
    37  H    6.753712   7.796031   7.766690   6.642392   5.369037
    38  H    3.933581   5.293639   6.069799   5.716476   4.486890
    39  H    2.607839   3.852784   4.797801   4.781134   3.851681
    40  H    4.129820   4.876524   5.532159   5.521205   4.871378
    41  H    6.734367   7.557603   7.522441   6.623465   5.651992
    42  H    1.100803   2.151375   3.417787   3.891093   3.432728
    43  H    2.154723   1.100884   2.168918   3.411739   3.890172
    44  H    3.891979   3.413582   2.170945   1.101348   2.154558
    45  H    3.430608   3.891335   3.421980   2.158208   1.102317
    46  H    4.026581   2.769996   2.735447   4.000206   4.957036
    47  H    6.425010   5.074299   4.664438   5.801530   7.015842
    48  H    7.539593   6.176881   5.311864   6.112751   7.487353
    49  H    4.956791   4.000462   2.738708   2.762993   4.021401
                   26         27         28         29         30
    26  C    0.000000
    27  C    1.403086   0.000000
    28  C    2.413447   1.394349   0.000000
    29  C    2.753168   2.408125   1.406220   0.000000
    30  N    2.434148   2.815145   2.423596   1.347600   0.000000
    31  C    1.415638   2.411145   2.740692   2.301670   1.344425
    32  H    8.373872   9.237343  10.597313  11.105236  10.455916
    33  H    8.342088   9.225037  10.579770  11.068922  10.403253
    34  H   11.611052  12.906194  14.008139  13.899729  12.774950
    35  H   11.709631  12.962581  14.037047  13.937206  12.847225
    36  H   10.571505  11.691192  12.820012  12.895415  11.953359
    37  H    9.084651  10.097868  11.350421  11.640960  10.835746
    38  H    7.497785   8.115821   9.509586  10.232806   9.800806
    39  H    6.136207   6.554612   7.942710   8.797364   8.535492
    40  H    6.621963   6.745094   8.025990   9.014267   8.958520
    41  H    8.671871   9.321833  10.516026  11.044566  10.551586
    42  H    4.632790   5.030424   6.383633   7.207531   6.980470
    43  H    2.703563   2.751518   4.018694   4.923289   4.933790
    44  H    2.709701   3.980245   4.902956   4.844123   3.945698
    45  H    4.640939   5.804944   6.984185   7.159132   6.321032
    46  H    2.175907   1.100005   2.170307   3.414252   3.915144
    47  H    3.418055   2.173514   1.097529   2.178266   3.405220
    48  H    3.856974   3.419538   2.189641   1.104354   2.080625
    49  H    2.193846   3.423589   3.845713   3.285200   2.079438
                   31         32         33         34         35
    31  C    0.000000
    32  H    9.118119   0.000000
    33  H    9.065203   1.846119   0.000000
    34  H   11.601341   6.485058   6.156338   0.000000
    35  H   11.706933   7.280991   6.305461   2.504863   0.000000
    36  H   10.775589   6.392865   4.932242   4.334912   2.467941
    37  H    9.558588   4.141723   2.492956   5.076677   4.335910
    38  H    8.493468   2.246964   2.243687   8.226676   8.498762
    39  H    7.293599   3.755446   3.804398   9.538807   9.736652
    40  H    7.855878   5.757097   5.114918  10.950847  10.611603
    41  H    9.395355   6.029977   4.280215   8.483102   7.273552
    42  H    5.796033   4.762476   5.284485  10.146474  10.634470
    43  H    3.978360   7.035124   7.381231  11.641279  12.018561
    44  H    2.739897   7.159576   6.749161   9.302934   9.157648
    45  H    5.025838   4.934697   4.343159   7.313802   7.211314
    46  H    3.419151   8.961190   8.966712  13.124139  13.172974
    47  H    3.837457  11.356756  11.349631  15.022489  15.026485
    48  H    3.283092  12.200061  12.162316  14.842170  14.861305
    49  H    1.105553   8.733144   8.665409  10.699848  10.846531
                   36         37         38         39         40
    36  H    0.000000
    37  H    2.501893   0.000000
    38  H    7.017372   4.523491   0.000000
    39  H    8.161808   5.748344   1.821608   0.000000
    40  H    8.608381   6.382791   3.566319   2.476705   0.000000
    41  H    4.879487   3.480603   4.923028   5.391374   4.541560
    42  H    9.367206   7.128610   3.628872   2.211807   4.036178
    43  H   10.786611   8.813370   5.950912   4.375674   5.308569
    44  H    8.065432   6.908981   6.611454   5.785049   6.330098
    45  H    6.004435   4.541551   4.633283   4.391455   5.319655
    46  H   11.772102  10.012840   7.642402   5.967558   6.018523
    47  H   13.728081  12.194743  10.136895   8.482640   8.391255
    48  H   13.858128  12.681098  11.335292   9.886158  10.038743
    49  H   10.075234   9.007901   8.347070   7.351148   8.093710
                   41         42         43         44         45
    41  H    0.000000
    42  H    7.116620   0.000000
    43  H    8.452614   2.463709   0.000000
    44  H    6.893746   4.992407   4.326384   0.000000
    45  H    5.157573   4.353157   4.992003   2.471372   0.000000
    46  H    9.035843   4.526314   2.311367   4.501189   5.964296
    47  H   11.153794   6.955523   4.564985   5.917893   7.922204
    48  H   12.042115   8.279356   5.950779   5.834714   8.201812
    49  H    9.176482   5.948518   4.494947   2.292321   4.511984
                   46         47         48         49
    46  H    0.000000
    47  H    2.517248   0.000000
    48  H    4.343789   2.529912   0.000000
    49  H    4.350505   4.941982   4.155551   0.000000
 Stoichiometry    C23H18N6OS
 Framework group  C1[X(C23H18N6OS)]
 Deg. of freedom   141
 Full point group                 C1      NOp   1
 Largest Abelian subgroup         C1      NOp   1
 Largest concise Abelian subgroup C1      NOp   1
                         Standard orientation:                         
 ---------------------------------------------------------------------
 Center     Atomic      Atomic             Coordinates (Angstroms)
 Number     Number       Type             X           Y           Z
 ---------------------------------------------------------------------
      1          8           0        1.148657   -1.548846   -0.677469
      2          6           0        1.321711   -0.410856   -1.141813
      3          6           0        2.718037    0.087249   -1.554698
      4          7           0        3.802540   -0.796183   -1.211494
      5          7           0        4.096654   -1.945456   -1.909049
      6          7           0        4.813980   -2.734671   -1.249420
      7          6           0        5.022489   -2.202861    0.066168
      8          6           0        5.720485   -2.657216    1.183789
      9          6           0        5.702948   -1.854366    2.320454
     10          6           0        5.022149   -0.626688    2.349894
     11          6           0        4.325179   -0.139948    1.248187
     12          6           0        4.323110   -0.935594    0.102440
     13          7           0        0.233529    0.440442   -1.380656
     14          6           0        0.406013    1.837002   -1.702139
     15          6           0        0.501502    2.767257   -0.524846
     16          6           0       -0.336199    3.863739   -0.339612
     17         16           0        0.066849    4.678577    1.061089
     18          6           0        1.321079    3.564563    1.376466
     19          7           0        1.458882    2.599821    0.473771
     20          6           0       -1.074054    0.046876   -0.968858
     21          6           0       -2.169830    0.239418   -1.837451
     22          6           0       -3.451545   -0.123174   -1.441277
     23          6           0       -3.682676   -0.695955   -0.183080
     24          6           0       -2.592599   -0.906086    0.671894
     25          6           0       -1.306082   -0.540536    0.291760
     26          6           0       -5.030152   -1.070120    0.223904
     27          6           0       -6.145009   -0.292506   -0.124029
     28          6           0       -7.413077   -0.694031    0.294291
     29          6           0       -7.530198   -1.873275    1.051337
     30          7           0       -6.475879   -2.637983    1.397255
     31          6           0       -5.258596   -2.238877    0.989315
     32          1           0        2.717849    0.229138   -2.674742
     33          1           0        2.932220    1.070021   -1.045290
     34          1           0        6.259524   -3.614926    1.163967
     35          1           0        6.232878   -2.190886    3.224485
     36          1           0        5.037644   -0.032316    3.276637
     37          1           0        3.792477    0.820452    1.281189
     38          1           0        1.330155    1.963819   -2.337050
     39          1           0       -0.480132    2.165981   -2.321287
     40          1           0       -1.148900    4.153046   -1.002807
     41          1           0        1.973289    3.624268    2.252665
     42          1           0       -2.021526    0.667224   -2.840823
     43          1           0       -4.293594    0.028468   -2.134027
     44          1           0       -2.752254   -1.360174    1.662490
     45          1           0       -0.462057   -0.738216    0.972676
     46          1           0       -6.017422    0.626384   -0.715108
     47          1           0       -8.303926   -0.104350    0.042827
     48          1           0       -8.515923   -2.229058    1.399709
     49          1           0       -4.415177   -2.891246    1.281385
 ---------------------------------------------------------------------
 Rotational constants (GHZ):      0.1920200      0.0692363      0.0585137
 Leave Link  202 at Sat Aug 27 02:20:48 2022, MaxMem=  209715200 cpu:       0.0
 (Enter /opt/gaussian/l301.exe)
 Standard basis: 6-31G (6D, 7F)
 Ernie: Thresh=  0.10000D-02 Tol=  0.10000D-05 Strict=F.
 There are   319 symmetry adapted basis functions of A   symmetry.
 Integral buffers will be    131072 words long.
 Raffenetti 1 integral format.
 Two-electron integral symmetry is turned on.
   319 basis functions,   778 primitive gaussians,   319 cartesian basis functions
   111 alpha electrons      111 beta electrons
       nuclear repulsion energy      2909.8079048657 Hartrees.



 Warning!  S  atom   17 may be hypervalent but has no d functions.



 IExCor=    0 DFT=F Ex=HF Corr=None ExCW=0 ScaHFX=  1.000000
 ScaDFX=  1.000000  1.000000  1.000000  1.000000 ScalE2=  1.000000  1.000000
 IRadAn=      0 IRanWt=     -1 IRanGd=            0 ICorTp=0
 NAtoms=   49 NActive=   49 NUniq=   49 SFac= 1.00D+00 NAtFMM=   60 NAOKFM=F Big=F
 Leave Link  301 at Sat Aug 27 02:20:49 2022, MaxMem=  209715200 cpu:       0.2
 (Enter /opt/gaussian/l302.exe)
 NPDir=0 NMtPBC=     1 NCelOv=     1 NCel=       1 NClECP=     1 NCelD=      1
         NCelK=      1 NCelE2=     1 NClLst=     1 CellRange=     0.0.
 One-electron integrals computed using PRISM.
 NBasis=   319 RedAO= T  NBF=   319
 NBsUse=   319 1.00D-06 NBFU=   319
 Leave Link  302 at Sat Aug 27 02:20:49 2022, MaxMem=  209715200 cpu:       1.8
 (Enter /opt/gaussian/l303.exe)
 DipDrv:  MaxL=1.
 Leave Link  303 at Sat Aug 27 02:20:49 2022, MaxMem=  209715200 cpu:       0.4
 (Enter /opt/gaussian/l401.exe)
 Harris functional with IExCor=  205 diagonalized for initial guess.
 ExpMin= 1.17D-01 ExpMax= 2.19D+04 ExpMxC= 3.30D+03 IAcc=1 IRadAn=         1 AccDes= 0.00D+00
 HarFok:  IExCor=  205 AccDes= 0.00D+00 IRadAn=         1 IDoV= 1
 ScaDFX=  1.000000  1.000000  1.000000  1.000000
 FoFCou: FMM=F IPFlag=           0 FMFlag=      100000 FMFlg1=           0
         NFxFlg=           0 DoJE=T BraDBF=F KetDBF=T FulRan=T
         Omega=  0.000000  0.000000  1.000000  0.000000  0.000000 ICntrl=     500 IOpCl=  0
         NMat0=    1 NMatS0=    1 NMatT0=    0 NMatD0=    1 NMtDS0=    0 NMtDT0=    0
         I1Cent=           4 NGrid=           0.
 Petite list used in FoFCou.
 Harris En= -1680.91313928891    
 Initial guess orbital symmetries:
       Occupied  (A) (A) (A) (A) (A) (A) (A) (A) (A) (A) (A) (A)
                 (A) (A) (A) (A) (A) (A) (A) (A) (A) (A) (A) (A)
                 (A) (A) (A) (A) (A) (A) (A) (A) (A) (A) (A) (A)
                 (A) (A) (A) (A) (A) (A) (A) (A) (A) (A) (A) (A)
                 (A) (A) (A) (A) (A) (A) (A) (A) (A) (A) (A) (A)
                 (A) (A) (A) (A) (A) (A) (A) (A) (A) (A) (A) (A)
                 (A) (A) (A) (A) (A) (A) (A) (A) (A) (A) (A) (A)
                 (A) (A) (A) (A) (A) (A) (A) (A) (A) (A) (A) (A)
                 (A) (A) (A) (A) (A) (A) (A) (A) (A) (A) (A) (A)
                 (A) (A) (A)
       Virtual   (A) (A) (A) (A) (A) (A) (A) (A) (A) (A) (A) (A)
                 (A) (A) (A) (A) (A) (A) (A) (A) (A) (A) (A) (A)
                 (A) (A) (A) (A) (A) (A) (A) (A) (A) (A) (A) (A)
                 (A) (A) (A) (A) (A) (A) (A) (A) (A) (A) (A) (A)
                 (A) (A) (A) (A) (A) (A) (A) (A) (A) (A) (A) (A)
                 (A) (A) (A) (A) (A) (A) (A) (A) (A) (A) (A) (A)
                 (A) (A) (A) (A) (A) (A) (A) (A) (A) (A) (A) (A)
                 (A) (A) (A) (A) (A) (A) (A) (A) (A) (A) (A) (A)
                 (A) (A) (A) (A) (A) (A) (A) (A) (A) (A) (A) (A)
                 (A) (A) (A) (A) (A) (A) (A) (A) (A) (A) (A) (A)
                 (A) (A) (A) (A) (A) (A) (A) (A) (A) (A) (A) (A)
                 (A) (A) (A) (A) (A) (A) (A) (A) (A) (A) (A) (A)
                 (A) (A) (A) (A) (A) (A) (A) (A) (A) (A) (A) (A)
                 (A) (A) (A) (A) (A) (A) (A) (A) (A) (A) (A) (A)
                 (A) (A) (A) (A) (A) (A) (A) (A) (A) (A) (A) (A)
                 (A) (A) (A) (A) (A) (A) (A) (A) (A) (A) (A) (A)
                 (A) (A) (A) (A) (A) (A) (A) (A) (A) (A) (A) (A)
                 (A) (A) (A) (A)
 The electronic state of the initial guess is 1-A.
 Leave Link  401 at Sat Aug 27 02:20:49 2022, MaxMem=  209715200 cpu:       4.3
 (Enter /opt/gaussian/l502.exe)
 Closed shell SCF:
 Requested convergence on RMS density matrix=1.00D-08 within 128 cycles.
 Requested convergence on MAX density matrix=1.00D-06.
 Requested convergence on             energy=1.00D-06.
 No special actions if energy rises.
 Using DIIS extrapolation, IDIIS=  1040.
 Integral symmetry usage will be decided dynamically.
 IEnd=      328442 IEndB=      328442 NGot=   209715200 MDV=   209505479
 LenX=   209505479 LenY=   209403277
 Fock matrices will be formed incrementally for  20 cycles.
 Integral accuracy reduced to 1.0D-05 until final iterations.

 Cycle   1  Pass 0  IDiag  1:
 FoFCou: FMM=F IPFlag=           0 FMFlag=      100000 FMFlg1=           0
         NFxFlg=           0 DoJE=F BraDBF=F KetDBF=F FulRan=T
         Omega=  0.000000  0.000000  1.000000  0.000000  0.000000 ICntrl=       0 IOpCl=  0
         NMat0=    1 NMatS0=    1 NMatT0=    0 NMatD0=    1 NMtDS0=    0 NMtDT0=    0
         I1Cent=           0 NGrid=           0.
 Symmetry not used in FoFCou.
 E= -1678.96334954980    
 DIIS: error= 4.17D-02 at cycle   1 NSaved=   1.
 NSaved= 1 IEnMin= 1 EnMin= -1678.96334954980     IErMin= 1 ErrMin= 4.17D-02
 ErrMax= 4.17D-02 EMaxC= 1.00D-01 BMatC= 1.02D+00 BMatP= 1.02D+00
 IDIUse=3 WtCom= 5.83D-01 WtEn= 4.17D-01
 Coeff-Com:  0.100D+01
 Coeff-En:   0.100D+01
 Coeff:      0.100D+01
 Gap=     0.552 Goal=   None    Shift=    0.000
 GapD=    0.552 DampG=2.000 DampE=0.500 DampFc=1.0000 IDamp=-1.
 RMSDP=5.65D-03 MaxDP=1.58D-01              OVMax= 1.58D-01

 Cycle   2  Pass 0  IDiag  1:
 RMSU=  3.97D-03    CP:  9.72D-01
 E= -1679.64216202710     Delta-E=       -0.678812477299 Rises=F Damp=F
 DIIS: error= 1.73D-02 at cycle   2 NSaved=   2.
 NSaved= 2 IEnMin= 2 EnMin= -1679.64216202710     IErMin= 2 ErrMin= 1.73D-02
 ErrMax= 1.73D-02 EMaxC= 1.00D-01 BMatC= 1.84D-01 BMatP= 1.02D+00
 IDIUse=3 WtCom= 8.27D-01 WtEn= 1.73D-01
 Coeff-Com:  0.246D+00 0.754D+00
 Coeff-En:   0.000D+00 0.100D+01
 Coeff:      0.203D+00 0.797D+00
 Gap=     0.379 Goal=   None    Shift=    0.000
 RMSDP=2.51D-03 MaxDP=8.62D-02 DE=-6.79D-01 OVMax= 9.56D-02

 Cycle   3  Pass 0  IDiag  1:
 RMSU=  1.57D-03    CP:  9.71D-01  7.90D-01
 E= -1679.79575348233     Delta-E=       -0.153591455234 Rises=F Damp=F
 DIIS: error= 7.95D-03 at cycle   3 NSaved=   3.
 NSaved= 3 IEnMin= 3 EnMin= -1679.79575348233     IErMin= 3 ErrMin= 7.95D-03
 ErrMax= 7.95D-03 EMaxC= 1.00D-01 BMatC= 2.66D-02 BMatP= 1.84D-01
 IDIUse=3 WtCom= 9.21D-01 WtEn= 7.95D-02
 Coeff-Com:  0.141D-02 0.258D+00 0.741D+00
 Coeff-En:   0.000D+00 0.000D+00 0.100D+01
 Coeff:      0.130D-02 0.237D+00 0.762D+00
 Gap=     0.385 Goal=   None    Shift=    0.000
 RMSDP=7.27D-04 MaxDP=2.98D-02 DE=-1.54D-01 OVMax= 3.34D-02

 Cycle   4  Pass 0  IDiag  1:
 RMSU=  3.13D-04    CP:  9.72D-01  8.77D-01  8.62D-01
 E= -1679.82053621030     Delta-E=       -0.024782727970 Rises=F Damp=F
 DIIS: error= 2.32D-03 at cycle   4 NSaved=   4.
 NSaved= 4 IEnMin= 4 EnMin= -1679.82053621030     IErMin= 4 ErrMin= 2.32D-03
 ErrMax= 2.32D-03 EMaxC= 1.00D-01 BMatC= 2.15D-03 BMatP= 2.66D-02
 IDIUse=3 WtCom= 9.77D-01 WtEn= 2.32D-02
 Coeff-Com: -0.135D-01 0.210D-01 0.255D+00 0.737D+00
 Coeff-En:   0.000D+00 0.000D+00 0.000D+00 0.100D+01
 Coeff:     -0.132D-01 0.206D-01 0.249D+00 0.743D+00
 Gap=     0.384 Goal=   None    Shift=    0.000
 RMSDP=2.35D-04 MaxDP=9.05D-03 DE=-2.48D-02 OVMax= 8.34D-03

 Cycle   5  Pass 0  IDiag  1:
 RMSU=  1.23D-04    CP:  9.71D-01  8.74D-01  9.24D-01  8.35D-01
 E= -1679.82278384076     Delta-E=       -0.002247630458 Rises=F Damp=F
 DIIS: error= 9.40D-04 at cycle   5 NSaved=   5.
 NSaved= 5 IEnMin= 5 EnMin= -1679.82278384076     IErMin= 5 ErrMin= 9.40D-04
 ErrMax= 9.40D-04 EMaxC= 1.00D-01 BMatC= 1.21D-04 BMatP= 2.15D-03
 IDIUse=3 WtCom= 9.91D-01 WtEn= 9.40D-03
 Coeff-Com: -0.119D-02-0.173D-01-0.204D-01 0.700D-01 0.969D+00
 Coeff-En:   0.000D+00 0.000D+00 0.000D+00 0.000D+00 0.100D+01
 Coeff:     -0.118D-02-0.172D-01-0.202D-01 0.694D-01 0.969D+00
 Gap=     0.384 Goal=   None    Shift=    0.000
 RMSDP=9.65D-05 MaxDP=4.34D-03 DE=-2.25D-03 OVMax= 5.37D-03

 Cycle   6  Pass 0  IDiag  1:
 RMSU=  4.80D-05    CP:  9.71D-01  8.74D-01  9.46D-01  9.14D-01  1.17D+00
 E= -1679.82312805424     Delta-E=       -0.000344213480 Rises=F Damp=F
 DIIS: error= 4.79D-04 at cycle   6 NSaved=   6.
 NSaved= 6 IEnMin= 6 EnMin= -1679.82312805424     IErMin= 6 ErrMin= 4.79D-04
 ErrMax= 4.79D-04 EMaxC= 1.00D-01 BMatC= 3.62D-05 BMatP= 1.21D-04
 IDIUse=3 WtCom= 9.95D-01 WtEn= 4.79D-03
 Coeff-Com:  0.269D-02-0.998D-02-0.585D-01-0.164D+00 0.218D+00 0.101D+01
 Coeff-En:   0.000D+00 0.000D+00 0.000D+00 0.000D+00 0.000D+00 0.100D+01
 Coeff:      0.267D-02-0.993D-02-0.582D-01-0.163D+00 0.217D+00 0.101D+01
 Gap=     0.385 Goal=   None    Shift=    0.000
 RMSDP=6.31D-05 MaxDP=2.04D-03 DE=-3.44D-04 OVMax= 4.43D-03

 Cycle   7  Pass 0  IDiag  1:
 RMSU=  1.95D-05    CP:  9.71D-01  8.73D-01  9.58D-01  9.38D-01  1.44D+00
                    CP:  1.21D+00
 E= -1679.82324321353     Delta-E=       -0.000115159288 Rises=F Damp=F
 DIIS: error= 1.91D-04 at cycle   7 NSaved=   7.
 NSaved= 7 IEnMin= 7 EnMin= -1679.82324321353     IErMin= 7 ErrMin= 1.91D-04
 ErrMax= 1.91D-04 EMaxC= 1.00D-01 BMatC= 4.84D-06 BMatP= 3.62D-05
 IDIUse=3 WtCom= 9.98D-01 WtEn= 1.91D-03
 Coeff-Com:  0.525D-03 0.718D-03-0.358D-02-0.370D-01-0.890D-01 0.137D+00
 Coeff-Com:  0.991D+00
 Coeff-En:   0.000D+00 0.000D+00 0.000D+00 0.000D+00 0.000D+00 0.000D+00
 Coeff-En:   0.100D+01
 Coeff:      0.524D-03 0.716D-03-0.357D-02-0.369D-01-0.888D-01 0.137D+00
 Coeff:      0.991D+00
 Gap=     0.386 Goal=   None    Shift=    0.000
 RMSDP=2.19D-05 MaxDP=7.60D-04 DE=-1.15D-04 OVMax= 1.51D-03

 Cycle   8  Pass 0  IDiag  1:
 RMSU=  7.36D-06    CP:  9.71D-01  8.73D-01  9.60D-01  9.45D-01  1.50D+00
                    CP:  1.39D+00  1.27D+00
 E= -1679.82325921508     Delta-E=       -0.000016001550 Rises=F Damp=F
 DIIS: error= 5.72D-05 at cycle   8 NSaved=   8.
 NSaved= 8 IEnMin= 8 EnMin= -1679.82325921508     IErMin= 8 ErrMin= 5.72D-05
 ErrMax= 5.72D-05 EMaxC= 1.00D-01 BMatC= 1.07D-06 BMatP= 4.84D-06
 IDIUse=1 WtCom= 1.00D+00 WtEn= 0.00D+00
 Coeff-Com: -0.596D-03 0.271D-02 0.157D-01 0.338D-01-0.677D-01-0.248D+00
 Coeff-Com:  0.203D+00 0.106D+01
 Coeff:     -0.596D-03 0.271D-02 0.157D-01 0.338D-01-0.677D-01-0.248D+00
 Coeff:      0.203D+00 0.106D+01
 Gap=     0.386 Goal=   None    Shift=    0.000
 RMSDP=1.16D-05 MaxDP=3.92D-04 DE=-1.60D-05 OVMax= 8.36D-04

 Cycle   9  Pass 0  IDiag  1:
 RMSU=  3.09D-06    CP:  9.70D-01  8.72D-01  9.61D-01  9.45D-01  1.53D+00
                    CP:  1.46D+00  1.54D+00  1.17D+00
 E= -1679.82326270871     Delta-E=       -0.000003493633 Rises=F Damp=F
 DIIS: error= 1.85D-05 at cycle   9 NSaved=   9.
 NSaved= 9 IEnMin= 9 EnMin= -1679.82326270871     IErMin= 9 ErrMin= 1.85D-05
 ErrMax= 1.85D-05 EMaxC= 1.00D-01 BMatC= 8.52D-08 BMatP= 1.07D-06
 IDIUse=1 WtCom= 1.00D+00 WtEn= 0.00D+00
 Coeff-Com: -0.864D-04 0.195D-03 0.179D-02 0.512D-02 0.258D-02-0.374D-01
 Coeff-Com: -0.452D-01 0.785D-01 0.995D+00
 Coeff:     -0.864D-04 0.195D-03 0.179D-02 0.512D-02 0.258D-02-0.374D-01
 Coeff:     -0.452D-01 0.785D-01 0.995D+00
 Gap=     0.386 Goal=   None    Shift=    0.000
 RMSDP=2.51D-06 MaxDP=7.72D-05 DE=-3.49D-06 OVMax= 2.44D-04

 Initial convergence to 1.0D-05 achieved.  Increase integral accuracy.
 Cycle  10  Pass 1  IDiag  1:
 E= -1679.82327664978     Delta-E=       -0.000013941071 Rises=F Damp=F
 DIIS: error= 1.10D-04 at cycle   1 NSaved=   1.
 NSaved= 1 IEnMin= 1 EnMin= -1679.82327664978     IErMin= 1 ErrMin= 1.10D-04
 ErrMax= 1.10D-04 EMaxC= 1.00D-01 BMatC= 1.14D-06 BMatP= 1.14D-06
 IDIUse=3 WtCom= 9.99D-01 WtEn= 1.10D-03
 Coeff-Com:  0.100D+01
 Coeff-En:   0.100D+01
 Coeff:      0.100D+01
 Gap=     0.386 Goal=   None    Shift=    0.000
 RMSDP=2.51D-06 MaxDP=7.72D-05 DE=-1.39D-05 OVMax= 1.38D-04

 Cycle  11  Pass 1  IDiag  1:
 RMSU=  3.32D-05    CP:  1.00D+00
 E= -1679.82327773687     Delta-E=       -0.000001087090 Rises=F Damp=F
 DIIS: error= 7.16D-06 at cycle   2 NSaved=   2.
 NSaved= 2 IEnMin= 2 EnMin= -1679.82327773687     IErMin= 2 ErrMin= 7.16D-06
 ErrMax= 7.16D-06 EMaxC= 1.00D-01 BMatC= 1.24D-08 BMatP= 1.14D-06
 IDIUse=1 WtCom= 1.00D+00 WtEn= 0.00D+00
 Coeff-Com: -0.352D-01 0.104D+01
 Coeff:     -0.352D-01 0.104D+01
 Gap=     0.386 Goal=   None    Shift=    0.000
 RMSDP=2.68D-06 MaxDP=3.69D-05 DE=-1.09D-06 OVMax= 7.70D-05

 Cycle  12  Pass 1  IDiag  1:
 RMSU=  6.80D-07    CP:  1.00D+00  1.05D+00
 E= -1679.82327776795     Delta-E=       -0.000000031079 Rises=F Damp=F
 DIIS: error= 4.63D-06 at cycle   3 NSaved=   3.
 NSaved= 3 IEnMin= 3 EnMin= -1679.82327776795     IErMin= 3 ErrMin= 4.63D-06
 ErrMax= 4.63D-06 EMaxC= 1.00D-01 BMatC= 5.74D-09 BMatP= 1.24D-08
 IDIUse=1 WtCom= 1.00D+00 WtEn= 0.00D+00
 Coeff-Com: -0.189D-01 0.357D+00 0.662D+00
 Coeff:     -0.189D-01 0.357D+00 0.662D+00
 Gap=     0.386 Goal=   None    Shift=    0.000
 RMSDP=3.89D-07 MaxDP=7.69D-06 DE=-3.11D-08 OVMax= 3.28D-05

 Cycle  13  Pass 1  IDiag  1:
 RMSU=  2.67D-07    CP:  1.00D+00  1.06D+00  9.83D-01
 E= -1679.82327777847     Delta-E=       -0.000000010516 Rises=F Damp=F
 DIIS: error= 3.82D-06 at cycle   4 NSaved=   4.
 NSaved= 4 IEnMin= 4 EnMin= -1679.82327777847     IErMin= 4 ErrMin= 3.82D-06
 ErrMax= 3.82D-06 EMaxC= 1.00D-01 BMatC= 1.51D-09 BMatP= 5.74D-09
 IDIUse=1 WtCom= 1.00D+00 WtEn= 0.00D+00
 Coeff-Com:  0.190D-01-0.499D+00-0.209D+00 0.169D+01
 Coeff:      0.190D-01-0.499D+00-0.209D+00 0.169D+01
 Gap=     0.386 Goal=   None    Shift=    0.000
 RMSDP=5.16D-07 MaxDP=1.22D-05 DE=-1.05D-08 OVMax= 6.57D-05

 Cycle  14  Pass 1  IDiag  1:
 RMSU=  1.96D-07    CP:  1.00D+00  1.06D+00  1.32D+00  1.74D+00
 E= -1679.82327778807     Delta-E=       -0.000000009610 Rises=F Damp=F
 DIIS: error= 1.12D-06 at cycle   5 NSaved=   5.
 NSaved= 5 IEnMin= 5 EnMin= -1679.82327778807     IErMin= 5 ErrMin= 1.12D-06
 ErrMax= 1.12D-06 EMaxC= 1.00D-01 BMatC= 2.38D-10 BMatP= 1.51D-09
 IDIUse=1 WtCom= 1.00D+00 WtEn= 0.00D+00
 Coeff-Com:  0.822D-02-0.191D+00-0.179D+00 0.404D+00 0.958D+00
 Coeff:      0.822D-02-0.191D+00-0.179D+00 0.404D+00 0.958D+00
 Gap=     0.386 Goal=   None    Shift=    0.000
 RMSDP=1.86D-07 MaxDP=4.67D-06 DE=-9.61D-09 OVMax= 2.50D-05

 Cycle  15  Pass 1  IDiag  1:
 RMSU=  5.82D-08    CP:  1.00D+00  1.06D+00  1.40D+00  2.05D+00  1.33D+00
 E= -1679.82327778915     Delta-E=       -0.000000001080 Rises=F Damp=F
 DIIS: error= 4.61D-07 at cycle   6 NSaved=   6.
 NSaved= 6 IEnMin= 6 EnMin= -1679.82327778915     IErMin= 6 ErrMin= 4.61D-07
 ErrMax= 4.61D-07 EMaxC= 1.00D-01 BMatC= 3.22D-11 BMatP= 2.38D-10
 IDIUse=1 WtCom= 1.00D+00 WtEn= 0.00D+00
 Coeff-Com: -0.183D-02 0.531D-01 0.483D-02-0.223D+00 0.215D+00 0.952D+00
 Coeff:     -0.183D-02 0.531D-01 0.483D-02-0.223D+00 0.215D+00 0.952D+00
 Gap=     0.386 Goal=   None    Shift=    0.000
 RMSDP=5.55D-08 MaxDP=1.23D-06 DE=-1.08D-09 OVMax= 6.45D-06

 Cycle  16  Pass 1  IDiag  1:
 RMSU=  1.97D-08    CP:  1.00D+00  1.06D+00  1.41D+00  2.11D+00  1.47D+00
                    CP:  1.07D+00
 E= -1679.82327778922     Delta-E=       -0.000000000069 Rises=F Damp=F
 DIIS: error= 1.04D-07 at cycle   7 NSaved=   7.
 NSaved= 7 IEnMin= 7 EnMin= -1679.82327778922     IErMin= 7 ErrMin= 1.04D-07
 ErrMax= 1.04D-07 EMaxC= 1.00D-01 BMatC= 4.35D-12 BMatP= 3.22D-11
 IDIUse=1 WtCom= 1.00D+00 WtEn= 0.00D+00
 Coeff-Com: -0.107D-02 0.258D-01 0.205D-01-0.731D-01-0.647D-01 0.565D-01
 Coeff-Com:  0.104D+01
 Coeff:     -0.107D-02 0.258D-01 0.205D-01-0.731D-01-0.647D-01 0.565D-01
 Coeff:      0.104D+01
 Gap=     0.386 Goal=   None    Shift=    0.000
 RMSDP=1.99D-08 MaxDP=5.07D-07 DE=-6.91D-11 OVMax= 2.00D-06

 Cycle  17  Pass 1  IDiag  1:
 RMSU=  7.95D-09    CP:  1.00D+00  1.06D+00  1.41D+00  2.12D+00  1.50D+00
                    CP:  1.19D+00  1.33D+00
 E= -1679.82327778925     Delta-E=       -0.000000000030 Rises=F Damp=F
 DIIS: error= 9.62D-08 at cycle   8 NSaved=   8.
 NSaved= 8 IEnMin= 8 EnMin= -1679.82327778925     IErMin= 8 ErrMin= 9.62D-08
 ErrMax= 9.62D-08 EMaxC= 1.00D-01 BMatC= 1.05D-12 BMatP= 4.35D-12
 IDIUse=1 WtCom= 1.00D+00 WtEn= 0.00D+00
 Coeff-Com:  0.284D-03-0.941D-02 0.426D-02 0.454D-01-0.637D-01-0.274D+00
 Coeff-Com:  0.221D+00 0.108D+01
 Coeff:      0.284D-03-0.941D-02 0.426D-02 0.454D-01-0.637D-01-0.274D+00
 Coeff:      0.221D+00 0.108D+01
 Gap=     0.386 Goal=   None    Shift=    0.000
 RMSDP=9.82D-09 MaxDP=2.80D-07 DE=-3.00D-11 OVMax= 1.13D-06

 SCF Done:  E(RHF) =  -1679.82327779     A.U. after   17 cycles
             Convg  =    0.9823D-08             -V/T =  2.0002
 KE= 1.679544614616D+03 PE=-9.758432937470D+03 EE= 3.489257140199D+03
 Leave Link  502 at Sat Aug 27 02:22:01 2022, MaxMem=  209715200 cpu:     567.4
 (Enter /opt/gaussian/l601.exe)
 Copying SCF densities to generalized density rwf, IOpCl= 0 IROHF=0.

 **********************************************************************

            Population analysis using the SCF density.

 **********************************************************************

 Orbital symmetries:
       Occupied  (A) (A) (A) (A) (A) (A) (A) (A) (A) (A) (A) (A)
                 (A) (A) (A) (A) (A) (A) (A) (A) (A) (A) (A) (A)
                 (A) (A) (A) (A) (A) (A) (A) (A) (A) (A) (A) (A)
                 (A) (A) (A) (A) (A) (A) (A) (A) (A) (A) (A) (A)
                 (A) (A) (A) (A) (A) (A) (A) (A) (A) (A) (A) (A)
                 (A) (A) (A) (A) (A) (A) (A) (A) (A) (A) (A) (A)
                 (A) (A) (A) (A) (A) (A) (A) (A) (A) (A) (A) (A)
                 (A) (A) (A) (A) (A) (A) (A) (A) (A) (A) (A) (A)
                 (A) (A) (A) (A) (A) (A) (A) (A) (A) (A) (A) (A)
                 (A) (A) (A)
       Virtual   (A) (A) (A) (A) (A) (A) (A) (A) (A) (A) (A) (A)
                 (A) (A) (A) (A) (A) (A) (A) (A) (A) (A) (A) (A)
                 (A) (A) (A) (A) (A) (A) (A) (A) (A) (A) (A) (A)
                 (A) (A) (A) (A) (A) (A) (A) (A) (A) (A) (A) (A)
                 (A) (A) (A) (A) (A) (A) (A) (A) (A) (A) (A) (A)
                 (A) (A) (A) (A) (A) (A) (A) (A) (A) (A) (A) (A)
                 (A) (A) (A) (A) (A) (A) (A) (A) (A) (A) (A) (A)
                 (A) (A) (A) (A) (A) (A) (A) (A) (A) (A) (A) (A)
                 (A) (A) (A) (A) (A) (A) (A) (A) (A) (A) (A) (A)
                 (A) (A) (A) (A) (A) (A) (A) (A) (A) (A) (A) (A)
                 (A) (A) (A) (A) (A) (A) (A) (A) (A) (A) (A) (A)
                 (A) (A) (A) (A) (A) (A) (A) (A) (A) (A) (A) (A)
                 (A) (A) (A) (A) (A) (A) (A) (A) (A) (A) (A) (A)
                 (A) (A) (A) (A) (A) (A) (A) (A) (A) (A) (A) (A)
                 (A) (A) (A) (A) (A) (A) (A) (A) (A) (A) (A) (A)
                 (A) (A) (A) (A) (A) (A) (A) (A) (A) (A) (A) (A)
                 (A) (A) (A) (A) (A) (A) (A) (A) (A) (A) (A) (A)
                 (A) (A) (A) (A)
 The electronic state is 1-A.
 Alpha  occ. eigenvalues --  -92.01980 -20.55000 -15.66630 -15.65069 -15.62666
 Alpha  occ. eigenvalues --  -15.62162 -15.61815 -15.58278 -11.39169 -11.35140
 Alpha  occ. eigenvalues --  -11.32128 -11.32014 -11.31714 -11.30772 -11.30092
 Alpha  occ. eigenvalues --  -11.30017 -11.28660 -11.28651 -11.27750 -11.27043
 Alpha  occ. eigenvalues --  -11.26578 -11.26226 -11.26007 -11.26004 -11.25901
 Alpha  occ. eigenvalues --  -11.25842 -11.25720 -11.25574 -11.25259 -11.25134
 Alpha  occ. eigenvalues --  -11.24761  -9.04334  -6.72449  -6.72307  -6.72019
 Alpha  occ. eigenvalues --   -1.45827  -1.40636  -1.33483  -1.28188  -1.27034
 Alpha  occ. eigenvalues --   -1.23890  -1.17266  -1.16565  -1.12661  -1.10754
 Alpha  occ. eigenvalues --   -1.07586  -1.06046  -1.04494  -1.04009  -1.03132
 Alpha  occ. eigenvalues --   -1.01833  -0.99364  -0.95702  -0.89038  -0.87905
 Alpha  occ. eigenvalues --   -0.87164  -0.84221  -0.83943  -0.83585  -0.83311
 Alpha  occ. eigenvalues --   -0.80144  -0.78976  -0.76389  -0.72886  -0.72713
 Alpha  occ. eigenvalues --   -0.71641  -0.71322  -0.70193  -0.69511  -0.67682
 Alpha  occ. eigenvalues --   -0.67425  -0.65041  -0.64984  -0.63940  -0.62997
 Alpha  occ. eigenvalues --   -0.62596  -0.61925  -0.61449  -0.60882  -0.60671
 Alpha  occ. eigenvalues --   -0.60209  -0.59634  -0.59155  -0.57968  -0.57366
 Alpha  occ. eigenvalues --   -0.57162  -0.54798  -0.54613  -0.53917  -0.53247
 Alpha  occ. eigenvalues --   -0.52816  -0.52394  -0.51055  -0.50909  -0.50310
 Alpha  occ. eigenvalues --   -0.50106  -0.49179  -0.46364  -0.44996  -0.42578
[...]
    40  H   -0.000002   0.000000   0.000000   0.000000   0.000000   0.000000
    41  H    0.000001   0.000000   0.000000   0.000000   0.000000   0.000000
    42  H    0.002364  -0.000144   0.000002   0.000000   0.000000   0.000000
    43  H    0.000403   0.001621   0.001250   0.000015   0.000005  -0.000001
    44  H   -0.014273   0.001214   0.000170  -0.000012   0.000003  -0.000037
    45  H    0.370728  -0.000136   0.000001   0.000000   0.000000   0.000000
    46  H   -0.000007  -0.030328   0.377222  -0.019762   0.001613  -0.000113
    47  H    0.000000   0.002196  -0.021767   0.365434  -0.015271   0.003266
    48  H    0.000000  -0.000811   0.002936  -0.052864   0.401370  -0.041761
    49  H   -0.000042  -0.066825   0.001939  -0.000742   0.003578  -0.035761
             31         32         33         34         35         36
     1  O    0.000000   0.001388   0.001332   0.000000   0.000000   0.000000
     2  C    0.000000  -0.039080  -0.046593   0.000000   0.000000   0.000000
     3  C    0.000000   0.388332   0.391555   0.000001   0.000000   0.000002
     4  N    0.000000  -0.037782  -0.039186  -0.000108  -0.000006  -0.000102
     5  N    0.000000   0.008486   0.001280  -0.000084   0.000002   0.000001
     6  N    0.000000   0.000029  -0.000116   0.001115  -0.000066  -0.000004
     7  C    0.000000  -0.000218   0.000059  -0.020347   0.002827   0.000466
     8  C    0.000000  -0.000003  -0.000006   0.361878  -0.020264   0.002367
     9  C    0.000000   0.000000  -0.000001  -0.020959   0.375052  -0.024803
    10  C    0.000000   0.000001  -0.000018   0.002087  -0.026645   0.373856
    11  C    0.000000   0.000052  -0.000246   0.000009   0.002610  -0.022980
    12  C    0.000000   0.004117   0.001130   0.003164   0.000355   0.002854
    13  N    0.000000   0.004734   0.004431   0.000000   0.000000   0.000000
    14  C    0.000000  -0.003879  -0.003646   0.000000   0.000000   0.000000
    15  C    0.000000   0.000206   0.001290   0.000000   0.000000   0.000000
    16  C    0.000000   0.000006   0.000201   0.000000   0.000000   0.000000
    17  S    0.000000   0.000001   0.000048   0.000000   0.000000   0.000000
    18  C    0.000000  -0.000001   0.000016   0.000000   0.000000   0.000000
    19  N    0.000000   0.000116   0.011030   0.000000   0.000000   0.000000
    20  C    0.000024  -0.000154  -0.000223   0.000000   0.000000   0.000000
    21  C   -0.000140   0.000024  -0.000007   0.000000   0.000000   0.000000
    22  C    0.001677   0.000000   0.000000   0.000000   0.000000   0.000000
    23  C   -0.013289   0.000000   0.000000   0.000000   0.000000   0.000000
    24  C   -0.003748   0.000000   0.000000   0.000000   0.000000   0.000000
    25  C    0.000106  -0.000006   0.000034   0.000000   0.000000   0.000000
    26  C    0.420402   0.000000   0.000000   0.000000   0.000000   0.000000
    27  C   -0.058090   0.000000   0.000000   0.000000   0.000000   0.000000
    28  C   -0.017508   0.000000   0.000000   0.000000   0.000000   0.000000
    29  C   -0.116255   0.000000   0.000000   0.000000   0.000000   0.000000
    30  N    0.435534   0.000000   0.000000   0.000000   0.000000   0.000000
    31  C    4.875437   0.000000   0.000000   0.000000   0.000000   0.000000
    32  H    0.000000   0.447887  -0.015999   0.000000   0.000000   0.000000
    33  H    0.000000  -0.015999   0.426982   0.000000   0.000000   0.000000
    34  H    0.000000   0.000000   0.000000   0.435045  -0.000119  -0.000089
    35  H    0.000000   0.000000   0.000000  -0.000119   0.465044  -0.000294
    36  H    0.000000   0.000000   0.000000  -0.000089  -0.000294   0.467568
    37  H    0.000000   0.000019   0.000330   0.000008  -0.000096  -0.000152
    38  H    0.000000   0.001350  -0.001196   0.000000   0.000000   0.000000
    39  H    0.000000   0.000054   0.000065   0.000000   0.000000   0.000000
    40  H    0.000000   0.000000  -0.000001   0.000000   0.000000   0.000000
    41  H    0.000000   0.000000  -0.000037   0.000000   0.000000   0.000000
    42  H    0.000001   0.000002   0.000000   0.000000   0.000000   0.000000
    43  H    0.000220   0.000000   0.000000   0.000000   0.000000   0.000000
    44  H    0.001695   0.000000   0.000000   0.000000   0.000000   0.000000
    45  H   -0.000001   0.000001   0.000003   0.000000   0.000000   0.000000
    46  H    0.001781   0.000000   0.000000   0.000000   0.000000   0.000000
    47  H    0.000212   0.000000   0.000000   0.000000   0.000000   0.000000
    48  H    0.004100   0.000000   0.000000   0.000000   0.000000   0.000000
    49  H    0.406047   0.000000   0.000000   0.000000   0.000000   0.000000
             37         38         39         40         41         42
     1  O    0.000502   0.000100  -0.000041   0.000000   0.000000  -0.000057
     2  C    0.000240   0.000102   0.001445  -0.000001  -0.000001   0.000247
     3  C   -0.000353  -0.001310   0.000168   0.000000   0.000012  -0.000022
     4  N   -0.002896  -0.000059  -0.000006   0.000000   0.000000   0.000000
     5  N   -0.000004  -0.000030   0.000000   0.000000   0.000000   0.000000
     6  N   -0.000099   0.000000   0.000000   0.000000   0.000000   0.000000
     7  C    0.000899   0.000000   0.000000   0.000000   0.000000   0.000000
     8  C    0.000159   0.000000   0.000000   0.000000   0.000000   0.000000
     9  C    0.001984   0.000000   0.000000   0.000000   0.000000   0.000000
    10  C   -0.016571   0.000000   0.000000   0.000000   0.000000   0.000000
    11  C    0.370527   0.000000   0.000000   0.000000   0.000005   0.000000
    12  C   -0.029937  -0.000006   0.000000   0.000000   0.000000   0.000000
    13  N   -0.000004  -0.051304  -0.044379  -0.000056  -0.000003  -0.000993
    14  C   -0.000015   0.420231   0.426867   0.001427   0.000053   0.000187
    15  C    0.000014  -0.059740  -0.064828  -0.007769   0.002873   0.000043
    16  C    0.000001   0.000254  -0.000704   0.375335   0.002621   0.000002
    17  S    0.000002  -0.000026   0.000086  -0.010992  -0.030992   0.000000
    18  C    0.000020   0.000094  -0.000284   0.001728   0.390196   0.000000
    19  N    0.000658  -0.001113   0.003151   0.002341  -0.032533   0.000000
    20  C    0.000002   0.004202   0.000266  -0.000005  -0.000001  -0.028067
    21  C    0.000000   0.000174   0.001141   0.000009   0.000000   0.371375
    22  C    0.000000  -0.000004  -0.000150   0.000002   0.000000  -0.016587
    23  C    0.000000   0.000000  -0.000005   0.000000   0.000000   0.001746
    24  C    0.000000   0.000000   0.000000  -0.000003   0.000000   0.000199
    25  C   -0.000001  -0.000107   0.000236  -0.000002   0.000001   0.002364
    26  C    0.000000   0.000000   0.000000   0.000000   0.000000  -0.000144
    27  C    0.000000   0.000000   0.000000   0.000000   0.000000   0.000002
    28  C    0.000000   0.000000   0.000000   0.000000   0.000000   0.000000
    29  C    0.000000   0.000000   0.000000   0.000000   0.000000   0.000000
    30  N    0.000000   0.000000   0.000000   0.000000   0.000000   0.000000
    31  C    0.000000   0.000000   0.000000   0.000000   0.000000   0.000001
    32  H    0.000019   0.001350   0.000054   0.000000   0.000000   0.000002
    33  H    0.000330  -0.001196   0.000065  -0.000001  -0.000037   0.000000
    34  H    0.000008   0.000000   0.000000   0.000000   0.000000   0.000000
    35  H   -0.000096   0.000000   0.000000   0.000000   0.000000   0.000000
    36  H   -0.000152   0.000000   0.000000   0.000000   0.000000   0.000000
    37  H    0.445356   0.000000   0.000000   0.000000  -0.000014   0.000000
    38  H    0.000000   0.503626  -0.021093  -0.000063  -0.000005  -0.000010
    39  H    0.000000  -0.021093   0.490561   0.000661   0.000001   0.000120
    40  H    0.000000  -0.000063   0.000661   0.384073  -0.000006   0.000000
    41  H   -0.000014  -0.000005   0.000001  -0.000006   0.413953   0.000000
    42  H    0.000000  -0.000010   0.000120   0.000000   0.000000   0.447990
    43  H    0.000000   0.000000   0.000004   0.000000   0.000000   0.000086
    44  H    0.000000   0.000000   0.000000   0.000000   0.000000   0.000009
    45  H    0.000018   0.000004   0.000004  -0.000010  -0.000005  -0.000116
    46  H    0.000000   0.000000   0.000000   0.000000   0.000000   0.000001
    47  H    0.000000   0.000000   0.000000   0.000000   0.000000   0.000000
    48  H    0.000000   0.000000   0.000000   0.000000   0.000000   0.000000
    49  H    0.000000   0.000000   0.000000   0.000000   0.000000   0.000000
             43         44         45         46         47         48
     1  O    0.000000  -0.000001   0.000035   0.000000   0.000000   0.000000
     2  C   -0.000001  -0.000001   0.000452   0.000000   0.000000   0.000000
     3  C    0.000000   0.000000  -0.000051   0.000000   0.000000   0.000000
     4  N    0.000000   0.000000   0.000000   0.000000   0.000000   0.000000
     5  N    0.000000   0.000000   0.000000   0.000000   0.000000   0.000000
     6  N    0.000000   0.000000   0.000000   0.000000   0.000000   0.000000
     7  C    0.000000   0.000000   0.000000   0.000000   0.000000   0.000000
     8  C    0.000000   0.000000   0.000000   0.000000   0.000000   0.000000
     9  C    0.000000   0.000000   0.000000   0.000000   0.000000   0.000000
    10  C    0.000000   0.000000   0.000000   0.000000   0.000000   0.000000
    11  C    0.000000   0.000000  -0.000001   0.000000   0.000000   0.000000
    12  C    0.000000   0.000000   0.000000   0.000000   0.000000   0.000000
    13  N   -0.000130  -0.000121  -0.002528   0.000000   0.000000   0.000000
    14  C    0.000003   0.000002  -0.000543   0.000000   0.000000   0.000000
    15  C    0.000000   0.000000  -0.000178   0.000000   0.000000   0.000000
    16  C    0.000000   0.000000  -0.000090   0.000000   0.000000   0.000000
    17  S    0.000000   0.000001   0.000011   0.000000   0.000000   0.000000
    18  C    0.000000   0.000000   0.000305   0.000000   0.000000   0.000000
    19  N    0.000000   0.000000   0.001048   0.000000   0.000000   0.000000
    20  C    0.001454   0.001300  -0.026184  -0.000005   0.000000   0.000000
    21  C   -0.015084   0.000384   0.002394   0.000013   0.000000   0.000000
    22  C    0.369154   0.002149   0.000198   0.002083  -0.000002   0.000000
    23  C   -0.030781  -0.030401   0.001738   0.000717  -0.000090   0.000009
    24  C    0.002053   0.368710  -0.016837   0.000133   0.000001   0.000000
    25  C    0.000403  -0.014273   0.370728  -0.000007   0.000000   0.000000
    26  C    0.001621   0.001214  -0.000136  -0.030328   0.002196  -0.000811
    27  C    0.001250   0.000170   0.000001   0.377222  -0.021767   0.002936
    28  C    0.000015  -0.000012   0.000000  -0.019762   0.365434  -0.052864
    29  C    0.000005   0.000003   0.000000   0.001613  -0.015271   0.401370
    30  N   -0.000001  -0.000037   0.000000  -0.000113   0.003266  -0.041761
    31  C    0.000220   0.001695  -0.000001   0.001781   0.000212   0.004100
    32  H    0.000000   0.000000   0.000001   0.000000   0.000000   0.000000
    33  H    0.000000   0.000000   0.000003   0.000000   0.000000   0.000000
    34  H    0.000000   0.000000   0.000000   0.000000   0.000000   0.000000
    35  H    0.000000   0.000000   0.000000   0.000000   0.000000   0.000000
    36  H    0.000000   0.000000   0.000000   0.000000   0.000000   0.000000
    37  H    0.000000   0.000000   0.000018   0.000000   0.000000   0.000000
    38  H    0.000000   0.000000   0.000004   0.000000   0.000000   0.000000
    39  H    0.000004   0.000000   0.000004   0.000000   0.000000   0.000000
    40  H    0.000000   0.000000  -0.000010   0.000000   0.000000   0.000000
    41  H    0.000000   0.000000  -0.000005   0.000000   0.000000   0.000000
    42  H    0.000086   0.000009  -0.000116   0.000001   0.000000   0.000000
    43  H    0.450490  -0.000129   0.000009   0.000729   0.000002   0.000000
    44  H   -0.000129   0.446353   0.000154   0.000000   0.000000   0.000000
    45  H    0.000009   0.000154   0.443704   0.000000   0.000000   0.000000
    46  H    0.000729   0.000000   0.000000   0.446016  -0.000566  -0.000091
    47  H    0.000002   0.000000   0.000000  -0.000566   0.450339   0.001678
    48  H    0.000000   0.000000   0.000000  -0.000091   0.001678   0.473459
    49  H    0.000008   0.000964   0.000000  -0.000107   0.000012   0.000039
             49
     1  O    0.000000
     2  C    0.000000
     3  C    0.000000
     4  N    0.000000
     5  N    0.000000
     6  N    0.000000
     7  C    0.000000
     8  C    0.000000
     9  C    0.000000
    10  C    0.000000
    11  C    0.000000
    12  C    0.000000
    13  N    0.000000
    14  C    0.000000
    15  C    0.000000
    16  C    0.000000
    17  S    0.000000
    18  C    0.000000
    19  N    0.000000
    20  C    0.000002
    21  C   -0.000014
    22  C    0.000196
    23  C    0.007292
    24  C    0.001216
    25  C   -0.000042
    26  C   -0.066825
    27  C    0.001939
    28  C   -0.000742
    29  C    0.003578
    30  N   -0.035761
    31  C    0.406047
    32  H    0.000000
    33  H    0.000000
    34  H    0.000000
    35  H    0.000000
    36  H    0.000000
    37  H    0.000000
    38  H    0.000000
    39  H    0.000000
    40  H    0.000000
    41  H    0.000000
    42  H    0.000000
    43  H    0.000008
    44  H    0.000964
    45  H    0.000000
    46  H   -0.000107
    47  H    0.000012
    48  H    0.000039
    49  H    0.457517
 Mulliken atomic charges:
              1
     1  O   -0.569746
     2  C    0.804619
     3  C   -0.141840
     4  N   -0.884906
     5  N    0.093726
     6  N   -0.338901
     7  C   -0.018856
     8  C   -0.080030
     9  C   -0.233368
    10  C   -0.207608
    11  C   -0.063467
    12  C    0.484818
    13  N   -0.954698
    14  C   -0.101926
    15  C    0.307841
    16  C   -0.589009
    17  S    0.483451
    18  C   -0.240205
    19  N   -0.467755
    20  C    0.289336
    21  C   -0.168277
    22  C   -0.205176
    23  C   -0.010228
    24  C   -0.209915
    25  C   -0.145601
    26  C   -0.092845
    27  C   -0.140847
    28  C   -0.245256
    29  C    0.059179
    30  N   -0.532456
    31  C    0.061795
    32  H    0.240318
    33  H    0.267489
    34  H    0.238399
    35  H    0.201601
    36  H    0.201310
    37  H    0.229403
    38  H    0.205926
    39  H    0.206659
    40  H    0.253332
    41  H    0.253880
    42  H    0.221622
    43  H    0.218622
    44  H    0.221870
    45  H    0.225873
    46  H    0.220670
    47  H    0.214557
    48  H    0.211936
    49  H    0.224682
 Sum of Mulliken atomic charges =   0.00000
 Mulliken charges with hydrogens summed into heavy atoms:
              1
     1  O   -0.569746
     2  C    0.804619
     3  C    0.365968
     4  N   -0.884906
     5  N    0.093726
     6  N   -0.338901
     7  C   -0.018856
     8  C    0.158369
     9  C   -0.031767
    10  C   -0.006298
    11  C    0.165936
    12  C    0.484818
    13  N   -0.954698
    14  C    0.310658
    15  C    0.307841
    16  C   -0.335677
    17  S    0.483451
    18  C    0.013675
    19  N   -0.467755
    20  C    0.289336
    21  C    0.053345
    22  C    0.013445
    23  C   -0.010228
    24  C    0.011955
    25  C    0.080271
    26  C   -0.092845
    27  C    0.079823
    28  C   -0.030699
    29  C    0.271115
    30  N   -0.532456
    31  C    0.286477
 Sum of Mulliken charges with hydrogens summed into heavy atoms =   0.00000
 Electronic spatial extent (au):  <R**2>=          18324.5336
 Charge=              0.0000 electrons
 Dipole moment (field-independent basis, Debye):
    X=             -3.3975    Y=              8.4064    Z=              0.0315  Tot=              9.0671
 Quadrupole moment (field-independent basis, Debye-Ang):
   XX=           -190.7555   YY=           -193.9483   ZZ=           -181.0578
   XY=              2.6022   XZ=             38.1140   YZ=             -4.6429
 Traceless Quadrupole moment (field-independent basis, Debye-Ang):
   XX=             -2.1683   YY=             -5.3611   ZZ=              7.5294
   XY=              2.6022   XZ=             38.1140   YZ=             -4.6429
 Octapole moment (field-independent basis, Debye-Ang**2):
  XXX=           -161.5741  YYY=             61.4723  ZZZ=             11.4141  XYY=             41.8823
  XXY=             50.8238  XXZ=              3.2101  XZZ=             11.3758  YZZ=             44.9534
  YYZ=              8.9525  XYZ=            -66.7658
 Hexadecapole moment (field-independent basis, Debye-Ang**3):
 XXXX=         -17183.5773 YYYY=          -5857.8545 ZZZZ=          -1839.9957 XXXY=           -166.3491
 XXXZ=           1240.8929 YYYX=           -156.7761 YYYZ=             44.7649 ZZZX=            294.9343
 ZZZY=             -2.4996 XXYY=          -4116.3351 XXZZ=          -3576.5374 YYZZ=          -1269.0103
 XXYZ=            -72.2289 YYXZ=            282.4384 ZZXY=              6.8257
 N-N= 2.904355807900D+03 E-N=-9.749244306086D+03  KE= 1.681289591179D+03
 No NMR shielding tensors so no spin-rotation constants.
 Leave Link  601 at Sat Aug 27 02:47:47 2022, MaxMem=  209715200 cpu:       1.3
 (Enter /opt/gaussian/l9999.exe)
 1\1\GINC-LQCAPF-6\FOpt\RHF\6-31G\C23H18N6O1S1\LQCAPF-6\27-Aug-2022\0\\
 #p opt hf/6-31G\\Mol27.out\\0,1\O,21.3094671895,-7.3282427651,-0.13517
 06621\C,21.8989295241,-8.326673626,0.247202129\C,23.3806603125,-8.2751
 504498,0.5900522098\N,23.9065008435,-6.9458193227,0.512391457\N,24.127
 7430159,-6.2389107464,1.6552686365\N,24.5669897754,-5.0852001363,1.362
 3067877\C,24.6475606136,-4.9741434036,-0.0163036653\C,25.0704604546,-3
 .9157442609,-0.8202245309\C,25.0415972717,-4.1080842982,-2.1793380055\
 C,24.5955208037,-5.3297559832,-2.7331111677\C,24.1744029908,-6.3761543
 611,-1.948648644\C,24.2124820511,-6.173087432,-0.5664808714\N,21.26418
 24027,-9.5350602818,0.3772987139\C,21.9320854173,-10.7895108494,0.7298
 407025\C,22.3318183972,-11.5969639465,-0.4693775133\C,21.9013462646,-1
 2.8224722112,-0.7990519635\S,22.6673051119,-13.3777004242,-2.318272719
 2\C,23.5296866935,-11.8070180283,-2.3451172713\N,23.2555945907,-11.039
 0980952,-1.3617082494\C,19.8679186758,-9.6234754822,0.0502619227\C,18.
 9233254663,-9.624019281,1.0649460267\C,17.5768631679,-9.7451739995,0.7
 63425559\C,17.1488437465,-9.8653383643,-0.5579884994\C,18.1097355284,-
 9.8566982214,-1.568286931\C,19.456534791,-9.7361784131,-1.268294302\C,
 15.7056800412,-9.9933402309,-0.8819792533\C,14.8609300302,-10.83071658
 48,-0.1563909151\C,13.5207104069,-10.9187465251,-0.4973137735\C,13.054
 2841359,-10.1672750147,-1.5630788547\N,13.8526544138,-9.3623453048,-2.
 2612911712\C,15.1376576714,-9.2736449026,-1.9319756267\H,23.5441356537
 ,-8.6060376869,1.6047221369\H,23.9244071584,-8.9290561787,-0.077770089
 \H,25.4002375886,-2.9962331596,-0.3803911775\H,25.3552541227,-3.323161
 1804,-2.8388841093\H,24.5801768598,-5.435928292,-3.8006326862\H,23.819
 3766033,-7.2919430719,-2.3762639251\H,22.8071597862,-10.5853002638,1.3
 275068352\H,21.2584037017,-11.3653727267,1.3470300654\H,21.1975827736,
 -13.4369202186,-0.2868193945\H,24.2110919733,-11.5673974395,-3.1289557
 231\H,19.2408934241,-9.5061980904,2.0829257801\H,16.8552444539,-9.7148
 829746,1.5565347687\H,17.8066582726,-9.9600159459,-2.5918628325\H,20.1
 861960393,-9.7221781166,-2.0531628768\H,15.2511370664,-11.4174897009,0
 .652557368\H,12.8557636292,-11.5603702896,0.0453071324\H,12.0288175584
 ,-10.2046402549,-1.8673996651\H,15.7277915353,-8.5942314626,-2.5122311
 621\\Version=EM64L-G09RevC.01\State=1-A\HF=-1679.8740268\RMSD=6.362e-0
 9\RMSF=3.441e-06\Dipole=0.184443,-3.5313362,-0.4701412\Quadrupole=-1.3
 183428,-1.0358463,2.3541891,2.5103474,-23.9965156,-16.0385044\PG=C01 [
 X(C23H18N6O1S1)]\\@


 A successful marriage requires falling in love
 many times, always with the same person.
                           -- Mignon McLaughlin
 Job cpu time:  0 days  3 hours 34 minutes 35.8 seconds.
 File lengths (MBytes):  RWF=     70 Int=      0 D2E=      0 Chk=     10 Scr=      1
 Normal termination of Gaussian 09 at Sat Aug 27 02:47:47 2022.
