 Entering Gaussian System, Link 0=g09
 Input=Mol26.gjf
 Output=Mol26.log
 Initial command:
 /opt/gaussian/l1.exe /home/scr/lqcapf-6/Gau-280029.inp -scrdir=/home/scr/lqcapf-6/
 Entering Link 1 = /opt/gaussian/l1.exe PID=    280031.
  
 Copyright (c) 1988,1990,1992,1993,1995,1998,2003,2009,2011,
            Gaussian, Inc.  All Rights Reserved.
  
 This is part of the Gaussian(R) 09 program.  It is based on
 the Gaussian(R) 03 system (copyright 2003, Gaussian, Inc.),
 the Gaussian(R) 98 system (copyright 1998, Gaussian, Inc.),
 the Gaussian(R) 94 system (copyright 1995, Gaussian, Inc.),
 the Gaussian 92(TM) system (copyright 1992, Gaussian, Inc.),
 the Gaussian 90(TM) system (copyright 1990, Gaussian, Inc.),
 the Gaussian 88(TM) system (copyright 1988, Gaussian, Inc.),
 the Gaussian 86(TM) system (copyright 1986, Carnegie Mellon
 University), and the Gaussian 82(TM) system (copyright 1983,
 Carnegie Mellon University). Gaussian is a federally registered
 trademark of Gaussian, Inc.
  
 This software contains proprietary and confidential information,
 including trade secrets, belonging to Gaussian, Inc.
  
 This software is provided under written license and may be
 used, copied, transmitted, or stored only in accord with that
 written license.
  
 The following legend is applicable only to US Government
 contracts under FAR:
  
                    RESTRICTED RIGHTS LEGEND
  
 Use, reproduction and disclosure by the US Government is
 subject to restrictions as set forth in subparagraphs (a)
 and (c) of the Commercial Computer Software - Restricted
 Rights clause in FAR 52.227-19.
  
 Gaussian, Inc.
 340 Quinnipiac St., Bldg. 40, Wallingford CT 06492
  
  
 ---------------------------------------------------------------
 Warning -- This program may not be used in any manner that
 competes with the business of Gaussian, Inc. or will provide
 assistance to any competitor of Gaussian, Inc.  The licensee
 of this program is prohibited from giving any competitor of
 Gaussian, Inc. access to this program.  By using this program,
 the user acknowledges that Gaussian, Inc. is engaged in the
 business of creating and licensing software in the field of
 computational chemistry and represents and warrants to the
 licensee that it is not a competitor of Gaussian, Inc. and that
 it will not use this program in any manner prohibited above.
 ---------------------------------------------------------------
  

 Cite this work as:
 Gaussian 09, Revision C.01,
 M. J. Frisch, G. W. Trucks, H. B. Schlegel, G. E. Scuseria, 
 M. A. Robb, J. R. Cheeseman, G. Scalmani, V. Barone, B. Mennucci, 
 G. A. Petersson, H. Nakatsuji, M. Caricato, X. Li, H. P. Hratchian, 
 A. F. Izmaylov, J. Bloino, G. Zheng, J. L. Sonnenberg, M. Hada, 
 M. Ehara, K. Toyota, R. Fukuda, J. Hasegawa, M. Ishida, T. Nakajima, 
 Y. Honda, O. Kitao, H. Nakai, T. Vreven, J. A. Montgomery, Jr., 
 J. E. Peralta, F. Ogliaro, M. Bearpark, J. J. Heyd, E. Brothers, 
 K. N. Kudin, V. N. Staroverov, T. Keith, R. Kobayashi, J. Normand, 
 K. Raghavachari, A. Rendell, J. C. Burant, S. S. Iyengar, J. Tomasi, 
 M. Cossi, N. Rega, J. M. Millam, M. Klene, J. E. Knox, J. B. Cross, 
 V. Bakken, C. Adamo, J. Jaramillo, R. Gomperts, R. E. Stratmann, 
 O. Yazyev, A. J. Austin, R. Cammi, C. Pomelli, J. W. Ochterski, 
 R. L. Martin, K. Morokuma, V. G. Zakrzewski, G. A. Voth, 
 P. Salvador, J. J. Dannenberg, S. Dapprich, A. D. Daniels, 
 O. Farkas, J. B. Foresman, J. V. Ortiz, J. Cioslowski, 
 and D. J. Fox, Gaussian, Inc., Wallingford CT, 2010.
 
 ******************************************
 Gaussian 09:  EM64L-G09RevC.01 23-Sep-2011
                27-Aug-2022 
 ******************************************
 %nprocshared=8
 Will use up to    8 processors via shared memory.
 %mem=1600MB
 ---------------
 #p opt hf/6-31G
 ---------------
 1/18=20,19=15,38=1/1,3;
 2/9=110,12=2,17=6,18=5,40=1/2;
 3/5=1,6=6,11=9,16=1,25=1,30=1,71=1/1,2,3;
 4//1;
 5/5=2,38=5/2;
 6/7=2,8=2,9=2,10=2,28=1/1;
 7//1,2,3,16;
 1/18=20,19=15/3(2);
 2/9=110/2;
 99//99;
 2/9=110/2;
 3/5=1,6=6,11=9,16=1,25=1,30=1,71=1/1,2,3;
 4/5=5,16=3/1;
 5/5=2,38=5/2;
 7//1,2,3,16;
 1/18=20,19=15/3(-5);
 2/9=110/2;
 6/7=2,8=2,9=2,10=2,19=2,28=1/1;
 99/9=1/99;
 Leave Link    1 at Sat Aug 27 01:48:02 2022, MaxMem=  209715200 cpu:       0.1
 (Enter /opt/gaussian/l101.exe)
 ---------
 Mol26.out
 ---------
 Charge =  0 Multiplicity = 1
 Symbolic Z-Matrix:
 O                     21.3209  -6.8465   -0.7276 
 C                     21.896   -7.8619   -0.3039 
 C                     23.3589  -7.8058    0.1762 
 N                     23.9087  -6.4813    0.2977 
 N                     23.4743  -5.5668    1.2317 
 N                     23.8146  -4.395     0.9455 
 C                     24.4874  -4.389    -0.3214 
 C                     25.0689  -3.3835   -1.0919 
 C                     25.6623  -3.7587   -2.2936 
 C                     25.6892  -5.0959   -2.7205 
 C                     25.1245  -6.1234   -1.9706 
 C                     24.5169  -5.7664   -0.7674 
 N                     21.2398  -9.0955   -0.2571 
 C                     21.9026  -10.3061   0.176 
 C                     21.6285  -11.5374  -0.6969 
 C                     22.2752  -12.7786  -0.0769 
 C                     23.2342  -13.3173  -1.1339 
 O                     23.3084  -12.3724  -2.2046 
 C                     22.2465  -11.4207  -2.0933 
 C                     19.836   -9.1623   -0.4794 
 C                     19.0051  -9.9041    0.3892 
 C                     17.6368  -9.9817    0.1607 
 C                     17.0496  -9.321    -0.9267 
 C                     17.8696  -8.5743   -1.7827 
 C                     19.2417  -8.4947   -1.5716 
 C                     15.614   -9.4047   -1.1565 
 C                     14.9038  -10.5955  -0.9424 
 C                     13.5292  -10.6191  -1.1756 
 C                     12.9016  -9.4414   -1.6195 
 N                     13.5616  -8.2858   -1.8324 
 C                     14.8862  -8.276    -1.6035 
 H                     23.4277  -8.295     1.1915 
 H                     23.9989  -8.366    -0.5646 
 H                     25.0564  -2.3361   -0.7581 
 H                     26.1241  -2.9883   -2.93 
 H                     26.1713  -5.339    -3.6804 
 H                     25.1559  -7.1654   -2.3141 
 H                     23.018   -10.1505   0.187 
 H                     21.5796  -10.5444   1.2323 
 H                     20.519   -11.6855  -0.7872 
 H                     22.8264  -12.5295   0.8638 
 H                     21.4997  -13.5414   0.1785 
 H                     24.2788  -13.4349  -0.7487 
 H                     22.8791  -14.2905  -1.5607 
 H                     21.495   -11.6526  -2.8916 
 H                     22.7064  -10.4194  -2.2898 
 H                     19.4272  -10.4247   1.2622 
 H                     17.0058  -10.5575   0.8554 
 H                     17.427   -8.0453   -2.6416 
 H                     19.8581  -7.883    -2.2505 
 H                     15.4286  -11.4999  -0.601 
 H                     12.9449  -11.535   -1.0186 
 H                     11.815   -9.4155   -1.8152 
 H                     15.3998  -7.3125   -1.7774 
 
 NAtoms=     54 NQM=        0 NQMF=       0 NMMI=     54 NMMIF=      0
                NMic=       0 NMicF=      0.
                    Isotopes and Nuclear Properties:
 (Nuclear quadrupole moments (NQMom) in fm**2, nuclear magnetic moments (NMagM)
  in nuclear magnetons)

  Atom         1           2           3           4           5           6           7           8           9          10
 IAtWgt=          16          12          12          14          14          14          12          12          12          12
 AtmWgt=  15.9949146  12.0000000  12.0000000  14.0030740  14.0030740  14.0030740  12.0000000  12.0000000  12.0000000  12.0000000
 NucSpn=           0           0           0           2           2           2           0           0           0           0
 AtZEff=   0.0000000   0.0000000   0.0000000   0.0000000   0.0000000   0.0000000   0.0000000   0.0000000   0.0000000   0.0000000
 NQMom=    0.0000000   0.0000000   0.0000000   2.0440000   2.0440000   2.0440000   0.0000000   0.0000000   0.0000000   0.0000000
 NMagM=    0.0000000   0.0000000   0.0000000   0.4037610   0.4037610   0.4037610   0.0000000   0.0000000   0.0000000   0.0000000

  Atom        11          12          13          14          15          16          17          18          19          20
 IAtWgt=          12          12          14          12          12          12          12          16          12          12
 AtmWgt=  12.0000000  12.0000000  14.0030740  12.0000000  12.0000000  12.0000000  12.0000000  15.9949146  12.0000000  12.0000000
 NucSpn=           0           0           2           0           0           0           0           0           0           0
 AtZEff=   0.0000000   0.0000000   0.0000000   0.0000000   0.0000000   0.0000000   0.0000000   0.0000000   0.0000000   0.0000000
 NQMom=    0.0000000   0.0000000   2.0440000   0.0000000   0.0000000   0.0000000   0.0000000   0.0000000   0.0000000   0.0000000
 NMagM=    0.0000000   0.0000000   0.4037610   0.0000000   0.0000000   0.0000000   0.0000000   0.0000000   0.0000000   0.0000000

  Atom        21          22          23          24          25          26          27          28          29          30
 IAtWgt=          12          12          12          12          12          12          12          12          12          14
 AtmWgt=  12.0000000  12.0000000  12.0000000  12.0000000  12.0000000  12.0000000  12.0000000  12.0000000  12.0000000  14.0030740
 NucSpn=           0           0           0           0           0           0           0           0           0           2
 AtZEff=   0.0000000   0.0000000   0.0000000   0.0000000   0.0000000   0.0000000   0.0000000   0.0000000   0.0000000   0.0000000
 NQMom=    0.0000000   0.0000000   0.0000000   0.0000000   0.0000000   0.0000000   0.0000000   0.0000000   0.0000000   2.0440000
 NMagM=    0.0000000   0.0000000   0.0000000   0.0000000   0.0000000   0.0000000   0.0000000   0.0000000   0.0000000   0.4037610

  Atom        31          32          33          34          35          36          37          38          39          40
 IAtWgt=          12           1           1           1           1           1           1           1           1           1
 AtmWgt=  12.0000000   1.0078250   1.0078250   1.0078250   1.0078250   1.0078250   1.0078250   1.0078250   1.0078250   1.0078250
 NucSpn=           0           1           1           1           1           1           1           1           1           1
 AtZEff=   0.0000000   0.0000000   0.0000000   0.0000000   0.0000000   0.0000000   0.0000000   0.0000000   0.0000000   0.0000000
 NQMom=    0.0000000   0.0000000   0.0000000   0.0000000   0.0000000   0.0000000   0.0000000   0.0000000   0.0000000   0.0000000
 NMagM=    0.0000000   2.7928460   2.7928460   2.7928460   2.7928460   2.7928460   2.7928460   2.7928460   2.7928460   2.7928460

  Atom        41          42          43          44          45          46          47          48          49          50
 IAtWgt=           1           1           1           1           1           1           1           1           1           1
 AtmWgt=   1.0078250   1.0078250   1.0078250   1.0078250   1.0078250   1.0078250   1.0078250   1.0078250   1.0078250   1.0078250
 NucSpn=           1           1           1           1           1           1           1           1           1           1
 AtZEff=   0.0000000   0.0000000   0.0000000   0.0000000   0.0000000   0.0000000   0.0000000   0.0000000   0.0000000   0.0000000
 NQMom=    0.0000000   0.0000000   0.0000000   0.0000000   0.0000000   0.0000000   0.0000000   0.0000000   0.0000000   0.0000000
 NMagM=    2.7928460   2.7928460   2.7928460   2.7928460   2.7928460   2.7928460   2.7928460   2.7928460   2.7928460   2.7928460

  Atom        51          52          53          54
 IAtWgt=           1           1           1           1
 AtmWgt=   1.0078250   1.0078250   1.0078250   1.0078250
 NucSpn=           1           1           1           1
 AtZEff=   0.0000000   0.0000000   0.0000000   0.0000000
 NQMom=    0.0000000   0.0000000   0.0000000   0.0000000
 NMagM=    2.7928460   2.7928460   2.7928460   2.7928460
 Leave Link  101 at Sat Aug 27 01:48:02 2022, MaxMem=  209715200 cpu:       0.8
 (Enter /opt/gaussian/l103.exe)

 GradGradGradGradGradGradGradGradGradGradGradGradGradGradGradGradGradGrad
 Berny optimization.
 Initialization pass.
                           ----------------------------
                           !    Initial Parameters    !
                           ! (Angstroms and Degrees)  !
 --------------------------                            --------------------------
 ! Name  Definition              Value          Derivative Info.                !
 --------------------------------------------------------------------------------
 ! R1    R(1,2)                  1.2415         estimate D2E/DX2                !
 ! R2    R(2,3)                  1.5407         estimate D2E/DX2                !
 ! R3    R(2,13)                 1.3981         estimate D2E/DX2                !
 ! R4    R(3,4)                  1.4392         estimate D2E/DX2                !
 ! R5    R(3,32)                 1.1291         estimate D2E/DX2                !
 ! R6    R(3,33)                 1.1279         estimate D2E/DX2                !
 ! R7    R(4,5)                  1.3775         estimate D2E/DX2                !
 ! R8    R(4,12)                 1.4197         estimate D2E/DX2                !
 ! R9    R(5,6)                  1.2533         estimate D2E/DX2                !
 ! R10   R(6,7)                  1.4345         estimate D2E/DX2                !
 ! R11   R(7,8)                  1.3939         estimate D2E/DX2                !
 ! R12   R(7,12)                 1.4481         estimate D2E/DX2                !
 ! R13   R(8,9)                  1.3918         estimate D2E/DX2                !
 ! R14   R(8,34)                 1.0994         estimate D2E/DX2                !
 ! R15   R(9,10)                 1.4039         estimate D2E/DX2                !
 ! R16   R(9,35)                 1.1008         estimate D2E/DX2                !
 ! R17   R(10,11)                1.3918         estimate D2E/DX2                !
 ! R18   R(10,36)                1.1013         estimate D2E/DX2                !
 ! R19   R(11,12)                1.3944         estimate D2E/DX2                !
 ! R20   R(11,37)                1.0976         estimate D2E/DX2                !
 ! R21   R(13,14)                1.4465         estimate D2E/DX2                !
 ! R22   R(13,20)                1.4229         estimate D2E/DX2                !
 ! R23   R(14,15)                1.534          estimate D2E/DX2                !
 ! R24   R(14,38)                1.1263         estimate D2E/DX2                !
 ! R25   R(14,39)                1.13           estimate D2E/DX2                !
 ! R26   R(15,16)                1.5308         estimate D2E/DX2                !
 ! R27   R(15,19)                1.5315         estimate D2E/DX2                !
 ! R28   R(15,40)                1.123          estimate D2E/DX2                !
 ! R29   R(16,17)                1.5255         estimate D2E/DX2                !
 ! R30   R(16,41)                1.1184         estimate D2E/DX2                !
 ! R31   R(16,42)                1.1174         estimate D2E/DX2                !
 ! R32   R(17,18)                1.4299         estimate D2E/DX2                !
 ! R33   R(17,43)                1.1196         estimate D2E/DX2                !
 ! R34   R(17,44)                1.1204         estimate D2E/DX2                !
 ! R35   R(18,19)                1.4303         estimate D2E/DX2                !
 ! R36   R(19,45)                1.1206         estimate D2E/DX2                !
 ! R37   R(19,46)                1.1193         estimate D2E/DX2                !
 ! R38   R(20,21)                1.4125         estimate D2E/DX2                !
 ! R39   R(20,25)                1.4113         estimate D2E/DX2                !
 ! R40   R(21,22)                1.3894         estimate D2E/DX2                !
 ! R41   R(21,47)                1.1006         estimate D2E/DX2                !
 ! R42   R(22,23)                1.4013         estimate D2E/DX2                !
 ! R43   R(22,48)                1.1011         estimate D2E/DX2                !
 ! R44   R(23,24)                1.401          estimate D2E/DX2                !
 ! R45   R(23,26)                1.4563         estimate D2E/DX2                !
 ! R46   R(24,25)                1.3905         estimate D2E/DX2                !
 ! R47   R(24,49)                1.1016         estimate D2E/DX2                !
 ! R48   R(25,50)                1.1023         estimate D2E/DX2                !
 ! R49   R(26,27)                1.4029         estimate D2E/DX2                !
 ! R50   R(26,31)                1.4154         estimate D2E/DX2                !
 ! R51   R(27,28)                1.3944         estimate D2E/DX2                !
 ! R52   R(27,51)                1.1            estimate D2E/DX2                !
 ! R53   R(28,29)                1.4064         estimate D2E/DX2                !
 ! R54   R(28,52)                1.0977         estimate D2E/DX2                !
 ! R55   R(29,30)                1.3477         estimate D2E/DX2                !
 ! R56   R(29,53)                1.1044         estimate D2E/DX2                !
 ! R57   R(30,31)                1.3443         estimate D2E/DX2                !
 ! R58   R(31,54)                1.1056         estimate D2E/DX2                !
 ! A1    A(1,2,3)              121.0919         estimate D2E/DX2                !
 ! A2    A(1,2,13)             121.0427         estimate D2E/DX2                !
 ! A3    A(3,2,13)             117.8635         estimate D2E/DX2                !
 ! A4    A(2,3,4)              114.9952         estimate D2E/DX2                !
 ! A5    A(2,3,32)             108.8012         estimate D2E/DX2                !
 ! A6    A(2,3,33)             108.4224         estimate D2E/DX2                !
 ! A7    A(4,3,32)             107.4299         estimate D2E/DX2                !
 ! A8    A(4,3,33)             107.2033         estimate D2E/DX2                !
 ! A9    A(32,3,33)            109.927          estimate D2E/DX2                !
 ! A10   A(3,4,5)              123.2134         estimate D2E/DX2                !
 ! A11   A(3,4,12)             124.316          estimate D2E/DX2                !
 ! A12   A(5,4,12)             108.0291         estimate D2E/DX2                !
 ! A13   A(4,5,6)              112.3496         estimate D2E/DX2                !
 ! A14   A(5,6,7)              109.4469         estimate D2E/DX2                !
 ! A15   A(6,7,8)              133.3845         estimate D2E/DX2                !
 ! A16   A(6,7,12)             106.1161         estimate D2E/DX2                !
 ! A17   A(8,7,12)             120.4912         estimate D2E/DX2                !
 ! A18   A(7,8,9)              117.432          estimate D2E/DX2                !
 ! A19   A(7,8,34)             120.9768         estimate D2E/DX2                !
 ! A20   A(9,8,34)             121.5912         estimate D2E/DX2                !
 ! A21   A(8,9,10)             121.8359         estimate D2E/DX2                !
 ! A22   A(8,9,35)             119.2991         estimate D2E/DX2                !
 ! A23   A(10,9,35)            118.8651         estimate D2E/DX2                !
 ! A24   A(9,10,11)            122.1111         estimate D2E/DX2                !
 ! A25   A(9,10,36)            118.924          estimate D2E/DX2                !
 ! A26   A(11,10,36)           118.9648         estimate D2E/DX2                !
 ! A27   A(10,11,12)           116.9184         estimate D2E/DX2                !
 ! A28   A(10,11,37)           121.3752         estimate D2E/DX2                !
 ! A29   A(12,11,37)           121.7063         estimate D2E/DX2                !
 ! A30   A(4,12,7)             103.8386         estimate D2E/DX2                !
 ! A31   A(4,12,11)            134.8404         estimate D2E/DX2                !
 ! A32   A(7,12,11)            121.209          estimate D2E/DX2                !
 ! A33   A(2,13,14)            122.2365         estimate D2E/DX2                !
 ! A34   A(2,13,20)            119.952          estimate D2E/DX2                !
 ! A35   A(14,13,20)           117.3581         estimate D2E/DX2                !
 ! A36   A(13,14,15)           114.8037         estimate D2E/DX2                !
 ! A37   A(13,14,38)           109.9431         estimate D2E/DX2                !
 ! A38   A(13,14,39)           108.9897         estimate D2E/DX2                !
 ! A39   A(15,14,38)           107.0623         estimate D2E/DX2                !
 ! A40   A(15,14,39)           108.1542         estimate D2E/DX2                !
 ! A41   A(38,14,39)           107.6435         estimate D2E/DX2                !
 ! A42   A(14,15,16)           110.1742         estimate D2E/DX2                !
 ! A43   A(14,15,19)           112.6792         estimate D2E/DX2                !
 ! A44   A(14,15,40)           109.1566         estimate D2E/DX2                !
 ! A45   A(16,15,19)           105.1062         estimate D2E/DX2                !
 ! A46   A(16,15,40)           110.0619         estimate D2E/DX2                !
 ! A47   A(19,15,40)           109.5978         estimate D2E/DX2                !
 ! A48   A(15,16,17)           105.7405         estimate D2E/DX2                !
 ! A49   A(15,16,41)           111.6106         estimate D2E/DX2                !
 ! A50   A(15,16,42)           110.6655         estimate D2E/DX2                !
 ! A51   A(17,16,41)           110.5869         estimate D2E/DX2                !
 ! A52   A(17,16,42)           110.7085         estimate D2E/DX2                !
 ! A53   A(41,16,42)           107.5692         estimate D2E/DX2                !
 ! A54   A(16,17,18)           108.5474         estimate D2E/DX2                !
 ! A55   A(16,17,43)           112.6596         estimate D2E/DX2                !
 ! A56   A(16,17,44)           111.8037         estimate D2E/DX2                !
 ! A57   A(18,17,43)           106.178          estimate D2E/DX2                !
 ! A58   A(18,17,44)           107.7691         estimate D2E/DX2                !
 ! A59   A(43,17,44)           109.6052         estimate D2E/DX2                !
 ! A60   A(17,18,19)           110.0532         estimate D2E/DX2                !
 ! A61   A(15,19,18)           108.6533         estimate D2E/DX2                !
 ! A62   A(15,19,45)           111.2939         estimate D2E/DX2                !
 ! A63   A(15,19,46)           113.2071         estimate D2E/DX2                !
 ! A64   A(18,19,45)           107.7433         estimate D2E/DX2                !
 ! A65   A(18,19,46)           106.0537         estimate D2E/DX2                !
 ! A66   A(45,19,46)           109.6099         estimate D2E/DX2                !
 ! A67   A(13,20,21)           120.594          estimate D2E/DX2                !
 ! A68   A(13,20,25)           120.9413         estimate D2E/DX2                !
 ! A69   A(21,20,25)           118.4644         estimate D2E/DX2                !
 ! A70   A(20,21,22)           120.4982         estimate D2E/DX2                !
 ! A71   A(20,21,47)           120.7027         estimate D2E/DX2                !
 ! A72   A(22,21,47)           118.7977         estimate D2E/DX2                !
 ! A73   A(21,22,23)           120.9266         estimate D2E/DX2                !
 ! A74   A(21,22,48)           119.3289         estimate D2E/DX2                !
 ! A75   A(23,22,48)           119.7366         estimate D2E/DX2                !
 ! A76   A(22,23,24)           118.6955         estimate D2E/DX2                !
 ! A77   A(22,23,26)           120.5589         estimate D2E/DX2                !
 ! A78   A(24,23,26)           120.7449         estimate D2E/DX2                !
 ! A79   A(23,24,25)           121.0181         estimate D2E/DX2                !
 ! A80   A(23,24,49)           119.8143         estimate D2E/DX2                !
 ! A81   A(25,24,49)           119.1664         estimate D2E/DX2                !
 ! A82   A(20,25,24)           120.393          estimate D2E/DX2                !
 ! A83   A(20,25,50)           120.2431         estimate D2E/DX2                !
 ! A84   A(24,25,50)           119.3444         estimate D2E/DX2                !
 ! A85   A(23,26,27)           121.5833         estimate D2E/DX2                !
 ! A86   A(23,26,31)           120.7228         estimate D2E/DX2                !
 ! A87   A(27,26,31)           117.6937         estimate D2E/DX2                !
 ! A88   A(26,27,28)           119.2004         estimate D2E/DX2                !
 ! A89   A(26,27,51)           120.247          estimate D2E/DX2                !
 ! A90   A(28,27,51)           120.5514         estimate D2E/DX2                !
 ! A91   A(27,28,29)           118.5885         estimate D2E/DX2                !
 ! A92   A(27,28,52)           120.9926         estimate D2E/DX2                !
 ! A93   A(29,28,52)           120.4189         estimate D2E/DX2                !
 ! A94   A(28,29,30)           123.3225         estimate D2E/DX2                !
 ! A95   A(28,29,53)           120.973          estimate D2E/DX2                !
 ! A96   A(30,29,53)           115.7044         estimate D2E/DX2                !
 ! A97   A(29,30,31)           117.5101         estimate D2E/DX2                !
 ! A98   A(26,31,30)           123.6849         estimate D2E/DX2                !
 ! A99   A(26,31,54)           120.3804         estimate D2E/DX2                !
 ! A100  A(30,31,54)           115.9328         estimate D2E/DX2                !
 ! D1    D(1,2,3,4)              9.6613         estimate D2E/DX2                !
 ! D2    D(1,2,3,32)           130.1814         estimate D2E/DX2                !
 ! D3    D(1,2,3,33)          -110.2885         estimate D2E/DX2                !
 ! D4    D(13,2,3,4)          -170.834          estimate D2E/DX2                !
 ! D5    D(13,2,3,32)          -50.3139         estimate D2E/DX2                !
 ! D6    D(13,2,3,33)           69.2162         estimate D2E/DX2                !
 ! D7    D(1,2,13,14)          177.2195         estimate D2E/DX2                !
 ! D8    D(1,2,13,20)          -10.7138         estimate D2E/DX2                !
 ! D9    D(3,2,13,14)           -2.2854         estimate D2E/DX2                !
 ! D10   D(3,2,13,20)          169.7812         estimate D2E/DX2                !
 ! D11   D(2,3,4,5)             67.0704         estimate D2E/DX2                !
 ! D12   D(2,3,4,12)           -86.4094         estimate D2E/DX2                !
 ! D13   D(32,3,4,5)           -54.1995         estimate D2E/DX2                !
 ! D14   D(32,3,4,12)          152.3207         estimate D2E/DX2                !
 ! D15   D(33,3,4,5)          -172.3091         estimate D2E/DX2                !
 ! D16   D(33,3,4,12)           34.2111         estimate D2E/DX2                !
 ! D17   D(3,4,5,6)           -162.1608         estimate D2E/DX2                !
 ! D18   D(12,4,5,6)            -4.9807         estimate D2E/DX2                !
 ! D19   D(3,4,12,7)           161.1006         estimate D2E/DX2                !
 ! D20   D(3,4,12,11)          -22.8916         estimate D2E/DX2                !
 ! D21   D(5,4,12,7)             4.233          estimate D2E/DX2                !
 ! D22   D(5,4,12,11)         -179.7592         estimate D2E/DX2                !
 ! D23   D(4,5,6,7)              3.3942         estimate D2E/DX2                !
 ! D24   D(5,6,7,8)           -179.4493         estimate D2E/DX2                !
 ! D25   D(5,6,7,12)            -0.5257         estimate D2E/DX2                !
 ! D26   D(6,7,8,9)            179.1598         estimate D2E/DX2                !
 ! D27   D(6,7,8,34)            -0.8313         estimate D2E/DX2                !
 ! D28   D(12,7,8,9)             0.3599         estimate D2E/DX2                !
 ! D29   D(12,7,8,34)         -179.6311         estimate D2E/DX2                !
 ! D30   D(6,7,12,4)            -2.335          estimate D2E/DX2                !
 ! D31   D(6,7,12,11)         -179.0261         estimate D2E/DX2                !
 ! D32   D(8,7,12,4)           176.7571         estimate D2E/DX2                !
 ! D33   D(8,7,12,11)            0.066          estimate D2E/DX2                !
 ! D34   D(7,8,9,10)            -0.4312         estimate D2E/DX2                !
 ! D35   D(7,8,9,35)           179.5433         estimate D2E/DX2                !
 ! D36   D(34,8,9,10)          179.5598         estimate D2E/DX2                !
 ! D37   D(34,8,9,35)           -0.4657         estimate D2E/DX2                !
 ! D38   D(8,9,10,11)            0.0711         estimate D2E/DX2                !
 ! D39   D(8,9,10,36)          179.9717         estimate D2E/DX2                !
 ! D40   D(35,9,10,11)        -179.9036         estimate D2E/DX2                !
 ! D41   D(35,9,10,36)          -0.0029         estimate D2E/DX2                !
 ! D42   D(9,10,11,12)           0.3577         estimate D2E/DX2                !
 ! D43   D(9,10,11,37)        -179.7577         estimate D2E/DX2                !
 ! D44   D(36,10,11,12)       -179.5429         estimate D2E/DX2                !
 ! D45   D(36,10,11,37)          0.3417         estimate D2E/DX2                !
 ! D46   D(10,11,12,4)        -175.8868         estimate D2E/DX2                !
 ! D47   D(10,11,12,7)          -0.4201         estimate D2E/DX2                !
 ! D48   D(37,11,12,4)           4.229          estimate D2E/DX2                !
 ! D49   D(37,11,12,7)         179.6957         estimate D2E/DX2                !
 ! D50   D(2,13,14,15)        -135.6753         estimate D2E/DX2                !
 ! D51   D(2,13,14,38)         -14.9091         estimate D2E/DX2                !
 ! D52   D(2,13,14,39)         102.8562         estimate D2E/DX2                !
 ! D53   D(20,13,14,15)         52.0629         estimate D2E/DX2                !
 ! D54   D(20,13,14,38)        172.8291         estimate D2E/DX2                !
 ! D55   D(20,13,14,39)        -69.4056         estimate D2E/DX2                !
 ! D56   D(2,13,20,21)        -132.7196         estimate D2E/DX2                !
 ! D57   D(2,13,20,25)          47.4692         estimate D2E/DX2                !
 ! D58   D(14,13,20,21)         39.7271         estimate D2E/DX2                !
 ! D59   D(14,13,20,25)       -140.084          estimate D2E/DX2                !
 ! D60   D(13,14,15,16)       -174.9608         estimate D2E/DX2                !
 ! D61   D(13,14,15,19)         68.0099         estimate D2E/DX2                !
 ! D62   D(13,14,15,40)        -53.9956         estimate D2E/DX2                !
 ! D63   D(38,14,15,16)         62.7028         estimate D2E/DX2                !
 ! D64   D(38,14,15,19)        -54.3265         estimate D2E/DX2                !
 ! D65   D(38,14,15,40)       -176.332          estimate D2E/DX2                !
 ! D66   D(39,14,15,16)        -53.0376         estimate D2E/DX2                !
 ! D67   D(39,14,15,19)       -170.0669         estimate D2E/DX2                !
 ! D68   D(39,14,15,40)         67.9275         estimate D2E/DX2                !
 ! D69   D(14,15,16,17)       -121.4842         estimate D2E/DX2                !
 ! D70   D(14,15,16,41)         -1.1793         estimate D2E/DX2                !
 ! D71   D(14,15,16,42)        118.5844         estimate D2E/DX2                !
 ! D72   D(19,15,16,17)          0.1608         estimate D2E/DX2                !
 ! D73   D(19,15,16,41)        120.4656         estimate D2E/DX2                !
 ! D74   D(19,15,16,42)       -119.7706         estimate D2E/DX2                !
 ! D75   D(40,15,16,17)        118.094          estimate D2E/DX2                !
 ! D76   D(40,15,16,41)       -121.6011         estimate D2E/DX2                !
 ! D77   D(40,15,16,42)         -1.8373         estimate D2E/DX2                !
 ! D78   D(14,15,19,18)        111.6398         estimate D2E/DX2                !
 ! D79   D(14,15,19,45)       -129.8843         estimate D2E/DX2                !
 ! D80   D(14,15,19,46)         -5.8958         estimate D2E/DX2                !
 ! D81   D(16,15,19,18)         -8.3573         estimate D2E/DX2                !
 ! D82   D(16,15,19,45)        110.1186         estimate D2E/DX2                !
 ! D83   D(16,15,19,46)       -125.8929         estimate D2E/DX2                !
 ! D84   D(40,15,19,18)       -126.6042         estimate D2E/DX2                !
 ! D85   D(40,15,19,45)         -8.1283         estimate D2E/DX2                !
 ! D86   D(40,15,19,46)        115.8603         estimate D2E/DX2                !
 ! D87   D(15,16,17,18)          8.0822         estimate D2E/DX2                !
 ! D88   D(15,16,17,43)        125.3751         estimate D2E/DX2                !
 ! D89   D(15,16,17,44)       -110.6637         estimate D2E/DX2                !
 ! D90   D(41,16,17,18)       -112.8895         estimate D2E/DX2                !
 ! D91   D(41,16,17,43)          4.4034         estimate D2E/DX2                !
 ! D92   D(41,16,17,44)        128.3646         estimate D2E/DX2                !
 ! D93   D(42,16,17,18)        127.9854         estimate D2E/DX2                !
 ! D94   D(42,16,17,43)       -114.7217         estimate D2E/DX2                !
 ! D95   D(42,16,17,44)          9.2395         estimate D2E/DX2                !
 ! D96   D(16,17,18,19)        -13.8511         estimate D2E/DX2                !
 ! D97   D(43,17,18,19)       -135.2137         estimate D2E/DX2                !
 ! D98   D(44,17,18,19)        107.4091         estimate D2E/DX2                !
 ! D99   D(17,18,19,15)         13.9758         estimate D2E/DX2                !
 ! D100  D(17,18,19,45)       -106.7176         estimate D2E/DX2                !
 ! D101  D(17,18,19,46)        135.9759         estimate D2E/DX2                !
 ! D102  D(13,20,21,22)       -179.1925         estimate D2E/DX2                !
 ! D103  D(13,20,21,47)          1.2456         estimate D2E/DX2                !
 ! D104  D(25,20,21,22)          0.6233         estimate D2E/DX2                !
 ! D105  D(25,20,21,47)       -178.9386         estimate D2E/DX2                !
 ! D106  D(13,20,25,24)        179.6114         estimate D2E/DX2                !
 ! D107  D(13,20,25,50)         -2.0061         estimate D2E/DX2                !
 ! D108  D(21,20,25,24)         -0.2037         estimate D2E/DX2                !
 ! D109  D(21,20,25,50)        178.1788         estimate D2E/DX2                !
 ! D110  D(20,21,22,23)         -0.4564         estimate D2E/DX2                !
 ! D111  D(20,21,22,48)       -179.4298         estimate D2E/DX2                !
 ! D112  D(47,21,22,23)        179.1137         estimate D2E/DX2                !
 ! D113  D(47,21,22,48)          0.1404         estimate D2E/DX2                !
 ! D114  D(21,22,23,24)         -0.1387         estimate D2E/DX2                !
 ! D115  D(21,22,23,26)       -179.8264         estimate D2E/DX2                !
 ! D116  D(48,22,23,24)        178.8305         estimate D2E/DX2                !
 ! D117  D(48,22,23,26)         -0.8572         estimate D2E/DX2                !
 ! D118  D(22,23,24,25)          0.5632         estimate D2E/DX2                !
 ! D119  D(22,23,24,49)       -179.8356         estimate D2E/DX2                !
 ! D120  D(26,23,24,25)       -179.7497         estimate D2E/DX2                !
 ! D121  D(26,23,24,49)         -0.1485         estimate D2E/DX2                !
 ! D122  D(22,23,26,27)        -38.6661         estimate D2E/DX2                !
 ! D123  D(22,23,26,31)        141.1784         estimate D2E/DX2                !
 ! D124  D(24,23,26,27)        141.6527         estimate D2E/DX2                !
 ! D125  D(24,23,26,31)        -38.5028         estimate D2E/DX2                !
 ! D126  D(23,24,25,20)         -0.3912         estimate D2E/DX2                !
 ! D127  D(23,24,25,50)       -178.7882         estimate D2E/DX2                !
 ! D128  D(49,24,25,20)       -179.9949         estimate D2E/DX2                !
 ! D129  D(49,24,25,50)          1.6081         estimate D2E/DX2                !
 ! D130  D(23,26,27,28)        179.8679         estimate D2E/DX2                !
 ! D131  D(23,26,27,51)         -0.5287         estimate D2E/DX2                !
 ! D132  D(31,26,27,28)          0.0189         estimate D2E/DX2                !
 ! D133  D(31,26,27,51)        179.6223         estimate D2E/DX2                !
 ! D134  D(23,26,31,30)       -179.895          estimate D2E/DX2                !
 ! D135  D(23,26,31,54)         -0.4184         estimate D2E/DX2                !
 ! D136  D(27,26,31,30)         -0.0446         estimate D2E/DX2                !
 ! D137  D(27,26,31,54)        179.432          estimate D2E/DX2                !
 ! D138  D(26,27,28,29)          0.0018         estimate D2E/DX2                !
 ! D139  D(26,27,28,52)        179.9403         estimate D2E/DX2                !
 ! D140  D(51,27,28,29)       -179.6004         estimate D2E/DX2                !
 ! D141  D(51,27,28,52)          0.3381         estimate D2E/DX2                !
 ! D142  D(27,28,29,30)         -0.0004         estimate D2E/DX2                !
 ! D143  D(27,28,29,53)       -179.9259         estimate D2E/DX2                !
 ! D144  D(52,28,29,30)       -179.9392         estimate D2E/DX2                !
 ! D145  D(52,28,29,53)          0.1353         estimate D2E/DX2                !
 ! D146  D(28,29,30,31)         -0.0228         estimate D2E/DX2                !
 ! D147  D(53,29,30,31)        179.9063         estimate D2E/DX2                !
 ! D148  D(29,30,31,26)          0.0459         estimate D2E/DX2                !
 ! D149  D(29,30,31,54)       -179.452          estimate D2E/DX2                !
 --------------------------------------------------------------------------------
 Trust Radius=3.00D-01 FncErr=1.00D-07 GrdErr=1.00D-07
 Number of steps in this run=    317 maximum allowed number of steps=    324.
 GradGradGradGradGradGradGradGradGradGradGradGradGradGradGradGradGradGrad

 Leave Link  103 at Sat Aug 27 01:48:03 2022, MaxMem=  209715200 cpu:       0.1
 (Enter /opt/gaussian/l202.exe)
 Stoichiometry    C24H23N5O2
 Framework group  C1[X(C24H23N5O2)]
 Deg. of freedom   156
 Full point group                 C1      NOp   1
 Largest Abelian subgroup         C1      NOp   1
 Largest concise Abelian subgroup C1      NOp   1
                         Standard orientation:                         
 ---------------------------------------------------------------------
 Center     Atomic      Atomic             Coordinates (Angstroms)
 Number     Number       Type             X           Y           Z
 ---------------------------------------------------------------------
      1          8           0        1.225694   -1.268740   -0.123527
      2          6           0        1.352047   -0.098135   -0.517250
      3          6           0        2.725101    0.452864   -0.947184
      4          7           0        3.767058   -0.533216   -1.062564
      5          7           0        3.765897   -1.523666   -2.019839
      6          7           0        4.543325   -2.464119   -1.733511
      7          6           0        5.125776   -2.226596   -0.444301
      8          6           0        6.043004   -2.928556    0.335947
      9          6           0        6.400392   -2.373077    1.560977
     10          6           0        5.871987   -1.149250    2.001555
     11          6           0        4.960643   -0.420853    1.242687
     12          6           0        4.582951   -0.965397    0.015846
     13          7           0        0.254270    0.765665   -0.574614
     14          6           0        0.382036    2.150421   -0.972808
     15          6           0       -0.390920    3.145556   -0.097919
     16          6           0       -0.285103    4.556054   -0.683150
     17          6           0        0.344263    5.412122    0.411462
     18          8           0        0.765008    4.553655    1.474828
     19          6           0        0.182678    3.256748    1.317742
     20          6           0       -1.061989    0.254229   -0.400174
     21          6           0       -2.097737    0.616498   -1.289621
     22          6           0       -3.386091    0.129145   -1.107657
     23          6           0       -3.685364   -0.737185   -0.047621
     24          6           0       -2.657248   -1.108053    0.828810
     25          6           0       -1.365091   -0.621390    0.664346
     26          6           0       -5.037735   -1.246194    0.133383
     27          6           0       -6.162934   -0.439534   -0.093452
     28          6           0       -7.435320   -0.978918    0.092467
     29          6           0       -7.544526   -2.319609    0.502987
     30          7           0       -6.479424   -3.114347    0.727235
     31          6           0       -5.258444   -2.582654    0.544026
     32          1           0        2.617974    0.951186   -1.954698
     33          1           0        3.062911    1.206871   -0.179352
     34          1           0        6.464710   -3.883702   -0.008271
     35          1           0        7.116754   -2.905388    2.205377
     36          1           0        6.187778   -0.754025    2.979818
     37          1           0        4.558130    0.536773    1.597197
     38          1           0        1.464809    2.459257   -0.946886
     39          1           0        0.019479    2.261890   -2.037239
     40          1           0       -1.467452    2.830435   -0.044463
     41          1           0        0.345457    4.572579   -1.606682
     42          1           0       -1.295619    4.945908   -0.957677
     43          1           0        1.262064    5.950697    0.063646
     44          1           0       -0.385966    6.148706    0.835232
     45          1           0       -0.620071    3.146784    2.091896
     46          1           0        1.002886    2.522590    1.520209
     47          1           0       -1.898574    1.283089   -2.142447
     48          1           0       -4.176734    0.416456   -1.818044
     49          1           0       -2.871359   -1.790289    1.666757
     50          1           0       -0.572827   -0.947069    1.358091
     51          1           0       -6.039898    0.607362   -0.407742
     52          1           0       -8.335755   -0.374035   -0.075644
     53          1           0       -8.532607   -2.786983    0.660870
     54          1           0       -4.403830   -3.260026    0.726126
 ---------------------------------------------------------------------
 Rotational constants (GHZ):      0.1926108      0.0685254      0.0552068
 Leave Link  202 at Sat Aug 27 01:48:03 2022, MaxMem=  209715200 cpu:       0.0
 (Enter /opt/gaussian/l301.exe)
 Standard basis: 6-31G (6D, 7F)
 Ernie: Thresh=  0.10000D-02 Tol=  0.10000D-05 Strict=F.
 There are   325 symmetry adapted basis functions of A   symmetry.
 Integral buffers will be    131072 words long.
 Raffenetti 1 integral format.
 Two-electron integral symmetry is turned on.
   325 basis functions,   774 primitive gaussians,   325 cartesian basis functions
   109 alpha electrons      109 beta electrons
       nuclear repulsion energy      2802.1618482392 Hartrees.
 IExCor=    0 DFT=F Ex=HF Corr=None ExCW=0 ScaHFX=  1.000000
 ScaDFX=  1.000000  1.000000  1.000000  1.000000 ScalE2=  1.000000  1.000000
 IRadAn=      0 IRanWt=     -1 IRanGd=            0 ICorTp=0
 NAtoms=   54 NActive=   54 NUniq=   54 SFac= 1.00D+00 NAtFMM=   60 NAOKFM=F Big=F
 Leave Link  301 at Sat Aug 27 01:48:03 2022, MaxMem=  209715200 cpu:       0.2
 (Enter /opt/gaussian/l302.exe)
 NPDir=0 NMtPBC=     1 NCelOv=     1 NCel=       1 NClECP=     1 NCelD=      1
         NCelK=      1 NCelE2=     1 NClLst=     1 CellRange=     0.0.
 One-electron integrals computed using PRISM.
 NBasis=   325 RedAO= T  NBF=   325
 NBsUse=   325 1.00D-06 NBFU=   325
 Leave Link  302 at Sat Aug 27 01:48:03 2022, MaxMem=  209715200 cpu:       1.9
 (Enter /opt/gaussian/l303.exe)
 DipDrv:  MaxL=1.
 Leave Link  303 at Sat Aug 27 01:48:03 2022, MaxMem=  209715200 cpu:       0.4
 (Enter /opt/gaussian/l401.exe)
 Harris functional with IExCor=  205 diagonalized for initial guess.
 ExpMin= 1.61D-01 ExpMax= 5.48D+03 ExpMxC= 8.25D+02 IAcc=1 IRadAn=         1 AccDes= 0.00D+00
 HarFok:  IExCor=  205 AccDes= 0.00D+00 IRadAn=         1 IDoV= 1
 ScaDFX=  1.000000  1.000000  1.000000  1.000000
 FoFCou: FMM=F IPFlag=           0 FMFlag=      100000 FMFlg1=           0
         NFxFlg=           0 DoJE=T BraDBF=F KetDBF=T FulRan=T
         Omega=  0.000000  0.000000  1.000000  0.000000  0.000000 ICntrl=     500 IOpCl=  0
         NMat0=    1 NMatS0=    1 NMatT0=    0 NMatD0=    1 NMtDS0=    0 NMtDT0=    0
         I1Cent=           4 NGrid=           0.
 Petite list used in FoFCou.
 Harris En= -1345.18497777883    
 Initial guess orbital symmetries:
       Occupied  (A) (A) (A) (A) (A) (A) (A) (A) (A) (A) (A) (A)
                 (A) (A) (A) (A) (A) (A) (A) (A) (A) (A) (A) (A)
                 (A) (A) (A) (A) (A) (A) (A) (A) (A) (A) (A) (A)
                 (A) (A) (A) (A) (A) (A) (A) (A) (A) (A) (A) (A)
                 (A) (A) (A) (A) (A) (A) (A) (A) (A) (A) (A) (A)
                 (A) (A) (A) (A) (A) (A) (A) (A) (A) (A) (A) (A)
                 (A) (A) (A) (A) (A) (A) (A) (A) (A) (A) (A) (A)
                 (A) (A) (A) (A) (A) (A) (A) (A) (A) (A) (A) (A)
                 (A) (A) (A) (A) (A) (A) (A) (A) (A) (A) (A) (A)
                 (A)
       Virtual   (A) (A) (A) (A) (A) (A) (A) (A) (A) (A) (A) (A)
                 (A) (A) (A) (A) (A) (A) (A) (A) (A) (A) (A) (A)
                 (A) (A) (A) (A) (A) (A) (A) (A) (A) (A) (A) (A)
                 (A) (A) (A) (A) (A) (A) (A) (A) (A) (A) (A) (A)
                 (A) (A) (A) (A) (A) (A) (A) (A) (A) (A) (A) (A)
                 (A) (A) (A) (A) (A) (A) (A) (A) (A) (A) (A) (A)
                 (A) (A) (A) (A) (A) (A) (A) (A) (A) (A) (A) (A)
                 (A) (A) (A) (A) (A) (A) (A) (A) (A) (A) (A) (A)
                 (A) (A) (A) (A) (A) (A) (A) (A) (A) (A) (A) (A)
                 (A) (A) (A) (A) (A) (A) (A) (A) (A) (A) (A) (A)
                 (A) (A) (A) (A) (A) (A) (A) (A) (A) (A) (A) (A)
                 (A) (A) (A) (A) (A) (A) (A) (A) (A) (A) (A) (A)
                 (A) (A) (A) (A) (A) (A) (A) (A) (A) (A) (A) (A)
                 (A) (A) (A) (A) (A) (A) (A) (A) (A) (A) (A) (A)
                 (A) (A) (A) (A) (A) (A) (A) (A) (A) (A) (A) (A)
                 (A) (A) (A) (A) (A) (A) (A) (A) (A) (A) (A) (A)
                 (A) (A) (A) (A) (A) (A) (A) (A) (A) (A) (A) (A)
                 (A) (A) (A) (A) (A) (A) (A) (A) (A) (A) (A) (A)
 The electronic state of the initial guess is 1-A.
 Leave Link  401 at Sat Aug 27 01:48:03 2022, MaxMem=  209715200 cpu:       4.5
 (Enter /opt/gaussian/l502.exe)
 Closed shell SCF:
 Requested convergence on RMS density matrix=1.00D-08 within 128 cycles.
 Requested convergence on MAX density matrix=1.00D-06.
 Requested convergence on             energy=1.00D-06.
 No special actions if energy rises.
 Using DIIS extrapolation, IDIIS=  1040.
 Integral symmetry usage will be decided dynamically.
 IEnd=      340143 IEndB=      340143 NGot=   209715200 MDV=   209497648
 LenX=   209497648 LenY=   209391582
 Fock matrices will be formed incrementally for  20 cycles.
 Integral accuracy reduced to 1.0D-05 until final iterations.

 Cycle   1  Pass 0  IDiag  1:
 FoFCou: FMM=F IPFlag=           0 FMFlag=      100000 FMFlg1=           0
         NFxFlg=           0 DoJE=F BraDBF=F KetDBF=F FulRan=T
         Omega=  0.000000  0.000000  1.000000  0.000000  0.000000 ICntrl=       0 IOpCl=  0
         NMat0=    1 NMatS0=    1 NMatT0=    0 NMatD0=    1 NMtDS0=    0 NMtDT0=    0
         I1Cent=           0 NGrid=           0.
 Symmetry not used in FoFCou.
 E= -1342.67899510861    
 DIIS: error= 3.71D-02 at cycle   1 NSaved=   1.
 NSaved= 1 IEnMin= 1 EnMin= -1342.67899510861     IErMin= 1 ErrMin= 3.71D-02
 ErrMax= 3.71D-02 EMaxC= 1.00D-01 BMatC= 1.01D+00 BMatP= 1.01D+00
 IDIUse=3 WtCom= 6.29D-01 WtEn= 3.71D-01
 Coeff-Com:  0.100D+01
 Coeff-En:   0.100D+01
 Coeff:      0.100D+01
 Gap=     0.508 Goal=   None    Shift=    0.000
 GapD=    0.508 DampG=2.000 DampE=0.500 DampFc=1.0000 IDamp=-1.
 RMSDP=5.46D-03 MaxDP=1.71D-01              OVMax= 1.67D-01

 Cycle   2  Pass 0  IDiag  1:
 RMSU=  3.83D-03    CP:  9.70D-01
 E= -1343.35838058396     Delta-E=       -0.679385475346 Rises=F Damp=F
 DIIS: error= 2.28D-02 at cycle   2 NSaved=   2.
 NSaved= 2 IEnMin= 2 EnMin= -1343.35838058396     IErMin= 2 ErrMin= 2.28D-02
 ErrMax= 2.28D-02 EMaxC= 1.00D-01 BMatC= 1.77D-01 BMatP= 1.01D+00
 IDIUse=3 WtCom= 7.72D-01 WtEn= 2.28D-01
 Coeff-Com:  0.242D+00 0.758D+00
 Coeff-En:   0.000D+00 0.100D+01
 Coeff:      0.187D+00 0.813D+00
 Gap=     0.440 Goal=   None    Shift=    0.000
 RMSDP=2.36D-03 MaxDP=9.29D-02 DE=-6.79D-01 OVMax= 1.04D-01

 Cycle   3  Pass 0  IDiag  1:
 RMSU=  1.43D-03    CP:  9.69D-01  7.79D-01
 E= -1343.49548054298     Delta-E=       -0.137099959017 Rises=F Damp=F
 DIIS: error= 1.17D-02 at cycle   3 NSaved=   3.
 NSaved= 3 IEnMin= 3 EnMin= -1343.49548054298     IErMin= 3 ErrMin= 1.17D-02
 ErrMax= 1.17D-02 EMaxC= 1.00D-01 BMatC= 3.23D-02 BMatP= 1.77D-01
 IDIUse=3 WtCom= 8.83D-01 WtEn= 1.17D-01
 Coeff-Com:  0.702D-02 0.287D+00 0.706D+00
 Coeff-En:   0.000D+00 0.000D+00 0.100D+01
 Coeff:      0.620D-02 0.253D+00 0.741D+00
 Gap=     0.394 Goal=   None    Shift=    0.000
 RMSDP=8.19D-04 MaxDP=3.54D-02 DE=-1.37D-01 OVMax= 3.73D-02

 Cycle   4  Pass 0  IDiag  1:
 RMSU=  3.33D-04    CP:  9.70D-01  8.78D-01  8.02D-01
 E= -1343.52348502731     Delta-E=       -0.028004484335 Rises=F Damp=F
 DIIS: error= 3.58D-03 at cycle   4 NSaved=   4.
 NSaved= 4 IEnMin= 4 EnMin= -1343.52348502731     IErMin= 4 ErrMin= 3.58D-03
 ErrMax= 3.58D-03 EMaxC= 1.00D-01 BMatC= 2.92D-03 BMatP= 3.23D-02
 IDIUse=3 WtCom= 9.64D-01 WtEn= 3.58D-02
 Coeff-Com: -0.134D-01 0.275D-01 0.272D+00 0.714D+00
 Coeff-En:   0.000D+00 0.000D+00 0.000D+00 0.100D+01
 Coeff:     -0.129D-01 0.265D-01 0.262D+00 0.725D+00
 Gap=     0.390 Goal=   None    Shift=    0.000
 RMSDP=2.55D-04 MaxDP=1.01D-02 DE=-2.80D-02 OVMax= 9.24D-03

 Cycle   5  Pass 0  IDiag  1:
 RMSU=  1.07D-04    CP:  9.68D-01  8.70D-01  8.86D-01  7.83D-01
 E= -1343.52619365784     Delta-E=       -0.002708630534 Rises=F Damp=F
 DIIS: error= 9.36D-04 at cycle   5 NSaved=   5.
 NSaved= 5 IEnMin= 5 EnMin= -1343.52619365784     IErMin= 5 ErrMin= 9.36D-04
 ErrMax= 9.36D-04 EMaxC= 1.00D-01 BMatC= 8.31D-05 BMatP= 2.92D-03
 IDIUse=3 WtCom= 9.91D-01 WtEn= 9.36D-03
 Coeff-Com: -0.110D-02-0.138D-01-0.174D-01 0.524D-01 0.980D+00
 Coeff-En:   0.000D+00 0.000D+00 0.000D+00 0.000D+00 0.100D+01
 Coeff:     -0.109D-02-0.137D-01-0.172D-01 0.519D-01 0.980D+00
 Gap=     0.390 Goal=   None    Shift=    0.000
 RMSDP=7.21D-05 MaxDP=2.10D-03 DE=-2.71D-03 OVMax= 5.34D-03

 Cycle   6  Pass 0  IDiag  1:
 RMSU=  3.79D-05    CP:  9.68D-01  8.70D-01  9.02D-01  8.33D-01  1.18D+00
 E= -1343.52641267190     Delta-E=       -0.000219014059 Rises=F Damp=F
 DIIS: error= 3.05D-04 at cycle   6 NSaved=   6.
 NSaved= 6 IEnMin= 6 EnMin= -1343.52641267190     IErMin= 6 ErrMin= 3.05D-04
 ErrMax= 3.05D-04 EMaxC= 1.00D-01 BMatC= 2.25D-05 BMatP= 8.31D-05
 IDIUse=3 WtCom= 9.97D-01 WtEn= 3.05D-03
 Coeff-Com:  0.229D-02-0.754D-02-0.504D-01-0.140D+00 0.164D+00 0.103D+01
 Coeff-En:   0.000D+00 0.000D+00 0.000D+00 0.000D+00 0.000D+00 0.100D+01
 Coeff:      0.229D-02-0.752D-02-0.502D-01-0.140D+00 0.163D+00 0.103D+01
 Gap=     0.391 Goal=   None    Shift=    0.000
 RMSDP=4.69D-05 MaxDP=1.58D-03 DE=-2.19D-04 OVMax= 3.01D-03

 Cycle   7  Pass 0  IDiag  1:
 RMSU=  1.47D-05    CP:  9.68D-01  8.69D-01  9.12D-01  8.43D-01  1.41D+00
                    CP:  1.18D+00
 E= -1343.52647962020     Delta-E=       -0.000066948293 Rises=F Damp=F
 DIIS: error= 1.90D-04 at cycle   7 NSaved=   7.
 NSaved= 7 IEnMin= 7 EnMin= -1343.52647962020     IErMin= 7 ErrMin= 1.90D-04
 ErrMax= 1.90D-04 EMaxC= 1.00D-01 BMatC= 2.84D-06 BMatP= 2.25D-05
 IDIUse=3 WtCom= 9.98D-01 WtEn= 1.90D-03
 Coeff-Com: -0.632D-04 0.219D-02 0.820D-02-0.987D-03-0.118D+00-0.104D+00
 Coeff-Com:  0.121D+01
 Coeff-En:   0.000D+00 0.000D+00 0.000D+00 0.000D+00 0.000D+00 0.000D+00
 Coeff-En:   0.100D+01
 Coeff:     -0.631D-04 0.219D-02 0.819D-02-0.985D-03-0.118D+00-0.104D+00
 Coeff:      0.121D+01
 Gap=     0.391 Goal=   None    Shift=    0.000
 RMSDP=1.89D-05 MaxDP=7.17D-04 DE=-6.69D-05 OVMax= 1.64D-03

 Cycle   8  Pass 0  IDiag  1:
 RMSU=  5.60D-06    CP:  9.68D-01  8.68D-01  9.13D-01  8.43D-01  1.48D+00
                    CP:  1.35D+00  1.41D+00
 E= -1343.52649034094     Delta-E=       -0.000010720748 Rises=F Damp=F
 DIIS: error= 7.10D-05 at cycle   8 NSaved=   8.
 NSaved= 8 IEnMin= 8 EnMin= -1343.52649034094     IErMin= 8 ErrMin= 7.10D-05
 ErrMax= 7.10D-05 EMaxC= 1.00D-01 BMatC= 6.49D-07 BMatP= 2.84D-06
 IDIUse=1 WtCom= 1.00D+00 WtEn= 0.00D+00
 Coeff-Com: -0.515D-03 0.231D-02 0.141D-01 0.286D-01-0.611D-01-0.262D+00
 Coeff-Com:  0.326D+00 0.952D+00
 Coeff:     -0.515D-03 0.231D-02 0.141D-01 0.286D-01-0.611D-01-0.262D+00
 Coeff:      0.326D+00 0.952D+00
 Gap=     0.391 Goal=   None    Shift=    0.000
 RMSDP=7.74D-06 MaxDP=1.99D-04 DE=-1.07D-05 OVMax= 6.51D-04

 Initial convergence to 1.0D-05 achieved.  Increase integral accuracy.
 Cycle   9  Pass 1  IDiag  1:
 E= -1343.52649562606     Delta-E=       -0.000005285116 Rises=F Damp=F
 DIIS: error= 8.88D-05 at cycle   1 NSaved=   1.
 NSaved= 1 IEnMin= 1 EnMin= -1343.52649562606     IErMin= 1 ErrMin= 8.88D-05
 ErrMax= 8.88D-05 EMaxC= 1.00D-01 BMatC= 1.29D-06 BMatP= 1.29D-06
 IDIUse=1 WtCom= 1.00D+00 WtEn= 0.00D+00
 Coeff-Com:  0.100D+01
 Coeff:      0.100D+01
 Gap=     0.391 Goal=   None    Shift=    0.000
 RMSDP=7.74D-06 MaxDP=1.99D-04 DE=-5.29D-06 OVMax= 1.94D-04

 Cycle  10  Pass 1  IDiag  1:
 RMSU=  3.54D-05    CP:  1.00D+00
 E= -1343.52649702048     Delta-E=       -0.000001394418 Rises=F Damp=F
 DIIS: error= 1.75D-05 at cycle   2 NSaved=   2.
 NSaved= 2 IEnMin= 2 EnMin= -1343.52649702048     IErMin= 2 ErrMin= 1.75D-05
 ErrMax= 1.75D-05 EMaxC= 1.00D-01 BMatC= 3.62D-08 BMatP= 1.29D-06
 IDIUse=1 WtCom= 1.00D+00 WtEn= 0.00D+00
 Coeff-Com: -0.252D-01 0.103D+01
 Coeff:     -0.252D-01 0.103D+01
 Gap=     0.391 Goal=   None    Shift=    0.000
 RMSDP=3.02D-06 MaxDP=5.65D-05 DE=-1.39D-06 OVMax= 1.25D-04

 Cycle  11  Pass 1  IDiag  1:
 RMSU=  1.03D-06    CP:  1.00D+00  1.05D+00
 E= -1343.52649710949     Delta-E=       -0.000000089012 Rises=F Damp=F
 DIIS: error= 1.24D-05 at cycle   3 NSaved=   3.
 NSaved= 3 IEnMin= 3 EnMin= -1343.52649710949     IErMin= 3 ErrMin= 1.24D-05
 ErrMax= 1.24D-05 EMaxC= 1.00D-01 BMatC= 1.93D-08 BMatP= 3.62D-08
 IDIUse=1 WtCom= 1.00D+00 WtEn= 0.00D+00
 Coeff-Com: -0.290D-01 0.379D+00 0.650D+00
 Coeff:     -0.290D-01 0.379D+00 0.650D+00
 Gap=     0.391 Goal=   None    Shift=    0.000
 RMSDP=5.96D-07 MaxDP=2.24D-05 DE=-8.90D-08 OVMax= 5.66D-05

 Cycle  12  Pass 1  IDiag  1:
 RMSU=  4.10D-07    CP:  1.00D+00  1.06D+00  1.00D+00
 E= -1343.52649714302     Delta-E=       -0.000000033529 Rises=F Damp=F
 DIIS: error= 7.22D-06 at cycle   4 NSaved=   4.
 NSaved= 4 IEnMin= 4 EnMin= -1343.52649714302     IErMin= 4 ErrMin= 7.22D-06
 ErrMax= 7.22D-06 EMaxC= 1.00D-01 BMatC= 4.77D-09 BMatP= 1.93D-08
 IDIUse=1 WtCom= 1.00D+00 WtEn= 0.00D+00
 Coeff-Com:  0.288D-01-0.666D+00-0.397D+00 0.204D+01
 Coeff:      0.288D-01-0.666D+00-0.397D+00 0.204D+01
 Gap=     0.391 Goal=   None    Shift=    0.000
 RMSDP=1.08D-06 MaxDP=2.42D-05 DE=-3.35D-08 OVMax= 1.43D-04

 Cycle  13  Pass 1  IDiag  1:
 RMSU=  3.05D-07    CP:  1.00D+00  1.06D+00  1.51D+00  2.12D+00
 E= -1343.52649717562     Delta-E=       -0.000000032596 Rises=F Damp=F
 DIIS: error= 1.72D-06 at cycle   5 NSaved=   5.
 NSaved= 5 IEnMin= 5 EnMin= -1343.52649717562     IErMin= 5 ErrMin= 1.72D-06
 ErrMax= 1.72D-06 EMaxC= 1.00D-01 BMatC= 3.18D-10 BMatP= 4.77D-09
 IDIUse=1 WtCom= 1.00D+00 WtEn= 0.00D+00
 Coeff-Com:  0.920D-02-0.186D+00-0.134D+00 0.448D+00 0.863D+00
 Coeff:      0.920D-02-0.186D+00-0.134D+00 0.448D+00 0.863D+00
 Gap=     0.391 Goal=   None    Shift=    0.000
 RMSDP=1.77D-07 MaxDP=4.19D-06 DE=-3.26D-08 OVMax= 2.35D-05

 Cycle  14  Pass 1  IDiag  1:
 RMSU=  6.79D-08    CP:  1.00D+00  1.06D+00  1.56D+00  2.29D+00  1.19D+00
 E= -1343.52649717675     Delta-E=       -0.000000001131 Rises=F Damp=F
 DIIS: error= 6.26D-07 at cycle   6 NSaved=   6.
 NSaved= 6 IEnMin= 6 EnMin= -1343.52649717675     IErMin= 6 ErrMin= 6.26D-07
 ErrMax= 6.26D-07 EMaxC= 1.00D-01 BMatC= 5.54D-11 BMatP= 3.18D-10
 IDIUse=1 WtCom= 1.00D+00 WtEn= 0.00D+00
 Coeff-Com: -0.416D-02 0.982D-01 0.683D-01-0.332D+00 0.730D-01 0.110D+01
 Coeff:     -0.416D-02 0.982D-01 0.683D-01-0.332D+00 0.730D-01 0.110D+01
 Gap=     0.391 Goal=   None    Shift=    0.000
 RMSDP=8.10D-08 MaxDP=1.55D-06 DE=-1.13D-09 OVMax= 9.80D-06

 Cycle  15  Pass 1  IDiag  1:
 RMSU=  3.03D-08    CP:  1.00D+00  1.06D+00  1.57D+00  2.35D+00  1.32D+00
                    CP:  1.16D+00
 E= -1343.52649717698     Delta-E=       -0.000000000229 Rises=F Damp=F
 DIIS: error= 2.17D-07 at cycle   7 NSaved=   7.
 NSaved= 7 IEnMin= 7 EnMin= -1343.52649717698     IErMin= 7 ErrMin= 2.17D-07
 ErrMax= 2.17D-07 EMaxC= 1.00D-01 BMatC= 8.51D-12 BMatP= 5.54D-11
 IDIUse=1 WtCom= 1.00D+00 WtEn= 0.00D+00
 Coeff-Com: -0.136D-02 0.281D-01 0.260D-01-0.796D-01-0.108D+00 0.710D-01
 Coeff-Com:  0.106D+01
 Coeff:     -0.136D-02 0.281D-01 0.260D-01-0.796D-01-0.108D+00 0.710D-01
 Coeff:      0.106D+01
 Gap=     0.391 Goal=   None    Shift=    0.000
 RMSDP=2.59D-08 MaxDP=7.55D-07 DE=-2.29D-10 OVMax= 2.69D-06

 Cycle  16  Pass 1  IDiag  1:
 RMSU=  1.12D-08    CP:  1.00D+00  1.06D+00  1.57D+00  2.35D+00  1.33D+00
                    CP:  1.31D+00  1.27D+00
 E= -1343.52649717704     Delta-E=       -0.000000000065 Rises=F Damp=F
 DIIS: error= 1.04D-07 at cycle   8 NSaved=   8.
 NSaved= 8 IEnMin= 8 EnMin= -1343.52649717704     IErMin= 8 ErrMin= 1.04D-07
 ErrMax= 1.04D-07 EMaxC= 1.00D-01 BMatC= 2.01D-12 BMatP= 8.51D-12
 IDIUse=1 WtCom= 1.00D+00 WtEn= 0.00D+00
 Coeff-Com:  0.528D-03-0.138D-01-0.525D-02 0.480D-01-0.515D-01-0.224D+00
 Coeff-Com:  0.330D+00 0.916D+00
 Coeff:      0.528D-03-0.138D-01-0.525D-02 0.480D-01-0.515D-01-0.224D+00
 Coeff:      0.330D+00 0.916D+00
 Gap=     0.391 Goal=   None    Shift=    0.000
 RMSDP=1.20D-08 MaxDP=3.06D-07 DE=-6.46D-11 OVMax= 1.17D-06

 Cycle  17  Pass 1  IDiag  1:
 RMSU=  4.92D-09    CP:  1.00D+00  1.06D+00  1.58D+00  2.36D+00  1.33D+00
                    CP:  1.34D+00  1.46D+00  1.06D+00
 E= -1343.52649717707     Delta-E=       -0.000000000027 Rises=F Damp=F
 DIIS: error= 6.52D-08 at cycle   9 NSaved=   9.
 NSaved= 9 IEnMin= 9 EnMin= -1343.52649717707     IErMin= 9 ErrMin= 6.52D-08
 ErrMax= 6.52D-08 EMaxC= 1.00D-01 BMatC= 2.00D-13 BMatP= 2.01D-12
 IDIUse=1 WtCom= 1.00D+00 WtEn= 0.00D+00
 Coeff-Com:  0.855D-04-0.155D-02-0.110D-02 0.250D-02 0.150D-01 0.131D-01
 Coeff-Com: -0.137D+00-0.772D-01 0.119D+01
 Coeff:      0.855D-04-0.155D-02-0.110D-02 0.250D-02 0.150D-01 0.131D-01
 Coeff:     -0.137D+00-0.772D-01 0.119D+01
 Gap=     0.391 Goal=   None    Shift=    0.000
 RMSDP=5.13D-09 MaxDP=1.78D-07 DE=-2.73D-11 OVMax= 5.45D-07

 SCF Done:  E(RHF) =  -1343.52649718     A.U. after   17 cycles
             Convg  =    0.5131D-08             -V/T =  2.0004
 KE= 1.342972201584D+03 PE=-8.740848678848D+03 EE= 3.252188131848D+03
 Leave Link  502 at Sat Aug 27 01:49:18 2022, MaxMem=  209715200 cpu:     597.0
 (Enter /opt/gaussian/l601.exe)
 Copying SCF densities to generalized density rwf, IOpCl= 0 IROHF=0.

 **********************************************************************

            Population analysis using the SCF density.

 **********************************************************************

 Orbital symmetries:
       Occupied  (A) (A) (A) (A) (A) (A) (A) (A) (A) (A) (A) (A)
                 (A) (A) (A) (A) (A) (A) (A) (A) (A) (A) (A) (A)
                 (A) (A) (A) (A) (A) (A) (A) (A) (A) (A) (A) (A)
                 (A) (A) (A) (A) (A) (A) (A) (A) (A) (A) (A) (A)
                 (A) (A) (A) (A) (A) (A) (A) (A) (A) (A) (A) (A)
                 (A) (A) (A) (A) (A) (A) (A) (A) (A) (A) (A) (A)
                 (A) (A) (A) (A) (A) (A) (A) (A) (A) (A) (A) (A)
                 (A) (A) (A) (A) (A) (A) (A) (A) (A) (A) (A) (A)
                 (A) (A) (A) (A) (A) (A) (A) (A) (A) (A) (A) (A)
                 (A)
       Virtual   (A) (A) (A) (A) (A) (A) (A) (A) (A) (A) (A) (A)
                 (A) (A) (A) (A) (A) (A) (A) (A) (A) (A) (A) (A)
                 (A) (A) (A) (A) (A) (A) (A) (A) (A) (A) (A) (A)
                 (A) (A) (A) (A) (A) (A) (A) (A) (A) (A) (A) (A)
                 (A) (A) (A) (A) (A) (A) (A) (A) (A) (A) (A) (A)
                 (A) (A) (A) (A) (A) (A) (A) (A) (A) (A) (A) (A)
                 (A) (A) (A) (A) (A) (A) (A) (A) (A) (A) (A) (A)
                 (A) (A) (A) (A) (A) (A) (A) (A) (A) (A) (A) (A)
                 (A) (A) (A) (A) (A) (A) (A) (A) (A) (A) (A) (A)
                 (A) (A) (A) (A) (A) (A) (A) (A) (A) (A) (A) (A)
                 (A) (A) (A) (A) (A) (A) (A) (A) (A) (A) (A) (A)
                 (A) (A) (A) (A) (A) (A) (A) (A) (A) (A) (A) (A)
                 (A) (A) (A) (A) (A) (A) (A) (A) (A) (A) (A) (A)
                 (A) (A) (A) (A) (A) (A) (A) (A) (A) (A) (A) (A)
                 (A) (A) (A) (A) (A) (A) (A) (A) (A) (A) (A) (A)
                 (A) (A) (A) (A) (A) (A) (A) (A) (A) (A) (A) (A)
                 (A) (A) (A) (A) (A) (A) (A) (A) (A) (A) (A) (A)
                 (A) (A) (A) (A) (A) (A) (A) (A) (A) (A) (A) (A)
 The electronic state is 1-A.
 Alpha  occ. eigenvalues --  -20.56471 -20.55659 -15.67422 -15.65940 -15.62789
 Alpha  occ. eigenvalues --  -15.62684 -15.58375 -11.40016 -11.33501 -11.31183
 Alpha  occ. eigenvalues --  -11.30996 -11.30572 -11.29777 -11.29760 -11.28768
 Alpha  occ. eigenvalues --  -11.28747 -11.28491 -11.27152 -11.26733 -11.26726
 Alpha  occ. eigenvalues --  -11.26715 -11.26683 -11.26531 -11.26395 -11.26327
 Alpha  occ. eigenvalues --  -11.26015 -11.25999 -11.25918 -11.25473 -11.25380
 Alpha  occ. eigenvalues --  -11.25348  -1.46667  -1.41384  -1.39130  -1.28879
 Alpha  occ. eigenvalues --   -1.27137  -1.24853  -1.17568  -1.17329  -1.11493
 Alpha  occ. eigenvalues --   -1.10487  -1.06574  -1.05263  -1.04819  -1.03538
 Alpha  occ. eigenvalues --   -1.02675  -1.02510  -0.99723  -0.95366  -0.89575
 Alpha  occ. eigenvalues --   -0.88600  -0.87262  -0.84939  -0.84380  -0.83566
 Alpha  occ. eigenvalues --   -0.83155  -0.81122  -0.80377  -0.77173  -0.73266
 Alpha  occ. eigenvalues --   -0.72951  -0.72235  -0.71365  -0.70659  -0.69780
 Alpha  occ. eigenvalues --   -0.68518  -0.67655  -0.67456  -0.65777  -0.65615
 Alpha  occ. eigenvalues --   -0.64297  -0.63611  -0.62817  -0.62444  -0.62045
 Alpha  occ. eigenvalues --   -0.61633  -0.60835  -0.60078  -0.59662  -0.58865
 Alpha  occ. eigenvalues --   -0.57985  -0.57481  -0.56348  -0.55404  -0.54709
 Alpha  occ. eigenvalues --   -0.54426  -0.53890  -0.53553  -0.52267  -0.51324
 Alpha  occ. eigenvalues --   -0.51201  -0.51087  -0.50887  -0.50400  -0.49866
 Alpha  occ. eigenvalues --   -0.48441  -0.47765  -0.45582  -0.42814  -0.42391
 Alpha  occ. eigenvalues --   -0.41650  -0.41567  -0.40729  -0.38669  -0.36413
 Alpha  occ. eigenvalues --   -0.35162  -0.34062  -0.32909  -0.30372
 Alpha virt. eigenvalues --    0.08699   0.09150   0.11462   0.12616   0.13876
 Alpha virt. eigenvalues --    0.14575   0.16765   0.18093   0.19145   0.19953
 Alpha virt. eigenvalues --    0.21750   0.22012   0.23216   0.23462   0.24237
 Alpha virt. eigenvalues --    0.24949   0.25722   0.26936   0.27393   0.28040
 Alpha virt. eigenvalues --    0.28318   0.29197   0.29526   0.30150   0.30307
 Alpha virt. eigenvalues --    0.31140   0.31470   0.31832   0.32332   0.33171
 Alpha virt. eigenvalues --    0.33637   0.34247   0.34830   0.35321   0.35886
 Alpha virt. eigenvalues --    0.36872   0.37463   0.38003   0.38705   0.39192
 Alpha virt. eigenvalues --    0.39681   0.40865   0.41421   0.42946   0.43624
 Alpha virt. eigenvalues --    0.43818   0.44223   0.46040   0.47158   0.47559
 Alpha virt. eigenvalues --    0.49145   0.49706   0.50538   0.51159   0.51825
 Alpha virt. eigenvalues --    0.52625   0.54021   0.54770   0.56093   0.56163
 Alpha virt. eigenvalues --    0.57549   0.59927   0.62699   0.63287   0.65369
 Alpha virt. eigenvalues --    0.70341   0.71238   0.72245   0.73067   0.73535
 Alpha virt. eigenvalues --    0.74210   0.74671   0.75692   0.75858   0.76823
 Alpha virt. eigenvalues --    0.77266   0.77409   0.78009   0.78767   0.79385
 Alpha virt. eigenvalues --    0.79727   0.80271   0.80856   0.81315   0.81717
 Alpha virt. eigenvalues --    0.82244   0.82664   0.82963   0.83194   0.83762
 Alpha virt. eigenvalues --    0.84053   0.84289   0.84667   0.85162   0.85436
 Alpha virt. eigenvalues --    0.85803   0.85948   0.86098   0.86467   0.87382
 Alpha virt. eigenvalues --    0.88373   0.88717   0.89931   0.90121   0.90629
 Alpha virt. eigenvalues --    0.90967   0.91609   0.91924   0.92236   0.93209
 Alpha virt. eigenvalues --    0.93796   0.94560   0.94663   0.94886   0.96389
 Alpha virt. eigenvalues --    0.96799   0.98242   0.98615   0.99727   1.00154
 Alpha virt. eigenvalues --    1.00350   1.02110   1.03544   1.04045   1.05426
 Alpha virt. eigenvalues --    1.06137   1.07270   1.08889   1.09049   1.09336
 Alpha virt. eigenvalues --    1.09955   1.10463   1.10655   1.10891   1.11351
 Alpha virt. eigenvalues --    1.11950   1.12148   1.12402   1.12835   1.13077
 Alpha virt. eigenvalues --    1.13505   1.14268   1.14510   1.14596   1.15496
 Alpha virt. eigenvalues --    1.15803   1.16666   1.16862   1.17518   1.18378
 Alpha virt. eigenvalues --    1.19200   1.19729   1.20034   1.21312   1.22527
 Alpha virt. eigenvalues --    1.22607   1.23298   1.23847   1.24475   1.25235
 Alpha virt. eigenvalues --    1.26855   1.27976   1.28829   1.29226   1.29745
 Alpha virt. eigenvalues --    1.30488   1.30551   1.32790   1.33748   1.34478
 Alpha virt. eigenvalues --    1.35424   1.35661   1.37213   1.38443   1.38481
 Alpha virt. eigenvalues --    1.39207   1.40965   1.41489   1.42025   1.43105
 Alpha virt. eigenvalues --    1.44092   1.46191   1.48471   1.50165   1.51207
 Alpha virt. eigenvalues --    1.51899   1.52721   1.54146   1.56027   1.57596
 Alpha virt. eigenvalues --    1.59421   1.61938   1.63402   1.64840   1.68197
 Alpha virt. eigenvalues --    1.69092   1.69380   1.70571   1.71776   1.72397
 Alpha virt. eigenvalues --    1.73900   1.76195   1.77539   1.79297   1.83129
 Alpha virt. eigenvalues --    1.89569   1.91889   1.99623   2.02292   2.07440
 Alpha virt. eigenvalues --    2.09686   2.20013   2.21604   2.22685   2.30393
 Alpha virt. eigenvalues --    2.31109
          Condensed to atoms (all electrons):
 Mulliken atomic charges:
              1
     1  O   -0.583729
     2  C    0.806000
     3  C   -0.148566
     4  N   -0.784509
     5  N    0.117314
     6  N   -0.310069
     7  C    0.034702
     8  C   -0.103490
     9  C   -0.234613
    10  C   -0.199702
    11  C   -0.120437
    12  C    0.384602
    13  N   -0.997057
    14  C   -0.063720
    15  C   -0.233727
    16  C   -0.380054
    17  C    0.034860
    18  O   -0.696499
    19  C    0.048143
    20  C    0.323760
    21  C   -0.210546
    22  C   -0.200356
    23  C   -0.025414
    24  C   -0.208576
    25  C   -0.148365
    26  C   -0.090910
    27  C   -0.141854
    28  C   -0.246613
    29  C    0.049176
    30  N   -0.528635
    31  C    0.056773
    32  H    0.241586
    33  H    0.226000
    34  H    0.247632
    35  H    0.210511
    36  H    0.213415
    37  H    0.223486
    38  H    0.186485
    39  H    0.179096
    40  H    0.218190
    41  H    0.178105
    42  H    0.186804
    43  H    0.175392
    44  H    0.167302
    45  H    0.174139
    46  H    0.167420
    47  H    0.216361
    48  H    0.220283
    49  H    0.228963
    50  H    0.258803
    51  H    0.224346
    52  H    0.217095
    53  H    0.212518
    54  H    0.228175
 Sum of Mulliken atomic charges =   0.00000
 Mulliken charges with hydrogens summed into heavy atoms:
              1
     1  O   -0.583729
     2  C    0.806000
     3  C    0.319020
     4  N   -0.784509
     5  N    0.117314
     6  N   -0.310069
     7  C    0.034702
     8  C    0.144142
     9  C   -0.024102
    10  C    0.013713
    11  C    0.103049
    12  C    0.384602
    13  N   -0.997057
    14  C    0.301862
    15  C   -0.015537
    16  C   -0.015145
    17  C    0.377554
    18  O   -0.696499
    19  C    0.389702
    20  C    0.323760
    21  C    0.005816
    22  C    0.019927
    23  C   -0.025414
    24  C    0.020387
    25  C    0.110438
    26  C   -0.090910
    27  C    0.082492
    28  C   -0.029517
    29  C    0.261694
    30  N   -0.528635
    31  C    0.284949
 Sum of Mulliken charges with hydrogens summed into heavy atoms =   0.00000
 Electronic spatial extent (au):  <R**2>=          18683.6971
 Charge=              0.0000 electrons
 Dipole moment (field-independent basis, Debye):
    X=             -1.2119    Y=              7.8160    Z=              0.2911  Tot=              7.9148
 Quadrupole moment (field-independent basis, Debye-Ang):
   XX=           -168.5553   YY=           -196.4561   ZZ=           -190.3319
   XY=            -15.7987   XZ=             21.3755   YZ=            -22.1098
 Traceless Quadrupole moment (field-independent basis, Debye-Ang):
   XX=             16.5591   YY=            -11.3417   ZZ=             -5.2174
   XY=            -15.7987   XZ=             21.3755   YZ=            -22.1098
 Octapole moment (field-independent basis, Debye-Ang**2):
  XXX=            -38.0613  YYY=             87.8354  ZZZ=             19.3786  XYY=             53.7553
  XXY=             84.1574  XXZ=             62.4460  XZZ=              2.4236  YZZ=             17.0770
  YYZ=            -40.3248  XYZ=            -60.0225
 Hexadecapole moment (field-independent basis, Debye-Ang**3):
 XXXX=         -17058.0247 YYYY=          -6084.7782 ZZZZ=          -1360.6969 XXXY=           -869.9526
 XXXZ=            773.0363 YYYX=           -515.2714 YYYZ=           -247.4816 ZZZX=            159.0955
 ZZZY=            -84.9707 XXYY=          -4443.3642 XXZZ=          -3473.2518 YYZZ=          -1391.9444
 XXYZ=           -164.5511 YYXZ=             88.3077 ZZXY=              7.6884
 N-N= 2.802161848239D+03 E-N=-8.740848678442D+03  KE= 1.342972201584D+03
 No NMR shielding tensors so no spin-rotation constants.
 Leave Link  601 at Sat Aug 27 01:49:19 2022, MaxMem=  209715200 cpu:       1.4
 (Enter /opt/gaussian/l701.exe)
 Compute integral first derivatives.
 ... and contract with generalized density number  0.
 Leave Link  701 at Sat Aug 27 01:49:19 2022, MaxMem=  209715200 cpu:       1.2
 (Enter /opt/gaussian/l702.exe)
 L702 exits ... SP integral derivatives will be done elsewhere.
 Leave Link  702 at Sat Aug 27 01:49:19 2022, MaxMem=  209715200 cpu:       0.2
 (Enter /opt/gaussian/l703.exe)
 Compute integral first derivatives, UseDBF=F ICtDFT=           0.
 Integral derivatives from FoFDir, PRISM(SPDF).
 Calling FoFJK, ICntrl=      2127 FMM=F ISym2X=0 I1Cent= 0 IOpClX= 0 NMat=1 NMatS=1 NMatT=0.
 FoFCou: FMM=F IPFlag=           0 FMFlag=      100000 FMFlg1=         800
         NFxFlg=           0 DoJE=F BraDBF=F KetDBF=F FulRan=T
         Omega=  0.000000  0.000000  1.000000  0.000000  0.000000 ICntrl=    2127 IOpCl=  0
         NMat0=    1 NMatS0=    1 NMatT0=    0 NMatD0=    1 NMtDS0=    0 NMtDT0=    0
         I1Cent=           0 NGrid=           0.
 Symmetry not used in FoFCou.
 Leave Link  703 at Sat Aug 27 01:49:46 2022, MaxMem=  209715200 cpu:     218.7
 (Enter /opt/gaussian/l716.exe)
 Dipole        =-4.76814499D-01 3.07505829D+00 1.14520950D-01
 ***** Axes restored to original set *****
 -------------------------------------------------------------------
 Center     Atomic                   Forces (Hartrees/Bohr)
 Number     Number              X              Y              Z
 -------------------------------------------------------------------
      1        8           0.023830931   -0.023858794    0.015055556
      2        6          -0.023724541    0.015625035   -0.012600693
      3        6           0.009548555   -0.023605334    0.019739019
      4        7           0.002800580    0.028502325   -0.050283759
      5        7          -0.002141612   -0.015523226    0.009443474
      6        7           0.013583031    0.003528831   -0.028569435
      7        6          -0.004557947   -0.048830338    0.000209678
      8        6          -0.002914079    0.009211951    0.007267135
      9        6           0.005011463    0.013390666   -0.005827109
     10        6           0.003989899   -0.006386056   -0.010731572
     11        6          -0.002474805   -0.010874345    0.000075059
     12        6          -0.004380340    0.032667187    0.033189011
     13        7           0.015015972    0.023082386   -0.003063405
     14        6           0.021507137   -0.013732777    0.031908084
     15        6          -0.026553154    0.005374416   -0.001850736
     16        6          -0.004775680   -0.016160176    0.024400651
     17        6           0.026696848   -0.036256928   -0.005355347
     18        8          -0.002541878    0.004517418    0.010738554
     19        6          -0.008080176    0.020709503   -0.035812494
     20        6          -0.026097808    0.005179923   -0.006126165
     21        6           0.012006528    0.001067824    0.003194888
     22        6          -0.003991745   -0.004853853    0.004017128
     23        6           0.018590303    0.001758193    0.003480467
     24        6          -0.001366199    0.004272511   -0.004857052
     25        6           0.011828269    0.003078416   -0.003614137
     26        6          -0.028293635    0.006106042   -0.006787072
     27        6          -0.000710893   -0.003448032    0.001760532
     28        6          -0.007355471    0.003780487   -0.001675895
     29        6          -0.013023500   -0.002134909   -0.001665611
     30        7           0.012790561   -0.022057642    0.008221723
     31        6           0.004120574    0.006550012   -0.001872837
     32        1           0.000645471    0.011286440   -0.029322173
     33        1          -0.014741500    0.012840892    0.023979691
     34        1           0.000015542   -0.019135016   -0.005839830
     35        1          -0.008388922   -0.014093922    0.011917861
     36        1          -0.008796330    0.004439528    0.017682850
     37        1           0.000352486    0.017773609    0.004317691
     38        1          -0.031610088   -0.005378337    0.001781383
     39        1           0.012935610    0.005214979   -0.023739537
     40        1           0.028428927    0.004066728    0.002018234
     41        1          -0.012585845   -0.005246562   -0.017895538
     42        1           0.017546372    0.015424026   -0.002291227
     43        1          -0.025053655   -0.002405992   -0.008263902
     44        1           0.010176966    0.019506717    0.011749119
     45        1           0.016355901    0.009873774    0.016884570
     46        1          -0.015587199   -0.020521424    0.002669071
     47        1          -0.007416406    0.010776847   -0.016220065
     48        1           0.012053956    0.011546444   -0.011821424
     49        1           0.009262101   -0.011190842    0.015530296
     50        1          -0.012996910   -0.014932402    0.015920660
     51        1          -0.009613278    0.015771018   -0.007277020
     52        1           0.009307973    0.016225221   -0.003209179
     53        1           0.023443621   -0.001246807    0.004293695
     54        1          -0.012071985   -0.021275634    0.005127133
 -------------------------------------------------------------------
 Cartesian Forces:  Max     0.050283759 RMS     0.015423780
 Leave Link  716 at Sat Aug 27 01:49:46 2022, MaxMem=  209715200 cpu:       0.2
 (Enter /opt/gaussian/l103.exe)

 GradGradGradGradGradGradGradGradGradGradGradGradGradGradGradGradGradGrad
 Berny optimization.
 Internal  Forces:  Max     0.045913831 RMS     0.009395790
 Search for a local minimum.
 Step number   1 out of a maximum of  317
 All quantities printed in internal units (Hartrees-Bohrs-Radians)
 RMS Force = .93958D-02 SwitMx=.10000D-02 MixMth= 1
 Mixed Optimization -- RFO/linear search
 Second derivative matrix not updated -- first step.
 ITU=  0
     Eigenvalues ---    0.00230   0.00316   0.00404   0.00825   0.00828
     Eigenvalues ---    0.01076   0.01173   0.01344   0.01385   0.01389
     Eigenvalues ---    0.01578   0.01676   0.01718   0.01750   0.01766
     Eigenvalues ---    0.01769   0.01777   0.01851   0.01972   0.01978
     Eigenvalues ---    0.02051   0.02053   0.02057   0.02072   0.02075
     Eigenvalues ---    0.02093   0.02096   0.02108   0.02112   0.02125
     Eigenvalues ---    0.02127   0.02130   0.02143   0.02155   0.02162
     Eigenvalues ---    0.02181   0.02183   0.02184   0.02319   0.02753
     Eigenvalues ---    0.03347   0.04046   0.04314   0.04581   0.04822
     Eigenvalues ---    0.04943   0.05150   0.05470   0.05549   0.05775
     Eigenvalues ---    0.05812   0.06486   0.07233   0.08413   0.09721
     Eigenvalues ---    0.10282   0.11015   0.11553   0.11565   0.11831
     Eigenvalues ---    0.13083   0.13448   0.14020   0.15994   0.15998
     Eigenvalues ---    0.16000   0.16000   0.16000   0.16000   0.16000
     Eigenvalues ---    0.16000   0.16000   0.16000   0.16000   0.16000
     Eigenvalues ---    0.18860   0.22000   0.22000   0.22000   0.22035
     Eigenvalues ---    0.22165   0.22574   0.22681   0.22781   0.22959
     Eigenvalues ---    0.23196   0.23445   0.24000   0.24412   0.24548
     Eigenvalues ---    0.24811   0.24862   0.24956   0.24999   0.25000
     Eigenvalues ---    0.25000   0.25000   0.25000   0.27901   0.28458
     Eigenvalues ---    0.28596   0.29056   0.29587   0.30572   0.30658
     Eigenvalues ---    0.30774   0.30938   0.31264   0.31500   0.31520
     Eigenvalues ---    0.31609   0.31640   0.31728   0.31833   0.33070
     Eigenvalues ---    0.33202   0.33431   0.33510   0.33536   0.33566
     Eigenvalues ---    0.33593   0.33616   0.33687   0.33751   0.33939
     Eigenvalues ---    0.33948   0.35030   0.37434   0.38097   0.38704
     Eigenvalues ---    0.38930   0.39693   0.39842   0.40491   0.40857
     Eigenvalues ---    0.41507   0.41595   0.42032   0.42781   0.43195
     Eigenvalues ---    0.43445   0.44012   0.44504   0.44734   0.45752
     Eigenvalues ---    0.45944   0.46073   0.46082   0.46815   0.46857
     Eigenvalues ---    0.47328   0.47697   0.53771   0.55146   0.77610
     Eigenvalues ---    0.86462
 RFO step:  Lambda=-6.74206804D-02 EMin= 2.30000000D-03
 Linear search not attempted -- first point.
 Maximum step size (   0.300) exceeded in Quadratic search.
    -- Step size scaled by   0.738
 Iteration  1 RMS(Cart)=  0.06815817 RMS(Int)=  0.00067565
 Iteration  2 RMS(Cart)=  0.00191200 RMS(Int)=  0.00008684
 Iteration  3 RMS(Cart)=  0.00000146 RMS(Int)=  0.00008684
 Iteration  4 RMS(Cart)=  0.00000000 RMS(Int)=  0.00008684
 Variable       Old X    -DE/DX   Delta X   Delta X   Delta X     New X
                                 (Linear)    (Quad)   (Total)
    R1        2.34608  -0.03569   0.00000  -0.02827  -0.02827   2.31781
    R2        2.91148  -0.01285   0.00000  -0.02695  -0.02695   2.88453
    R3        2.64194  -0.01729   0.00000  -0.02422  -0.02422   2.61772
[...]
 ! D142  D(27,28,29,30)         -0.3145         -DE/DX =    0.0                 !
 ! D143  D(27,28,29,53)        179.7136         -DE/DX =    0.0                 !
 ! D144  D(52,28,29,30)       -179.8242         -DE/DX =    0.0                 !
 ! D145  D(52,28,29,53)          0.2039         -DE/DX =    0.0                 !
 ! D146  D(28,29,30,31)          0.075          -DE/DX =    0.0                 !
 ! D147  D(53,29,30,31)       -179.9518         -DE/DX =    0.0                 !
 ! D148  D(29,30,31,26)          0.2897         -DE/DX =    0.0                 !
 ! D149  D(29,30,31,54)       -178.6032         -DE/DX =    0.0                 !
 --------------------------------------------------------------------------------
 GradGradGradGradGradGradGradGradGradGradGradGradGradGradGradGradGradGrad

 Largest change from initial coordinates is atom   44       0.933 Angstoms.
 Leave Link  103 at Sat Aug 27 02:20:48 2022, MaxMem=  209715200 cpu:       0.9
 (Enter /opt/gaussian/l202.exe)
 Stoichiometry    C24H23N5O2
 Framework group  C1[X(C24H23N5O2)]
 Deg. of freedom   156
 Full point group                 C1      NOp   1
 RotChk:  IX=0 Diff= 8.15D-16
 Largest Abelian subgroup         C1      NOp   1
 Largest concise Abelian subgroup C1      NOp   1
                         Standard orientation:                         
 ---------------------------------------------------------------------
 Center     Atomic      Atomic             Coordinates (Angstroms)
 Number     Number       Type             X           Y           Z
 ---------------------------------------------------------------------
      1          8           0        0.984227   -1.217787   -0.381143
      2          6           0        1.171237   -0.039761   -0.644229
      3          6           0        2.574713    0.470695   -0.956663
      4          7           0        3.535683   -0.589488   -0.969151
      5          7           0        3.889484   -1.161522   -2.153786
      6          7           0        4.701793   -2.111626   -1.940482
      7          6           0        4.916359   -2.219110   -0.575720
      8          6           0        5.719931   -3.096721    0.150857
      9          6           0        5.732988   -2.953727    1.516599
     10          6           0        4.959720   -1.955995    2.151317
     11          6           0        4.163387   -1.088565    1.442603
     12          6           0        4.156918   -1.240803    0.053612
     13          7           0        0.147225    0.871651   -0.668694
     14          6           0        0.320808    2.309251   -0.894095
     15          6           0        0.117062    3.171237    0.363891
     16          6           0        0.566389    4.624177    0.085216
     17          6           0        2.074083    4.619403    0.427687
     18          8           0        2.317867    3.364040    1.107744
     19          6           0        1.059689    2.783975    1.500435
     20          6           0       -1.198515    0.407485   -0.473592
     21          6           0       -2.079527    0.388771   -1.544675
     22          6           0       -3.390222   -0.021809   -1.365129
     23          6           0       -3.846590   -0.429603   -0.112976
     24          6           0       -2.947608   -0.417156    0.952750
     25          6           0       -1.638266   -0.002774    0.775744
     26          6           0       -5.250294   -0.872382    0.079688
     27          6           0       -6.322341   -0.180660   -0.480302
     28          6           0       -7.616034   -0.631125   -0.271544
     29          6           0       -7.809591   -1.765503    0.499103
     30          7           0       -6.791908   -2.434862    1.036756
     31          6           0       -5.549986   -2.006287    0.833071
     32          1           0        2.592253    0.910756   -1.942855
     33          1           0        2.875375    1.229633   -0.245801
     34          1           0        6.297231   -3.847202   -0.350321
     35          1           0        6.334404   -3.605859    2.118599
     36          1           0        4.995986   -1.878339    3.220736
     37          1           0        3.577270   -0.339332    1.935562
     38          1           0        1.303920    2.494003   -1.294790
     39          1           0       -0.387041    2.625722   -1.649862
     40          1           0       -0.918418    3.122793    0.673409
     41          1           0        0.380731    4.925338   -0.938530
     42          1           0        0.028698    5.311590    0.725895
     43          1           0        2.708850    4.642011   -0.444348
     44          1           0        2.349408    5.434937    1.080210
     45          1           0        0.733088    3.206529    2.443611
     46          1           0        1.206528    1.724845    1.625453
     47          1           0       -1.734849    0.672065   -2.520344
     48          1           0       -4.050608   -0.055531   -2.209806
     49          1           0       -3.275199   -0.717728    1.928770
     50          1           0       -0.955618   -0.014387    1.601508
     51          1           0       -6.146886    0.707053   -1.056650
     52          1           0       -8.454250   -0.110651   -0.689587
     53          1           0       -8.789675   -2.149673    0.692551
     54          1           0       -4.769753   -2.595744    1.269410
 ---------------------------------------------------------------------
 Rotational constants (GHZ):      0.2178404      0.0681936      0.0577512
 Leave Link  202 at Sat Aug 27 02:20:48 2022, MaxMem=  209715200 cpu:       0.0
 (Enter /opt/gaussian/l601.exe)
 Copying SCF densities to generalized density rwf, IOpCl= 0 IROHF=0.

 **********************************************************************

            Population analysis using the SCF density.

 **********************************************************************

 Orbital symmetries:
       Occupied  (A) (A) (A) (A) (A) (A) (A) (A) (A) (A) (A) (A)
                 (A) (A) (A) (A) (A) (A) (A) (A) (A) (A) (A) (A)
                 (A) (A) (A) (A) (A) (A) (A) (A) (A) (A) (A) (A)
                 (A) (A) (A) (A) (A) (A) (A) (A) (A) (A) (A) (A)
                 (A) (A) (A) (A) (A) (A) (A) (A) (A) (A) (A) (A)
                 (A) (A) (A) (A) (A) (A) (A) (A) (A) (A) (A) (A)
                 (A) (A) (A) (A) (A) (A) (A) (A) (A) (A) (A) (A)
                 (A) (A) (A) (A) (A) (A) (A) (A) (A) (A) (A) (A)
                 (A) (A) (A) (A) (A) (A) (A) (A) (A) (A) (A) (A)
                 (A)
       Virtual   (A) (A) (A) (A) (A) (A) (A) (A) (A) (A) (A) (A)
                 (A) (A) (A) (A) (A) (A) (A) (A) (A) (A) (A) (A)
                 (A) (A) (A) (A) (A) (A) (A) (A) (A) (A) (A) (A)
                 (A) (A) (A) (A) (A) (A) (A) (A) (A) (A) (A) (A)
                 (A) (A) (A) (A) (A) (A) (A) (A) (A) (A) (A) (A)
                 (A) (A) (A) (A) (A) (A) (A) (A) (A) (A) (A) (A)
                 (A) (A) (A) (A) (A) (A) (A) (A) (A) (A) (A) (A)
                 (A) (A) (A) (A) (A) (A) (A) (A) (A) (A) (A) (A)
                 (A) (A) (A) (A) (A) (A) (A) (A) (A) (A) (A) (A)
                 (A) (A) (A) (A) (A) (A) (A) (A) (A) (A) (A) (A)
                 (A) (A) (A) (A) (A) (A) (A) (A) (A) (A) (A) (A)
                 (A) (A) (A) (A) (A) (A) (A) (A) (A) (A) (A) (A)
                 (A) (A) (A) (A) (A) (A) (A) (A) (A) (A) (A) (A)
                 (A) (A) (A) (A) (A) (A) (A) (A) (A) (A) (A) (A)
                 (A) (A) (A) (A) (A) (A) (A) (A) (A) (A) (A) (A)
                 (A) (A) (A) (A) (A) (A) (A) (A) (A) (A) (A) (A)
                 (A) (A) (A) (A) (A) (A) (A) (A) (A) (A) (A) (A)
                 (A) (A) (A) (A) (A) (A) (A) (A) (A) (A) (A) (A)
 The electronic state is 1-A.
 Alpha  occ. eigenvalues --  -20.57575 -20.54275 -15.65807 -15.64893 -15.61439
 Alpha  occ. eigenvalues --  -15.60619 -15.57814 -11.38303 -11.30442 -11.29857
 Alpha  occ. eigenvalues --  -11.29821 -11.29806 -11.29607 -11.28959 -11.28147
 Alpha  occ. eigenvalues --  -11.28114 -11.26771 -11.26704 -11.26570 -11.26440
 Alpha  occ. eigenvalues --  -11.26029 -11.25704 -11.25586 -11.25436 -11.25410
 Alpha  occ. eigenvalues --  -11.25364 -11.25276 -11.24977 -11.24838 -11.24817
 Alpha  occ. eigenvalues --  -11.23677  -1.46944  -1.41606  -1.39467  -1.28277
 Alpha  occ. eigenvalues --   -1.28049  -1.24329  -1.18171  -1.17285  -1.11722
 Alpha  occ. eigenvalues --   -1.10689  -1.07179  -1.05876  -1.04661  -1.04162
 Alpha  occ. eigenvalues --   -1.03320  -1.02249  -1.00330  -0.96679  -0.89328
 Alpha  occ. eigenvalues --   -0.88361  -0.87965  -0.84963  -0.84898  -0.84728
 Alpha  occ. eigenvalues --   -0.84258  -0.81879  -0.81046  -0.77702  -0.73909
 Alpha  occ. eigenvalues --   -0.73481  -0.71988  -0.71506  -0.70949  -0.70512
 Alpha  occ. eigenvalues --   -0.70273  -0.68421  -0.67854  -0.65918  -0.65115
 Alpha  occ. eigenvalues --   -0.64466  -0.63580  -0.63206  -0.62999  -0.62790
 Alpha  occ. eigenvalues --   -0.61546  -0.61128  -0.60761  -0.60443  -0.59421
 Alpha  occ. eigenvalues --   -0.58445  -0.58042  -0.57340  -0.55575  -0.55379
 Alpha  occ. eigenvalues --   -0.54326  -0.53266  -0.52754  -0.52224  -0.52132
 Alpha  occ. eigenvalues --   -0.51527  -0.50996  -0.50838  -0.50496  -0.50077
 Alpha  occ. eigenvalues --   -0.48945  -0.48108  -0.44178  -0.43610  -0.42361
 Alpha  occ. eigenvalues --   -0.41728  -0.41056  -0.40202  -0.38786  -0.37129
 Alpha  occ. eigenvalues --   -0.35497  -0.33215  -0.32172  -0.31566
 Alpha virt. eigenvalues --    0.09359   0.10362   0.11809   0.12435   0.15822
 Alpha virt. eigenvalues --    0.16292   0.17401   0.18903   0.21081   0.21417
 Alpha virt. eigenvalues --    0.22632   0.23631   0.24105   0.24341   0.24903
 Alpha virt. eigenvalues --    0.25530   0.26979   0.27241   0.28022   0.28879
 Alpha virt. eigenvalues --    0.29551   0.29921   0.30419   0.30689   0.31020
 Alpha virt. eigenvalues --    0.31435   0.31953   0.32495   0.32781   0.33146
 Alpha virt. eigenvalues --    0.33973   0.35361   0.35797   0.36579   0.36938
 Alpha virt. eigenvalues --    0.37754   0.37850   0.38901   0.39572   0.40492
 Alpha virt. eigenvalues --    0.40982   0.41373   0.42185   0.42472   0.43150
 Alpha virt. eigenvalues --    0.44178   0.44708   0.45604   0.47345   0.48379
 Alpha virt. eigenvalues --    0.48944   0.49172   0.50230   0.51762   0.52271
 Alpha virt. eigenvalues --    0.53037   0.53990   0.55186   0.55852   0.57925
 Alpha virt. eigenvalues --    0.59608   0.59964   0.62134   0.64975   0.65472
 Alpha virt. eigenvalues --    0.69947   0.71452   0.71972   0.73178   0.74156
 Alpha virt. eigenvalues --    0.74625   0.75882   0.76228   0.76466   0.76752
 Alpha virt. eigenvalues --    0.76994   0.77727   0.78546   0.79041   0.79424
 Alpha virt. eigenvalues --    0.79716   0.80083   0.80583   0.81510   0.81593
 Alpha virt. eigenvalues --    0.83046   0.83227   0.83539   0.83792   0.84183
 Alpha virt. eigenvalues --    0.84629   0.84865   0.85294   0.85908   0.85981
 Alpha virt. eigenvalues --    0.86282   0.86533   0.87040   0.87587   0.87895
 Alpha virt. eigenvalues --    0.88788   0.89241   0.89746   0.90236   0.91001
 Alpha virt. eigenvalues --    0.91611   0.91983   0.92525   0.93051   0.94391
 Alpha virt. eigenvalues --    0.95127   0.95646   0.96318   0.96992   0.98081
 Alpha virt. eigenvalues --    0.98644   0.99242   1.00022   1.00172   1.01107
 Alpha virt. eigenvalues --    1.01961   1.02304   1.03472   1.06166   1.06925
 Alpha virt. eigenvalues --    1.08259   1.09344   1.10102   1.10516   1.11223
 Alpha virt. eigenvalues --    1.11478   1.11814   1.12193   1.12808   1.13345
 Alpha virt. eigenvalues --    1.13465   1.13749   1.14200   1.15017   1.15156
 Alpha virt. eigenvalues --    1.15708   1.15883   1.15998   1.16464   1.17269
 Alpha virt. eigenvalues --    1.18025   1.18343   1.19716   1.19959   1.20315
 Alpha virt. eigenvalues --    1.20591   1.21294   1.22055   1.22760   1.22963
 Alpha virt. eigenvalues --    1.23597   1.24385   1.25422   1.25896   1.26641
 Alpha virt. eigenvalues --    1.27548   1.28786   1.29336   1.30202   1.30532
 Alpha virt. eigenvalues --    1.31162   1.32222   1.32961   1.34427   1.35598
 Alpha virt. eigenvalues --    1.35778   1.36697   1.38534   1.38709   1.38993
 Alpha virt. eigenvalues --    1.40370   1.40921   1.43114   1.44167   1.45354
 Alpha virt. eigenvalues --    1.46361   1.47231   1.48223   1.50226   1.51615
 Alpha virt. eigenvalues --    1.51717   1.53743   1.57412   1.57948   1.59609
 Alpha virt. eigenvalues --    1.61027   1.61709   1.65584   1.67606   1.70223
 Alpha virt. eigenvalues --    1.71468   1.72158   1.72872   1.74462   1.74615
 Alpha virt. eigenvalues --    1.76613   1.79375   1.79891   1.83754   1.90494
 Alpha virt. eigenvalues --    1.92696   1.98388   1.99265   2.04510   2.07790
 Alpha virt. eigenvalues --    2.10645   2.11526   2.21144   2.26585   2.34728
 Alpha virt. eigenvalues --    2.37521
          Condensed to atoms (all electrons):
 Mulliken atomic charges:
              1
     1  O   -0.570481
     2  C    0.791526
     3  C   -0.153028
     4  N   -0.880009
     5  N    0.097467
     6  N   -0.337490
     7  C   -0.018488
     8  C   -0.079197
     9  C   -0.233455
    10  C   -0.206257
    11  C   -0.066500
    12  C    0.484698
    13  N   -0.979127
    14  C   -0.034377
    15  C   -0.232056
    16  C   -0.383989
    17  C    0.038509
    18  O   -0.710314
    19  C    0.029931
    20  C    0.293791
    21  C   -0.175140
    22  C   -0.202847
    23  C   -0.012374
    24  C   -0.208128
    25  C   -0.151453
    26  C   -0.092440
    27  C   -0.140916
    28  C   -0.245276
    29  C    0.059241
    30  N   -0.532168
    31  C    0.061578
    32  H    0.244260
    33  H    0.267186
    34  H    0.239146
    35  H    0.202326
    36  H    0.203150
    37  H    0.225953
    38  H    0.187108
    39  H    0.191143
    40  H    0.196010
    41  H    0.179738
    42  H    0.187313
    43  H    0.175751
    44  H    0.178224
    45  H    0.171761
    46  H    0.182668
    47  H    0.220307
    48  H    0.218884
    49  H    0.222807
    50  H    0.222028
    51  H    0.220888
    52  H    0.214703
    53  H    0.212185
    54  H    0.225227
 Sum of Mulliken atomic charges =   0.00000
 Mulliken charges with hydrogens summed into heavy atoms:
              1
     1  O   -0.570481
     2  C    0.791526
     3  C    0.358417
     4  N   -0.880009
     5  N    0.097467
     6  N   -0.337490
     7  C   -0.018488
     8  C    0.159949
     9  C   -0.031129
    10  C   -0.003107
    11  C    0.159453
    12  C    0.484698
    13  N   -0.979127
    14  C    0.343875
    15  C   -0.036045
    16  C   -0.016938
    17  C    0.392484
    18  O   -0.710314
    19  C    0.384360
    20  C    0.293791
    21  C    0.045167
    22  C    0.016037
    23  C   -0.012374
    24  C    0.014679
    25  C    0.070575
    26  C   -0.092440
    27  C    0.079972
    28  C   -0.030573
    29  C    0.271426
    30  N   -0.532168
    31  C    0.286806
 Sum of Mulliken charges with hydrogens summed into heavy atoms =   0.00000
 Electronic spatial extent (au):  <R**2>=          18038.1214
 Charge=              0.0000 electrons
 Dipole moment (field-independent basis, Debye):
    X=             -3.3826    Y=              9.1505    Z=              1.6849  Tot=              9.9001
 Quadrupole moment (field-independent basis, Debye-Ang):
   XX=           -186.9561   YY=           -178.6188   ZZ=           -183.3918
   XY=            -11.3223   XZ=             26.3364   YZ=            -12.1990
 Traceless Quadrupole moment (field-independent basis, Debye-Ang):
   XX=             -3.9671   YY=              4.3701   ZZ=             -0.4029
   XY=            -11.3223   XZ=             26.3364   YZ=            -12.1990
 Octapole moment (field-independent basis, Debye-Ang**2):
  XXX=           -131.8048  YYY=            133.1900  ZZZ=             35.6023  XYY=             83.2697
  XXY=             63.8311  XXZ=             -3.3158  XZZ=            -15.9566  YZZ=             34.6651
  YYZ=              2.1748  XYZ=            -71.5658
 Hexadecapole moment (field-independent basis, Debye-Ang**3):
 XXXX=         -17445.9083 YYYY=          -4702.4196 ZZZZ=          -1515.5742 XXXY=           -757.4018
 XXXZ=            927.7097 YYYX=           -160.5215 YYYZ=             20.3677 ZZZX=            236.7440
 ZZZY=            -69.3741 XXYY=          -4166.8933 XXZZ=          -3599.5264 YYZZ=          -1132.9029
 XXYZ=           -154.3862 YYXZ=            126.1969 ZZXY=             -0.5730
 N-N= 2.852315375535D+03 E-N=-8.843381056637D+03  KE= 1.344943777347D+03
 No NMR shielding tensors so no spin-rotation constants.
 Leave Link  601 at Sat Aug 27 02:20:48 2022, MaxMem=  209715200 cpu:       1.4
 (Enter /opt/gaussian/l9999.exe)
 1\1\GINC-LQCAPF-6\FOpt\RHF\6-31G\C24H23N5O2\LQCAPF-6\27-Aug-2022\0\\#p
  opt hf/6-31G\\Mol26.out\\0,1\O,21.29246343,-7.0520634101,-0.495255410
 6\C,21.8037309114,-8.1045467229,-0.1448040364\C,23.2751317204,-8.15527
 11611,0.2556116051\N,23.8777463004,-6.8576161248,0.2320293106\N,23.978
 5886202,-6.1426961764,1.3872257838\N,24.4848283694,-5.0065405323,1.140
 4183919\C,24.7356093562,-4.9141338409,-0.219264589\C,25.2842255584,-3.
 8775069132,-0.973101248\C,25.4168677979,-4.0839594908,-2.3242681592\C,
 25.0103316329,-5.2998543513,-2.9180762855\C,24.46663127,-6.3255870547,
 -2.182469538\C,24.3362157807,-6.1070998678,-0.8085082357\N,21.09494455
 59,-9.2772414576,-0.0970326307\C,21.6722248451,-10.5831259059,0.233184
 6318\C,21.8043138394,-11.533552371,-0.9694385121\C,22.6460557668,-12.7
 688930127,-0.5744776724\C,24.1020521251,-12.3330799825,-0.858364543\O,
 24.0025838008,-11.1009875634,-1.6132804387\C,22.6537726394,-10.9449353
 525,-2.0929160403\C,19.6855807049,-9.2470357841,-0.3750825572\C,18.778
 7123045,-9.4339623306,0.6575843894\C,17.4177089065,-9.4435201849,0.400
 0715615\C,16.9335074354,-9.2590182672,-0.8937455322\C,17.8553568326,-9
 .0604681359,-1.92081305\C,19.2163374982,-9.0550742198,-1.6656229077\C,
 15.4750418266,-9.2663560389,-1.1701181745\C,14.6249918665,-10.21498565
 ,-0.6054343679\C,13.2700900871,-10.1830490138,-0.8941581267\C,12.79444
 17235,-9.2016450507,-1.747844132\N,13.5979760547,-8.2893324185,-2.2908
 082807\C,14.8973288801,-8.3161321141,-2.0106323725\H,23.3655424363,-8.
 5158784316,1.2696742521\H,23.8265998588,-8.8273258124,-0.3893190235\H,
 25.5845198824,-2.9629341447,-0.5029358922\H,25.8321769093,-3.315752117
 1,-2.9461669479\H,25.1288956694,-5.4210449006,-3.9774435654\H,24.15709
 10569,-7.241156471,-2.6448661766\H,22.6414962736,-10.4441159591,0.6830
 613081\H,21.0474960318,-11.0548917213,0.9812071172\H,20.8201556912,-11
 .8131297944,-1.321057966\H,22.4995125624,-13.0557305048,0.4596744488\H
 ,22.3728711626,-13.6191169048,-1.1865284555\H,24.664320157,-12.1179267
 163,0.0368729\H,24.6427429619,-13.0634605757,-1.4422178719\H,22.520938
 3107,-11.4962004961,-3.0166380095\H,22.4881259372,-9.8986498262,-2.284
 7418605\H,19.1354074602,-9.5481494381,1.6629293142\H,16.7297385713,-9.
 5626002515,1.2144686014\H,17.5098741351,-8.9247372259,-2.9270397856\H,
 19.9110701486,-8.8851258714,-2.463428449\H,15.0216126325,-10.977282174
 2,0.0368992977\H,12.6005625715,-10.9064295611,-0.4737853183\H,11.75732
 88223,-9.1384807482,-2.0047135368\H,15.4922283155,-7.545309853,-2.4562
 13214\\Version=EM64L-G09RevC.01\State=1-A\HF=-1343.5775752\RMSD=9.140e
 -09\RMSF=5.688e-06\Dipole=-0.1680176,-3.8635733,-0.4643232\Quadrupole=
 -5.3163712,5.9019215,-0.5855503,5.1144355,-16.6100956,-14.5744209\PG=C
 01 [X(C24H23N5O2)]\\@


 A MAN SHOULD NEVER BE ASHAMED TO OWN HE HAS BEEN IN THE WRONG
 WHICH IS BUT SAYING IN OTHER WORDS,
 THAT HE IS WISER TODAY THAN HE WAS YESTERDAY.

                          -- JONATHAN SWIFT
 Job cpu time:  0 days  4 hours 20 minutes 30.2 seconds.
 File lengths (MBytes):  RWF=     73 Int=      0 D2E=      0 Chk=     11 Scr=      1
 Normal termination of Gaussian 09 at Sat Aug 27 02:20:48 2022.
