 Entering Gaussian System, Link 0=g09
 Input=Mol20.gjf
 Output=Mol20.log
 Initial command:
 /opt/gaussian/l1.exe /home/scr/lqcapf-6/Gau-257468.inp -scrdir=/home/scr/lqcapf-6/
 Entering Link 1 = /opt/gaussian/l1.exe PID=    257470.
  
 Copyright (c) 1988,1990,1992,1993,1995,1998,2003,2009,2011,
            Gaussian, Inc.  All Rights Reserved.
  
 This is part of the Gaussian(R) 09 program.  It is based on
 the Gaussian(R) 03 system (copyright 2003, Gaussian, Inc.),
 the Gaussian(R) 98 system (copyright 1998, Gaussian, Inc.),
 the Gaussian(R) 94 system (copyright 1995, Gaussian, Inc.),
 the Gaussian 92(TM) system (copyright 1992, Gaussian, Inc.),
 the Gaussian 90(TM) system (copyright 1990, Gaussian, Inc.),
 the Gaussian 88(TM) system (copyright 1988, Gaussian, Inc.),
 the Gaussian 86(TM) system (copyright 1986, Carnegie Mellon
 University), and the Gaussian 82(TM) system (copyright 1983,
 Carnegie Mellon University). Gaussian is a federally registered
 trademark of Gaussian, Inc.
  
 This software contains proprietary and confidential information,
 including trade secrets, belonging to Gaussian, Inc.
  
 This software is provided under written license and may be
 used, copied, transmitted, or stored only in accord with that
 written license.
  
 The following legend is applicable only to US Government
 contracts under FAR:
  
                    RESTRICTED RIGHTS LEGEND
  
 Use, reproduction and disclosure by the US Government is
 subject to restrictions as set forth in subparagraphs (a)
 and (c) of the Commercial Computer Software - Restricted
 Rights clause in FAR 52.227-19.
  
 Gaussian, Inc.
 340 Quinnipiac St., Bldg. 40, Wallingford CT 06492
  
  
 ---------------------------------------------------------------
 Warning -- This program may not be used in any manner that
 competes with the business of Gaussian, Inc. or will provide
 assistance to any competitor of Gaussian, Inc.  The licensee
 of this program is prohibited from giving any competitor of
 Gaussian, Inc. access to this program.  By using this program,
 the user acknowledges that Gaussian, Inc. is engaged in the
 business of creating and licensing software in the field of
 computational chemistry and represents and warrants to the
 licensee that it is not a competitor of Gaussian, Inc. and that
 it will not use this program in any manner prohibited above.
 ---------------------------------------------------------------
  

 Cite this work as:
 Gaussian 09, Revision C.01,
 M. J. Frisch, G. W. Trucks, H. B. Schlegel, G. E. Scuseria, 
 M. A. Robb, J. R. Cheeseman, G. Scalmani, V. Barone, B. Mennucci, 
 G. A. Petersson, H. Nakatsuji, M. Caricato, X. Li, H. P. Hratchian, 
 A. F. Izmaylov, J. Bloino, G. Zheng, J. L. Sonnenberg, M. Hada, 
 M. Ehara, K. Toyota, R. Fukuda, J. Hasegawa, M. Ishida, T. Nakajima, 
 Y. Honda, O. Kitao, H. Nakai, T. Vreven, J. A. Montgomery, Jr., 
 J. E. Peralta, F. Ogliaro, M. Bearpark, J. J. Heyd, E. Brothers, 
 K. N. Kudin, V. N. Staroverov, T. Keith, R. Kobayashi, J. Normand, 
 K. Raghavachari, A. Rendell, J. C. Burant, S. S. Iyengar, J. Tomasi, 
 M. Cossi, N. Rega, J. M. Millam, M. Klene, J. E. Knox, J. B. Cross, 
 V. Bakken, C. Adamo, J. Jaramillo, R. Gomperts, R. E. Stratmann, 
 O. Yazyev, A. J. Austin, R. Cammi, C. Pomelli, J. W. Ochterski, 
 R. L. Martin, K. Morokuma, V. G. Zakrzewski, G. A. Voth, 
 P. Salvador, J. J. Dannenberg, S. Dapprich, A. D. Daniels, 
 O. Farkas, J. B. Foresman, J. V. Ortiz, J. Cioslowski, 
 and D. J. Fox, Gaussian, Inc., Wallingford CT, 2010.
 
 ******************************************
 Gaussian 09:  EM64L-G09RevC.01 23-Sep-2011
                26-Aug-2022 
 ******************************************
 %nprocshared=8
 Will use up to    8 processors via shared memory.
 %mem=1600MB
 ---------------
 #p opt hf/6-31G
 ---------------
 1/18=20,19=15,38=1/1,3;
 2/9=110,12=2,17=6,18=5,40=1/2;
 3/5=1,6=6,11=9,16=1,25=1,30=1,71=1/1,2,3;
 4//1;
 5/5=2,38=5/2;
 6/7=2,8=2,9=2,10=2,28=1/1;
 7//1,2,3,16;
 1/18=20,19=15/3(2);
 2/9=110/2;
 99//99;
 2/9=110/2;
 3/5=1,6=6,11=9,16=1,25=1,30=1,71=1/1,2,3;
 4/5=5,16=3/1;
 5/5=2,38=5/2;
 7//1,2,3,16;
 1/18=20,19=15/3(-5);
 2/9=110/2;
 6/7=2,8=2,9=2,10=2,19=2,28=1/1;
 99/9=1/99;
 Leave Link    1 at Fri Aug 26 21:23:29 2022, MaxMem=  209715200 cpu:       0.1
 (Enter /opt/gaussian/l101.exe)
 ---------
 Mol20.out
 ---------
 Charge =  0 Multiplicity = 1
 Symbolic Z-Matrix:
 C                     12.8148  -11.6791  -2.0917 
 N                     13.8578  -10.7468  -1.8293 
 C                     13.7669  -9.3448   -1.8508 
 N                     14.9451  -8.7665   -1.5532 
 C                     15.8487  -9.8213   -1.3299 
 C                     15.1782  -11.0554  -1.5012 
 C                     17.2415  -9.6433   -0.9713 
 C                     17.7192  -8.4169   -0.4877 
 C                     19.0501  -8.2644   -0.1149 
 C                     19.9541  -9.3429   -0.2264 
 C                     19.4769  -10.5675  -0.7432 
 C                     18.1419  -10.7101  -1.1003 
 N                     21.3025  -9.2126    0.204 
 C                     21.9493  -10.3802   0.7604 
 C                     22.8824  -11.1175  -0.1391 
 C                     22.7487  -11.2242  -1.5626 
 C                     23.7375  -12.0161  -2.1031 
 S                     24.77    -12.6018  -0.9289 
 C                     23.9716  -11.838    0.3168 
 C                     22.0336  -8.0458   -0.0475 
 O                     21.5391  -7.0805   -0.6501 
 C                     23.4756  -8.01      0.4929 
 N                     24.185   -6.7792    0.2632 
 N                     23.8842  -5.5999    0.9017 
 N                     24.4136  -4.6081    0.3445 
 C                     25.1095  -5.0386   -0.8317 
 C                     25.8674  -4.3714   -1.7933 
 C                     26.425   -5.1348   -2.8136 
 C                     26.2415  -6.5258   -2.8826 
 C                     25.4971  -7.2221   -1.9359 
 C                     24.9276  -6.4742   -0.9047 
 H                     12.9991  -12.2065  -3.0673 
 H                     12.7688  -12.445   -1.2711 
 H                     11.8318  -11.1406  -2.1474 
 H                     12.8368  -8.8172   -2.085 
 H                     15.5299  -12.0803  -1.4081 
 H                     17.0365  -7.5565   -0.3978 
 H                     19.3975  -7.284     0.2508 
 H                     20.1572  -11.4241  -0.8737 
 H                     17.7942  -11.6748  -1.4993 
 H                     22.5155  -10.0658   1.6878 
 H                     21.1476  -11.1031   1.1006 
 H                     21.9543  -10.7299  -2.1288 
 H                     23.8508  -12.2467  -3.1615 
 H                     24.2853  -11.9165   1.3569 
 H                     23.4413  -8.1805    1.6091 
 H                     24.0631  -8.8398    0.0029 
 H                     26.0146  -3.2832   -1.7411 
 H                     27.0264  -4.6383   -3.5902 
 H                     26.7003  -7.0819   -3.715 
 H                     25.3605  -8.3092   -2.0024 
 
 NAtoms=     51 NQM=        0 NQMF=       0 NMMI=     51 NMMIF=      0
                NMic=       0 NMicF=      0.
                    Isotopes and Nuclear Properties:
 (Nuclear quadrupole moments (NQMom) in fm**2, nuclear magnetic moments (NMagM)
  in nuclear magnetons)

  Atom         1           2           3           4           5           6           7           8           9          10
 IAtWgt=          12          14          12          14          12          12          12          12          12          12
 AtmWgt=  12.0000000  14.0030740  12.0000000  14.0030740  12.0000000  12.0000000  12.0000000  12.0000000  12.0000000  12.0000000
 NucSpn=           0           2           0           2           0           0           0           0           0           0
 AtZEff=   0.0000000   0.0000000   0.0000000   0.0000000   0.0000000   0.0000000   0.0000000   0.0000000   0.0000000   0.0000000
 NQMom=    0.0000000   2.0440000   0.0000000   2.0440000   0.0000000   0.0000000   0.0000000   0.0000000   0.0000000   0.0000000
 NMagM=    0.0000000   0.4037610   0.0000000   0.4037610   0.0000000   0.0000000   0.0000000   0.0000000   0.0000000   0.0000000

  Atom        11          12          13          14          15          16          17          18          19          20
 IAtWgt=          12          12          14          12          12          12          12          32          12          12
 AtmWgt=  12.0000000  12.0000000  14.0030740  12.0000000  12.0000000  12.0000000  12.0000000  31.9720718  12.0000000  12.0000000
 NucSpn=           0           0           2           0           0           0           0           0           0           0
 AtZEff=   0.0000000   0.0000000   0.0000000   0.0000000   0.0000000   0.0000000   0.0000000   0.0000000   0.0000000   0.0000000
 NQMom=    0.0000000   0.0000000   2.0440000   0.0000000   0.0000000   0.0000000   0.0000000   0.0000000   0.0000000   0.0000000
 NMagM=    0.0000000   0.0000000   0.4037610   0.0000000   0.0000000   0.0000000   0.0000000   0.0000000   0.0000000   0.0000000

  Atom        21          22          23          24          25          26          27          28          29          30
 IAtWgt=          16          12          14          14          14          12          12          12          12          12
 AtmWgt=  15.9949146  12.0000000  14.0030740  14.0030740  14.0030740  12.0000000  12.0000000  12.0000000  12.0000000  12.0000000
 NucSpn=           0           0           2           2           2           0           0           0           0           0
 AtZEff=   0.0000000   0.0000000   0.0000000   0.0000000   0.0000000   0.0000000   0.0000000   0.0000000   0.0000000   0.0000000
 NQMom=    0.0000000   0.0000000   2.0440000   2.0440000   2.0440000   0.0000000   0.0000000   0.0000000   0.0000000   0.0000000
 NMagM=    0.0000000   0.0000000   0.4037610   0.4037610   0.4037610   0.0000000   0.0000000   0.0000000   0.0000000   0.0000000

  Atom        31          32          33          34          35          36          37          38          39          40
 IAtWgt=          12           1           1           1           1           1           1           1           1           1
 AtmWgt=  12.0000000   1.0078250   1.0078250   1.0078250   1.0078250   1.0078250   1.0078250   1.0078250   1.0078250   1.0078250
 NucSpn=           0           1           1           1           1           1           1           1           1           1
 AtZEff=   0.0000000   0.0000000   0.0000000   0.0000000   0.0000000   0.0000000   0.0000000   0.0000000   0.0000000   0.0000000
 NQMom=    0.0000000   0.0000000   0.0000000   0.0000000   0.0000000   0.0000000   0.0000000   0.0000000   0.0000000   0.0000000
 NMagM=    0.0000000   2.7928460   2.7928460   2.7928460   2.7928460   2.7928460   2.7928460   2.7928460   2.7928460   2.7928460

  Atom        41          42          43          44          45          46          47          48          49          50
 IAtWgt=           1           1           1           1           1           1           1           1           1           1
 AtmWgt=   1.0078250   1.0078250   1.0078250   1.0078250   1.0078250   1.0078250   1.0078250   1.0078250   1.0078250   1.0078250
 NucSpn=           1           1           1           1           1           1           1           1           1           1
 AtZEff=   0.0000000   0.0000000   0.0000000   0.0000000   0.0000000   0.0000000   0.0000000   0.0000000   0.0000000   0.0000000
 NQMom=    0.0000000   0.0000000   0.0000000   0.0000000   0.0000000   0.0000000   0.0000000   0.0000000   0.0000000   0.0000000
 NMagM=    2.7928460   2.7928460   2.7928460   2.7928460   2.7928460   2.7928460   2.7928460   2.7928460   2.7928460   2.7928460

  Atom        51
 IAtWgt=           1
 AtmWgt=   1.0078250
 NucSpn=           1
 AtZEff=   0.0000000
 NQMom=    0.0000000
 NMagM=    2.7928460
 Leave Link  101 at Fri Aug 26 21:23:29 2022, MaxMem=  209715200 cpu:       0.8
 (Enter /opt/gaussian/l103.exe)

 GradGradGradGradGradGradGradGradGradGradGradGradGradGradGradGradGradGrad
 Berny optimization.
 Initialization pass.
                           ----------------------------
                           !    Initial Parameters    !
                           ! (Angstroms and Degrees)  !
 --------------------------                            --------------------------
 ! Name  Definition              Value          Derivative Info.                !
 --------------------------------------------------------------------------------
 ! R1    R(1,2)                  1.4233         estimate D2E/DX2                !
 ! R2    R(1,32)                 1.1242         estimate D2E/DX2                !
 ! R3    R(1,33)                 1.1234         estimate D2E/DX2                !
 ! R4    R(1,34)                 1.1222         estimate D2E/DX2                !
 ! R5    R(2,3)                  1.4051         estimate D2E/DX2                !
 ! R6    R(2,6)                  1.3951         estimate D2E/DX2                !
 ! R7    R(3,4)                  1.3458         estimate D2E/DX2                !
 ! R8    R(3,35)                 1.0947         estimate D2E/DX2                !
 ! R9    R(4,5)                  1.4068         estimate D2E/DX2                !
 ! R10   R(5,6)                  1.4149         estimate D2E/DX2                !
 ! R11   R(5,7)                  1.4492         estimate D2E/DX2                !
 ! R12   R(6,36)                 1.0876         estimate D2E/DX2                !
 ! R13   R(7,8)                  1.4022         estimate D2E/DX2                !
 ! R14   R(7,12)                 1.4019         estimate D2E/DX2                !
 ! R15   R(8,9)                  1.3905         estimate D2E/DX2                !
 ! R16   R(8,37)                 1.102          estimate D2E/DX2                !
 ! R17   R(9,10)                 1.4117         estimate D2E/DX2                !
 ! R18   R(9,38)                 1.1025         estimate D2E/DX2                !
 ! R19   R(10,11)                1.4122         estimate D2E/DX2                !
 ! R20   R(10,13)                1.4214         estimate D2E/DX2                !
 ! R21   R(11,12)                1.3893         estimate D2E/DX2                !
 ! R22   R(11,39)                1.1016         estimate D2E/DX2                !
 ! R23   R(12,40)                1.1003         estimate D2E/DX2                !
 ! R24   R(13,14)                1.4461         estimate D2E/DX2                !
 ! R25   R(13,20)                1.3997         estimate D2E/DX2                !
 ! R26   R(14,15)                1.4911         estimate D2E/DX2                !
 ! R27   R(14,41)                1.1312         estimate D2E/DX2                !
 ! R28   R(14,42)                1.1318         estimate D2E/DX2                !
 ! R29   R(15,16)                1.4337         estimate D2E/DX2                !
 ! R30   R(15,19)                1.3832         estimate D2E/DX2                !
 ! R31   R(16,17)                1.3773         estimate D2E/DX2                !
 ! R32   R(16,43)                1.0936         estimate D2E/DX2                !
 ! R33   R(17,18)                1.6697         estimate D2E/DX2                !
 ! R34   R(17,44)                1.0891         estimate D2E/DX2                !
 ! R35   R(18,19)                1.6651         estimate D2E/DX2                !
 ! R36   R(19,45)                1.0892         estimate D2E/DX2                !
 ! R37   R(20,21)                1.2408         estimate D2E/DX2                !
 ! R38   R(20,22)                1.5403         estimate D2E/DX2                !
 ! R39   R(22,23)                1.4391         estimate D2E/DX2                !
 ! R40   R(22,46)                1.1297         estimate D2E/DX2                !
 ! R41   R(22,47)                1.1286         estimate D2E/DX2                !
 ! R42   R(23,24)                1.3744         estimate D2E/DX2                !
 ! R43   R(23,31)                1.4172         estimate D2E/DX2                !
 ! R44   R(24,25)                1.2548         estimate D2E/DX2                !
 ! R45   R(25,26)                1.4328         estimate D2E/DX2                !
 ! R46   R(26,27)                1.3944         estimate D2E/DX2                !
 ! R47   R(26,31)                1.4489         estimate D2E/DX2                !
 ! R48   R(27,28)                1.3909         estimate D2E/DX2                !
 ! R49   R(27,48)                1.0994         estimate D2E/DX2                !
 ! R50   R(28,29)                1.4047         estimate D2E/DX2                !
 ! R51   R(28,49)                1.1006         estimate D2E/DX2                !
 ! R52   R(29,30)                1.3911         estimate D2E/DX2                !
 ! R53   R(29,50)                1.1012         estimate D2E/DX2                !
 ! R54   R(30,31)                1.3954         estimate D2E/DX2                !
 ! R55   R(30,51)                1.0977         estimate D2E/DX2                !
 ! A1    A(2,1,32)             110.3119         estimate D2E/DX2                !
 ! A2    A(2,1,33)             109.9925         estimate D2E/DX2                !
 ! A3    A(2,1,34)             109.6772         estimate D2E/DX2                !
 ! A4    A(32,1,33)            108.7088         estimate D2E/DX2                !
 ! A5    A(32,1,34)            109.0039         estimate D2E/DX2                !
 ! A6    A(33,1,34)            109.1188         estimate D2E/DX2                !
 ! A7    A(1,2,3)              127.1091         estimate D2E/DX2                !
 ! A8    A(1,2,6)              126.2998         estimate D2E/DX2                !
 ! A9    A(3,2,6)              106.591          estimate D2E/DX2                !
 ! A10   A(2,3,4)              111.6379         estimate D2E/DX2                !
 ! A11   A(2,3,35)             122.6256         estimate D2E/DX2                !
 ! A12   A(4,3,35)             125.7365         estimate D2E/DX2                !
 ! A13   A(3,4,5)              105.9764         estimate D2E/DX2                !
 ! A14   A(4,5,6)              109.2926         estimate D2E/DX2                !
 ! A15   A(4,5,7)              124.3686         estimate D2E/DX2                !
 ! A16   A(6,5,7)              126.3372         estimate D2E/DX2                !
 ! A17   A(2,6,5)              106.5019         estimate D2E/DX2                !
 ! A18   A(2,6,36)             122.3206         estimate D2E/DX2                !
 ! A19   A(5,6,36)             131.1748         estimate D2E/DX2                !
 ! A20   A(5,7,8)              121.3454         estimate D2E/DX2                !
 ! A21   A(5,7,12)             120.068          estimate D2E/DX2                !
 ! A22   A(8,7,12)             118.5863         estimate D2E/DX2                !
 ! A23   A(7,8,9)              120.9617         estimate D2E/DX2                !
 ! A24   A(7,8,37)             119.9968         estimate D2E/DX2                !
 ! A25   A(9,8,37)             119.0414         estimate D2E/DX2                !
 ! A26   A(8,9,10)             120.5279         estimate D2E/DX2                !
 ! A27   A(8,9,38)             119.211          estimate D2E/DX2                !
 ! A28   A(10,9,38)            120.2499         estimate D2E/DX2                !
 ! A29   A(9,10,11)            118.3591         estimate D2E/DX2                !
 ! A30   A(9,10,13)            120.8995         estimate D2E/DX2                !
 ! A31   A(11,10,13)           120.7198         estimate D2E/DX2                !
 ! A32   A(10,11,12)           120.5152         estimate D2E/DX2                !
 ! A33   A(10,11,39)           120.593          estimate D2E/DX2                !
 ! A34   A(12,11,39)           118.8913         estimate D2E/DX2                !
 ! A35   A(7,12,11)            121.0246         estimate D2E/DX2                !
 ! A36   A(7,12,40)            119.839          estimate D2E/DX2                !
 ! A37   A(11,12,40)           119.1336         estimate D2E/DX2                !
 ! A38   A(10,13,14)           117.8258         estimate D2E/DX2                !
 ! A39   A(10,13,20)           121.165          estimate D2E/DX2                !
 ! A40   A(14,13,20)           120.5688         estimate D2E/DX2                !
 ! A41   A(13,14,15)           116.553          estimate D2E/DX2                !
 ! A42   A(13,14,41)           108.3558         estimate D2E/DX2                !
 ! A43   A(13,14,42)           108.3324         estimate D2E/DX2                !
 ! A44   A(15,14,41)           108.5895         estimate D2E/DX2                !
 ! A45   A(15,14,42)           107.9843         estimate D2E/DX2                !
 ! A46   A(41,14,42)           106.5973         estimate D2E/DX2                !
 ! A47   A(14,15,16)           125.2664         estimate D2E/DX2                !
 ! A48   A(14,15,19)           123.4695         estimate D2E/DX2                !
 ! A49   A(16,15,19)           111.2171         estimate D2E/DX2                !
 ! A50   A(15,16,17)           111.4366         estimate D2E/DX2                !
 ! A51   A(15,16,43)           123.2393         estimate D2E/DX2                !
 ! A52   A(17,16,43)           125.3241         estimate D2E/DX2                !
 ! A53   A(16,17,18)           111.6947         estimate D2E/DX2                !
 ! A54   A(16,17,44)           125.2943         estimate D2E/DX2                !
 ! A55   A(18,17,44)           123.011          estimate D2E/DX2                !
 ! A56   A(17,18,19)            93.9392         estimate D2E/DX2                !
 ! A57   A(15,19,18)           111.7109         estimate D2E/DX2                !
 ! A58   A(15,19,45)           125.3843         estimate D2E/DX2                !
 ! A59   A(18,19,45)           122.9039         estimate D2E/DX2                !
 ! A60   A(13,20,21)           121.8458         estimate D2E/DX2                !
 ! A61   A(13,20,22)           116.4432         estimate D2E/DX2                !
 ! A62   A(21,20,22)           121.6958         estimate D2E/DX2                !
 ! A63   A(20,22,23)           115.1739         estimate D2E/DX2                !
 ! A64   A(20,22,46)           108.3436         estimate D2E/DX2                !
 ! A65   A(20,22,47)           108.5361         estimate D2E/DX2                !
 ! A66   A(23,22,46)           107.564          estimate D2E/DX2                !
 ! A67   A(23,22,47)           107.633          estimate D2E/DX2                !
 ! A68   A(46,22,47)           109.5004         estimate D2E/DX2                !
 ! A69   A(22,23,24)           123.4933         estimate D2E/DX2                !
 ! A70   A(22,23,31)           125.0236         estimate D2E/DX2                !
 ! A71   A(24,23,31)           108.232          estimate D2E/DX2                !
 ! A72   A(23,24,25)           112.3087         estimate D2E/DX2                !
 ! A73   A(24,25,26)           109.3877         estimate D2E/DX2                !
 ! A74   A(25,26,27)           133.3404         estimate D2E/DX2                !
 ! A75   A(25,26,31)           106.1453         estimate D2E/DX2                !
 ! A76   A(27,26,31)           120.5036         estimate D2E/DX2                !
 ! A77   A(26,27,28)           117.4613         estimate D2E/DX2                !
 ! A78   A(26,27,48)           120.9092         estimate D2E/DX2                !
 ! A79   A(28,27,48)           121.6295         estimate D2E/DX2                !
 ! A80   A(27,28,29)           121.8118         estimate D2E/DX2                !
 ! A81   A(27,28,49)           119.2787         estimate D2E/DX2                !
 ! A82   A(29,28,49)           118.9094         estimate D2E/DX2                !
 ! A83   A(28,29,30)           122.148          estimate D2E/DX2                !
 ! A84   A(28,29,50)           118.8657         estimate D2E/DX2                !
 ! A85   A(30,29,50)           118.9861         estimate D2E/DX2                !
 ! A86   A(29,30,31)           116.939          estimate D2E/DX2                !
 ! A87   A(29,30,51)           121.4047         estimate D2E/DX2                !
 ! A88   A(31,30,51)           121.6554         estimate D2E/DX2                !
 ! A89   A(23,31,26)           103.7389         estimate D2E/DX2                !
 ! A90   A(23,31,30)           135.0335         estimate D2E/DX2                !
 ! A91   A(26,31,30)           121.1349         estimate D2E/DX2                !
 ! D1    D(32,1,2,3)           110.0142         estimate D2E/DX2                !
 ! D2    D(32,1,2,6)           -69.8516         estimate D2E/DX2                !
 ! D3    D(33,1,2,3)          -130.0766         estimate D2E/DX2                !
 ! D4    D(33,1,2,6)            50.0576         estimate D2E/DX2                !
 ! D5    D(34,1,2,3)           -10.0601         estimate D2E/DX2                !
 ! D6    D(34,1,2,6)           170.0741         estimate D2E/DX2                !
 ! D7    D(1,2,3,4)            179.9278         estimate D2E/DX2                !
 ! D8    D(1,2,3,35)            -0.0879         estimate D2E/DX2                !
 ! D9    D(6,2,3,4)             -0.185          estimate D2E/DX2                !
 ! D10   D(6,2,3,35)           179.7993         estimate D2E/DX2                !
 ! D11   D(1,2,6,5)           -179.9643         estimate D2E/DX2                !
 ! D12   D(1,2,6,36)            -0.5019         estimate D2E/DX2                !
 ! D13   D(3,2,6,5)              0.1474         estimate D2E/DX2                !
 ! D14   D(3,2,6,36)           179.6098         estimate D2E/DX2                !
 ! D15   D(2,3,4,5)              0.1408         estimate D2E/DX2                !
 ! D16   D(35,3,4,5)          -179.8429         estimate D2E/DX2                !
 ! D17   D(3,4,5,6)             -0.0434         estimate D2E/DX2                !
 ! D18   D(3,4,5,7)           -179.6069         estimate D2E/DX2                !
 ! D19   D(4,5,6,2)             -0.0676         estimate D2E/DX2                !
 ! D20   D(4,5,6,36)          -179.464          estimate D2E/DX2                !
 ! D21   D(7,5,6,2)            179.4851         estimate D2E/DX2                !
 ! D22   D(7,5,6,36)             0.0887         estimate D2E/DX2                !
 ! D23   D(4,5,7,8)             16.508          estimate D2E/DX2                !
 ! D24   D(4,5,7,12)          -163.7082         estimate D2E/DX2                !
 ! D25   D(6,5,7,8)           -162.9805         estimate D2E/DX2                !
 ! D26   D(6,5,7,12)            16.8032         estimate D2E/DX2                !
 ! D27   D(5,7,8,9)            178.4008         estimate D2E/DX2                !
 ! D28   D(5,7,8,37)            -1.5481         estimate D2E/DX2                !
 ! D29   D(12,7,8,9)            -1.386          estimate D2E/DX2                !
 ! D30   D(12,7,8,37)          178.6651         estimate D2E/DX2                !
 ! D31   D(5,7,12,11)         -179.0117         estimate D2E/DX2                !
 ! D32   D(5,7,12,40)            1.6032         estimate D2E/DX2                !
 ! D33   D(8,7,12,11)            0.7779         estimate D2E/DX2                !
 ! D34   D(8,7,12,40)         -178.6071         estimate D2E/DX2                !
 ! D35   D(7,8,9,10)             0.5194         estimate D2E/DX2                !
 ! D36   D(7,8,9,38)           179.3104         estimate D2E/DX2                !
 ! D37   D(37,8,9,10)         -179.5312         estimate D2E/DX2                !
 ! D38   D(37,8,9,38)           -0.7402         estimate D2E/DX2                !
 ! D39   D(8,9,10,11)            0.9508         estimate D2E/DX2                !
 ! D40   D(8,9,10,13)         -177.3693         estimate D2E/DX2                !
 ! D41   D(38,9,10,11)        -177.8277         estimate D2E/DX2                !
 ! D42   D(38,9,10,13)           3.8523         estimate D2E/DX2                !
 ! D43   D(9,10,11,12)          -1.5529         estimate D2E/DX2                !
 ! D44   D(9,10,11,39)         178.2037         estimate D2E/DX2                !
 ! D45   D(13,10,11,12)        176.7703         estimate D2E/DX2                !
 ! D46   D(13,10,11,39)         -3.4731         estimate D2E/DX2                !
 ! D47   D(9,10,13,14)         146.5518         estimate D2E/DX2                !
 ! D48   D(9,10,13,20)         -41.0226         estimate D2E/DX2                !
 ! D49   D(11,10,13,14)        -31.7285         estimate D2E/DX2                !
 ! D50   D(11,10,13,20)        140.697          estimate D2E/DX2                !
 ! D51   D(10,11,12,7)           0.6973         estimate D2E/DX2                !
 ! D52   D(10,11,12,40)       -179.9133         estimate D2E/DX2                !
 ! D53   D(39,11,12,7)        -179.0634         estimate D2E/DX2                !
 ! D54   D(39,11,12,40)          0.326          estimate D2E/DX2                !
 ! D55   D(10,13,14,15)        101.4456         estimate D2E/DX2                !
 ! D56   D(10,13,14,41)       -135.7827         estimate D2E/DX2                !
 ! D57   D(10,13,14,42)        -20.5062         estimate D2E/DX2                !
 ! D58   D(20,13,14,15)        -71.0272         estimate D2E/DX2                !
 ! D59   D(20,13,14,41)         51.7445         estimate D2E/DX2                !
 ! D60   D(20,13,14,42)        167.021          estimate D2E/DX2                !
 ! D61   D(10,13,20,21)          0.1586         estimate D2E/DX2                !
 ! D62   D(10,13,20,22)        178.762          estimate D2E/DX2                !
 ! D63   D(14,13,20,21)        172.3775         estimate D2E/DX2                !
 ! D64   D(14,13,20,22)         -9.0191         estimate D2E/DX2                !
 ! D65   D(13,14,15,16)        -31.6492         estimate D2E/DX2                !
 ! D66   D(13,14,15,19)        151.0648         estimate D2E/DX2                !
 ! D67   D(41,14,15,16)       -154.2994         estimate D2E/DX2                !
 ! D68   D(41,14,15,19)         28.4147         estimate D2E/DX2                !
 ! D69   D(42,14,15,16)         90.4849         estimate D2E/DX2                !
 ! D70   D(42,14,15,19)        -86.801          estimate D2E/DX2                !
 ! D71   D(14,15,16,17)       -177.5129         estimate D2E/DX2                !
 ! D72   D(14,15,16,43)          2.5372         estimate D2E/DX2                !
 ! D73   D(19,15,16,17)          0.0586         estimate D2E/DX2                !
 ! D74   D(19,15,16,43)       -179.8912         estimate D2E/DX2                !
 ! D75   D(14,15,19,18)        177.3181         estimate D2E/DX2                !
 ! D76   D(14,15,19,45)         -2.342          estimate D2E/DX2                !
 ! D77   D(16,15,19,18)         -0.305          estimate D2E/DX2                !
 ! D78   D(16,15,19,45)       -179.9651         estimate D2E/DX2                !
 ! D79   D(15,16,17,18)          0.2125         estimate D2E/DX2                !
 ! D80   D(15,16,17,44)       -179.8715         estimate D2E/DX2                !
 ! D81   D(43,16,17,18)       -179.8389         estimate D2E/DX2                !
 ! D82   D(43,16,17,44)          0.0771         estimate D2E/DX2                !
 ! D83   D(16,17,18,19)         -0.3361         estimate D2E/DX2                !
 ! D84   D(44,17,18,19)        179.7456         estimate D2E/DX2                !
 ! D85   D(17,18,19,15)          0.3704         estimate D2E/DX2                !
 ! D86   D(17,18,19,45)       -179.9596         estimate D2E/DX2                !
 ! D87   D(13,20,22,23)       -177.7551         estimate D2E/DX2                !
 ! D88   D(13,20,22,46)        -57.2824         estimate D2E/DX2                !
 ! D89   D(13,20,22,47)         61.5401         estimate D2E/DX2                !
 ! D90   D(21,20,22,23)          0.8505         estimate D2E/DX2                !
 ! D91   D(21,20,22,46)        121.3232         estimate D2E/DX2                !
 ! D92   D(21,20,22,47)       -119.8542         estimate D2E/DX2                !
 ! D93   D(20,22,23,24)         70.1165         estimate D2E/DX2                !
 ! D94   D(20,22,23,31)        -87.084          estimate D2E/DX2                !
 ! D95   D(46,22,23,24)        -50.7819         estimate D2E/DX2                !
 ! D96   D(46,22,23,31)        152.0176         estimate D2E/DX2                !
 ! D97   D(47,22,23,24)       -168.6869         estimate D2E/DX2                !
 ! D98   D(47,22,23,31)         34.1125         estimate D2E/DX2                !
 ! D99   D(22,23,24,25)       -165.0572         estimate D2E/DX2                !
 ! D100  D(31,23,24,25)         -4.5755         estimate D2E/DX2                !
 ! D101  D(22,23,31,26)        164.0773         estimate D2E/DX2                !
 ! D102  D(22,23,31,30)        -19.5612         estimate D2E/DX2                !
 ! D103  D(24,23,31,26)          3.969          estimate D2E/DX2                !
 ! D104  D(24,23,31,30)       -179.6696         estimate D2E/DX2                !
 ! D105  D(23,24,25,26)          3.0276         estimate D2E/DX2                !
 ! D106  D(24,25,26,27)       -179.1223         estimate D2E/DX2                !
 ! D107  D(24,25,26,31)         -0.3497         estimate D2E/DX2                !
 ! D108  D(25,26,27,28)        178.9949         estimate D2E/DX2                !
 ! D109  D(25,26,27,48)         -1.0095         estimate D2E/DX2                !
 ! D110  D(31,26,27,28)          0.3634         estimate D2E/DX2                !
 ! D111  D(31,26,27,48)       -179.641          estimate D2E/DX2                !
 ! D112  D(25,26,31,23)         -2.2628         estimate D2E/DX2                !
 ! D113  D(25,26,31,30)       -179.2594         estimate D2E/DX2                !
 ! D114  D(27,26,31,23)        176.7011         estimate D2E/DX2                !
 ! D115  D(27,26,31,30)         -0.2955         estimate D2E/DX2                !
 ! D116  D(26,27,28,29)         -0.128          estimate D2E/DX2                !
 ! D117  D(26,27,28,49)        179.8236         estimate D2E/DX2                !
 ! D118  D(48,27,28,29)        179.8764         estimate D2E/DX2                !
 ! D119  D(48,27,28,49)         -0.1719         estimate D2E/DX2                !
 ! D120  D(27,28,29,30)         -0.1987         estimate D2E/DX2                !
 ! D121  D(27,28,29,50)        179.6514         estimate D2E/DX2                !
 ! D122  D(49,28,29,30)        179.8495         estimate D2E/DX2                !
 ! D123  D(49,28,29,50)         -0.3004         estimate D2E/DX2                !
 ! D124  D(28,29,30,31)          0.2685         estimate D2E/DX2                !
 ! D125  D(28,29,30,51)        179.9217         estimate D2E/DX2                !
 ! D126  D(50,29,30,31)       -179.5815         estimate D2E/DX2                !
 ! D127  D(50,29,30,51)          0.0717         estimate D2E/DX2                !
 ! D128  D(29,30,31,23)       -175.8962         estimate D2E/DX2                !
 ! D129  D(29,30,31,26)         -0.0263         estimate D2E/DX2                !
 ! D130  D(51,30,31,23)          4.4515         estimate D2E/DX2                !
 ! D131  D(51,30,31,26)       -179.6786         estimate D2E/DX2                !
 --------------------------------------------------------------------------------
 Trust Radius=3.00D-01 FncErr=1.00D-07 GrdErr=1.00D-07
 Number of steps in this run=    287 maximum allowed number of steps=    306.
 GradGradGradGradGradGradGradGradGradGradGradGradGradGradGradGradGradGrad

 Leave Link  103 at Fri Aug 26 21:23:29 2022, MaxMem=  209715200 cpu:       0.1
 (Enter /opt/gaussian/l202.exe)
 Stoichiometry    C23H20N6OS
 Framework group  C1[X(C23H20N6OS)]
 Deg. of freedom   147
 Full point group                 C1      NOp   1
 Largest Abelian subgroup         C1      NOp   1
 Largest concise Abelian subgroup C1      NOp   1
                         Standard orientation:                         
 ---------------------------------------------------------------------
 Center     Atomic      Atomic             Coordinates (Angstroms)
 Number     Number       Type             X           Y           Z
 ---------------------------------------------------------------------
      1          6           0       -8.811177   -0.044194    0.843832
      2          7           0       -7.519177   -0.598165    0.620810
      3          6           0       -7.168223   -1.958737    0.623122
      4          7           0       -5.857083   -2.133445    0.375051
      5          6           0       -5.319936   -0.844362    0.205648
      6          6           0       -6.348972    0.114636    0.358373
      7          6           0       -3.927705   -0.570442   -0.089023
      8          6           0       -3.071152   -1.574489   -0.562659
      9          6           0       -1.745048   -1.295289   -0.874149
     10          6           0       -1.228753    0.008142   -0.708870
     11          6           0       -2.085640    1.009812   -0.202068
     12          6           0       -3.411893    0.720320    0.093442
     13          7           0        0.109401    0.315308   -1.076836
     14          6           0        0.381344    1.639741   -1.589813
     15          6           0        0.999337    2.608641   -0.639706
     16          6           0        0.780329    2.633079    0.776998
     17          6           0        1.448946    3.680090    1.371717
     18         16           0        2.294275    4.587310    0.253586
     19          6           0        1.826692    3.643793   -1.036276
     20          6           0        1.157458   -0.571343   -0.803691
     21          8           0        0.964927   -1.657292   -0.235266
     22          6           0        2.559452   -0.142517   -1.276130
     23          7           0        3.607815   -1.096184   -1.026459
     24          7           0        3.717231   -2.294305   -1.690873
     25          7           0        4.506561   -3.085165   -1.119995
     26          6           0        4.983892   -2.488465    0.092093
     27          6           0        5.871941   -2.909791    1.081080
     28          6           0        6.120432   -2.036128    2.134491
     29          6           0        5.508766   -0.773772    2.209571
     30          6           0        4.623820   -0.320966    1.236410
     31          6           0        4.359642   -1.183345    0.171718
     32          1           0       -8.841364    0.490055    1.832558
     33          1           0       -9.060281    0.689283    0.030160
     34          1           0       -9.578093   -0.863462    0.847586
     35          1           0       -7.895712   -2.755582    0.807769
     36          1           0       -6.331625    1.200075    0.292785
     37          1           0       -3.446474   -2.602313   -0.693654
     38          1           0       -1.093893   -2.109201   -1.233527
     39          1           0       -1.713085    2.032274   -0.030674
     40          1           0       -4.059802    1.518401    0.485900
     41          1           0        1.055223    1.540540   -2.492890
     42          1           0       -0.591338    2.084939   -1.959586
     43          1           0        0.157507    1.901941    1.299986
     44          1           0        1.440706    3.908241    2.436660
     45          1           0        2.142820    3.841882   -2.059605
     46          1           0        2.519713    0.036376   -2.390835
     47          1           0        2.837467    0.816664   -0.750295
     48          1           0        6.353842   -3.896258    1.024292
     49          1           0        6.814257   -2.339512    2.933157
     50          1           0        5.736031   -0.123159    3.068459
     51          1           0        4.151731    0.667406    1.307967
 ---------------------------------------------------------------------
 Rotational constants (GHZ):      0.2067641      0.0615230      0.0516975
 Leave Link  202 at Fri Aug 26 21:23:29 2022, MaxMem=  209715200 cpu:       0.0
 (Enter /opt/gaussian/l301.exe)
 Standard basis: 6-31G (6D, 7F)
 Ernie: Thresh=  0.10000D-02 Tol=  0.10000D-05 Strict=F.
 There are   323 symmetry adapted basis functions of A   symmetry.
 Integral buffers will be    131072 words long.
 Raffenetti 1 integral format.
 Two-electron integral symmetry is turned on.
   323 basis functions,   786 primitive gaussians,   323 cartesian basis functions
   112 alpha electrons      112 beta electrons
       nuclear repulsion energy      2918.0771016434 Hartrees.



 Warning!  S  atom   18 may be hypervalent but has no d functions.



 IExCor=    0 DFT=F Ex=HF Corr=None ExCW=0 ScaHFX=  1.000000
 ScaDFX=  1.000000  1.000000  1.000000  1.000000 ScalE2=  1.000000  1.000000
 IRadAn=      0 IRanWt=     -1 IRanGd=            0 ICorTp=0
 NAtoms=   51 NActive=   51 NUniq=   51 SFac= 1.00D+00 NAtFMM=   60 NAOKFM=F Big=F
 Leave Link  301 at Fri Aug 26 21:23:29 2022, MaxMem=  209715200 cpu:       0.2
 (Enter /opt/gaussian/l302.exe)
 NPDir=0 NMtPBC=     1 NCelOv=     1 NCel=       1 NClECP=     1 NCelD=      1
         NCelK=      1 NCelE2=     1 NClLst=     1 CellRange=     0.0.
 One-electron integrals computed using PRISM.
 NBasis=   323 RedAO= T  NBF=   323
 NBsUse=   323 1.00D-06 NBFU=   323
 Leave Link  302 at Fri Aug 26 21:23:29 2022, MaxMem=  209715200 cpu:       1.9
 (Enter /opt/gaussian/l303.exe)
 DipDrv:  MaxL=1.
 Leave Link  303 at Fri Aug 26 21:23:29 2022, MaxMem=  209715200 cpu:       0.4
 (Enter /opt/gaussian/l401.exe)
 Harris functional with IExCor=  205 diagonalized for initial guess.
 ExpMin= 1.17D-01 ExpMax= 2.19D+04 ExpMxC= 3.30D+03 IAcc=1 IRadAn=         1 AccDes= 0.00D+00
 HarFok:  IExCor=  205 AccDes= 0.00D+00 IRadAn=         1 IDoV= 1
 ScaDFX=  1.000000  1.000000  1.000000  1.000000
 FoFCou: FMM=F IPFlag=           0 FMFlag=      100000 FMFlg1=           0
         NFxFlg=           0 DoJE=T BraDBF=F KetDBF=T FulRan=T
         Omega=  0.000000  0.000000  1.000000  0.000000  0.000000 ICntrl=     500 IOpCl=  0
         NMat0=    1 NMatS0=    1 NMatT0=    0 NMatD0=    1 NMtDS0=    0 NMtDT0=    0
         I1Cent=           4 NGrid=           0.
 Petite list used in FoFCou.
 Harris En= -1682.15665406615    
 Initial guess orbital symmetries:
       Occupied  (A) (A) (A) (A) (A) (A) (A) (A) (A) (A) (A) (A)
                 (A) (A) (A) (A) (A) (A) (A) (A) (A) (A) (A) (A)
                 (A) (A) (A) (A) (A) (A) (A) (A) (A) (A) (A) (A)
                 (A) (A) (A) (A) (A) (A) (A) (A) (A) (A) (A) (A)
                 (A) (A) (A) (A) (A) (A) (A) (A) (A) (A) (A) (A)
                 (A) (A) (A) (A) (A) (A) (A) (A) (A) (A) (A) (A)
                 (A) (A) (A) (A) (A) (A) (A) (A) (A) (A) (A) (A)
                 (A) (A) (A) (A) (A) (A) (A) (A) (A) (A) (A) (A)
                 (A) (A) (A) (A) (A) (A) (A) (A) (A) (A) (A) (A)
                 (A) (A) (A) (A)
       Virtual   (A) (A) (A) (A) (A) (A) (A) (A) (A) (A) (A) (A)
                 (A) (A) (A) (A) (A) (A) (A) (A) (A) (A) (A) (A)
                 (A) (A) (A) (A) (A) (A) (A) (A) (A) (A) (A) (A)
                 (A) (A) (A) (A) (A) (A) (A) (A) (A) (A) (A) (A)
                 (A) (A) (A) (A) (A) (A) (A) (A) (A) (A) (A) (A)
                 (A) (A) (A) (A) (A) (A) (A) (A) (A) (A) (A) (A)
                 (A) (A) (A) (A) (A) (A) (A) (A) (A) (A) (A) (A)
                 (A) (A) (A) (A) (A) (A) (A) (A) (A) (A) (A) (A)
                 (A) (A) (A) (A) (A) (A) (A) (A) (A) (A) (A) (A)
                 (A) (A) (A) (A) (A) (A) (A) (A) (A) (A) (A) (A)
                 (A) (A) (A) (A) (A) (A) (A) (A) (A) (A) (A) (A)
                 (A) (A) (A) (A) (A) (A) (A) (A) (A) (A) (A) (A)
                 (A) (A) (A) (A) (A) (A) (A) (A) (A) (A) (A) (A)
                 (A) (A) (A) (A) (A) (A) (A) (A) (A) (A) (A) (A)
                 (A) (A) (A) (A) (A) (A) (A) (A) (A) (A) (A) (A)
                 (A) (A) (A) (A) (A) (A) (A) (A) (A) (A) (A) (A)
                 (A) (A) (A) (A) (A) (A) (A) (A) (A) (A) (A) (A)
                 (A) (A) (A) (A) (A) (A) (A)
 The electronic state of the initial guess is 1-A.
 Leave Link  401 at Fri Aug 26 21:23:30 2022, MaxMem=  209715200 cpu:       4.4
 (Enter /opt/gaussian/l502.exe)
 Closed shell SCF:
 Requested convergence on RMS density matrix=1.00D-08 within 128 cycles.
 Requested convergence on MAX density matrix=1.00D-06.
 Requested convergence on             energy=1.00D-06.
 No special actions if energy rises.
 Using DIIS extrapolation, IDIIS=  1040.
 Integral symmetry usage will be decided dynamically.
 IEnd=      336214 IEndB=      336214 NGot=   209715200 MDV=   209500279
 LenX=   209500279 LenY=   209395509
 Fock matrices will be formed incrementally for  20 cycles.
 Integral accuracy reduced to 1.0D-05 until final iterations.

 Cycle   1  Pass 0  IDiag  1:
 FoFCou: FMM=F IPFlag=           0 FMFlag=      100000 FMFlg1=           0
         NFxFlg=           0 DoJE=F BraDBF=F KetDBF=F FulRan=T
         Omega=  0.000000  0.000000  1.000000  0.000000  0.000000 ICntrl=       0 IOpCl=  0
         NMat0=    1 NMatS0=    1 NMatT0=    0 NMatD0=    1 NMtDS0=    0 NMtDT0=    0
         I1Cent=           0 NGrid=           0.
 Symmetry not used in FoFCou.
 E= -1680.01099375891    
 DIIS: error= 4.61D-02 at cycle   1 NSaved=   1.
 NSaved= 1 IEnMin= 1 EnMin= -1680.01099375891     IErMin= 1 ErrMin= 4.61D-02
 ErrMax= 4.61D-02 EMaxC= 1.00D-01 BMatC= 1.10D+00 BMatP= 1.10D+00
 IDIUse=3 WtCom= 5.39D-01 WtEn= 4.61D-01
 Coeff-Com:  0.100D+01
 Coeff-En:   0.100D+01
 Coeff:      0.100D+01
 Gap=     0.399 Goal=   None    Shift=    0.000
 GapD=    0.399 DampG=1.000 DampE=0.500 DampFc=0.5000 IDamp=-1.
 Damping current iteration by 5.00D-01
 RMSDP=6.06D-03 MaxDP=1.60D-01              OVMax= 1.76D-01

 Cycle   2  Pass 0  IDiag  1:
 RMSU=  2.13D-03    CP:  9.86D-01
 E= -1680.51103861570     Delta-E=       -0.500044856799 Rises=F Damp=T
 DIIS: error= 1.65D-02 at cycle   2 NSaved=   2.
 NSaved= 2 IEnMin= 2 EnMin= -1680.51103861570     IErMin= 2 ErrMin= 1.65D-02
 ErrMax= 1.65D-02 EMaxC= 1.00D-01 BMatC= 1.94D-01 BMatP= 1.10D+00
 IDIUse=3 WtCom= 8.35D-01 WtEn= 1.65D-01
 Coeff-Com: -0.473D+00 0.147D+01
 Coeff-En:   0.000D+00 0.100D+01
 Coeff:     -0.395D+00 0.139D+01
 Gap=     0.405 Goal=   None    Shift=    0.000
 RMSDP=2.80D-03 MaxDP=5.97D-02 DE=-5.00D-01 OVMax= 8.47D-02

 Cycle   3  Pass 0  IDiag  1:
 RMSU=  1.53D-03    CP:  9.72D-01  1.58D+00
 E= -1680.95191880179     Delta-E=       -0.440880186089 Rises=F Damp=F
 DIIS: error= 6.20D-03 at cycle   3 NSaved=   3.
 NSaved= 3 IEnMin= 3 EnMin= -1680.95191880179     IErMin= 3 ErrMin= 6.20D-03
 ErrMax= 6.20D-03 EMaxC= 1.00D-01 BMatC= 1.29D-02 BMatP= 1.94D-01
 IDIUse=3 WtCom= 9.38D-01 WtEn= 6.20D-02
 Coeff-Com: -0.155D+00 0.323D+00 0.832D+00
 Coeff-En:   0.000D+00 0.000D+00 0.100D+01
 Coeff:     -0.145D+00 0.303D+00 0.842D+00
 Gap=     0.374 Goal=   None    Shift=    0.000
 RMSDP=6.09D-04 MaxDP=2.17D-02 DE=-4.41D-01 OVMax= 2.65D-02

 Cycle   4  Pass 0  IDiag  1:
 RMSU=  3.41D-04    CP:  9.73D-01  1.70D+00  9.91D-01
 E= -1680.96465446396     Delta-E=       -0.012735662165 Rises=F Damp=F
 DIIS: error= 1.95D-03 at cycle   4 NSaved=   4.
 NSaved= 4 IEnMin= 4 EnMin= -1680.96465446396     IErMin= 4 ErrMin= 1.95D-03
 ErrMax= 1.95D-03 EMaxC= 1.00D-01 BMatC= 2.20D-03 BMatP= 1.29D-02
 IDIUse=3 WtCom= 9.81D-01 WtEn= 1.95D-02
 Coeff-Com: -0.108D-01-0.476D-02 0.292D+00 0.724D+00
 Coeff-En:   0.000D+00 0.000D+00 0.000D+00 0.100D+01
 Coeff:     -0.106D-01-0.466D-02 0.286D+00 0.729D+00
 Gap=     0.369 Goal=   None    Shift=    0.000
 RMSDP=2.45D-04 MaxDP=8.23D-03 DE=-1.27D-02 OVMax= 1.25D-02

 Cycle   5  Pass 0  IDiag  1:
 RMSU=  1.34D-04    CP:  9.71D-01  1.70D+00  1.05D+00  8.03D-01
 E= -1680.96704593681     Delta-E=       -0.002391472851 Rises=F Damp=F
 DIIS: error= 9.49D-04 at cycle   5 NSaved=   5.
 NSaved= 5 IEnMin= 5 EnMin= -1680.96704593681     IErMin= 5 ErrMin= 9.49D-04
 ErrMax= 9.49D-04 EMaxC= 1.00D-01 BMatC= 1.41D-04 BMatP= 2.20D-03
 IDIUse=3 WtCom= 9.91D-01 WtEn= 9.49D-03
 Coeff-Com:  0.119D-01-0.276D-01-0.132D-01 0.879D-01 0.941D+00
 Coeff-En:   0.000D+00 0.000D+00 0.000D+00 0.000D+00 0.100D+01
 Coeff:      0.118D-01-0.274D-01-0.131D-01 0.871D-01 0.942D+00
 Gap=     0.370 Goal=   None    Shift=    0.000
 RMSDP=1.02D-04 MaxDP=5.01D-03 DE=-2.39D-03 OVMax= 5.23D-03

 Cycle   6  Pass 0  IDiag  1:
 RMSU=  5.18D-05    CP:  9.71D-01  1.70D+00  1.07D+00  8.78D-01  1.13D+00
 E= -1680.96743104049     Delta-E=       -0.000385103678 Rises=F Damp=F
 DIIS: error= 4.73D-04 at cycle   6 NSaved=   6.
 NSaved= 6 IEnMin= 6 EnMin= -1680.96743104049     IErMin= 6 ErrMin= 4.73D-04
 ErrMax= 4.73D-04 EMaxC= 1.00D-01 BMatC= 3.74D-05 BMatP= 1.41D-04
 IDIUse=3 WtCom= 9.95D-01 WtEn= 4.73D-03
 Coeff-Com:  0.596D-02-0.635D-02-0.652D-01-0.175D+00 0.138D+00 0.110D+01
 Coeff-En:   0.000D+00 0.000D+00 0.000D+00 0.000D+00 0.000D+00 0.100D+01
 Coeff:      0.593D-02-0.632D-02-0.649D-01-0.174D+00 0.137D+00 0.110D+01
 Gap=     0.370 Goal=   None    Shift=    0.000
 RMSDP=7.01D-05 MaxDP=2.60D-03 DE=-3.85D-04 OVMax= 6.27D-03

 Cycle   7  Pass 0  IDiag  1:
 RMSU=  2.00D-05    CP:  9.71D-01  1.70D+00  1.09D+00  9.00D-01  1.40D+00
                    CP:  1.30D+00
 E= -1680.96756598359     Delta-E=       -0.000134943108 Rises=F Damp=F
 DIIS: error= 2.14D-04 at cycle   7 NSaved=   7.
 NSaved= 7 IEnMin= 7 EnMin= -1680.96756598359     IErMin= 7 ErrMin= 2.14D-04
 ErrMax= 2.14D-04 EMaxC= 1.00D-01 BMatC= 4.22D-06 BMatP= 3.74D-05
 IDIUse=3 WtCom= 9.98D-01 WtEn= 2.14D-03
 Coeff-Com: -0.648D-03 0.202D-02 0.861D-03-0.232D-01-0.943D-01 0.560D-01
 Coeff-Com:  0.106D+01
 Coeff-En:   0.000D+00 0.000D+00 0.000D+00 0.000D+00 0.000D+00 0.000D+00
 Coeff-En:   0.100D+01
 Coeff:     -0.647D-03 0.202D-02 0.859D-03-0.231D-01-0.941D-01 0.558D-01
 Coeff:      0.106D+01
 Gap=     0.370 Goal=   None    Shift=    0.000
 RMSDP=2.11D-05 MaxDP=8.17D-04 DE=-1.35D-04 OVMax= 1.57D-03

 Cycle   8  Pass 0  IDiag  1:
 RMSU=  6.89D-06    CP:  9.71D-01  1.70D+00  1.09D+00  9.04D-01  1.45D+00
                    CP:  1.47D+00  1.31D+00
 E= -1680.96758115717     Delta-E=       -0.000015173579 Rises=F Damp=F
 DIIS: error= 6.34D-05 at cycle   8 NSaved=   8.
 NSaved= 8 IEnMin= 8 EnMin= -1680.96758115717     IErMin= 8 ErrMin= 6.34D-05
 ErrMax= 6.34D-05 EMaxC= 1.00D-01 BMatC= 7.89D-07 BMatP= 4.22D-06
 IDIUse=1 WtCom= 1.00D+00 WtEn= 0.00D+00
 Coeff-Com: -0.121D-02 0.134D-02 0.153D-01 0.327D-01-0.379D-01-0.238D+00
 Coeff-Com:  0.142D+00 0.109D+01
 Coeff:     -0.121D-02 0.134D-02 0.153D-01 0.327D-01-0.379D-01-0.238D+00
 Coeff:      0.142D+00 0.109D+01
 Gap=     0.370 Goal=   None    Shift=    0.000
 RMSDP=1.04D-05 MaxDP=4.03D-04 DE=-1.52D-05 OVMax= 7.77D-04

 Cycle   9  Pass 0  IDiag  1:
 RMSU=  2.77D-06    CP:  9.71D-01  1.70D+00  1.09D+00  9.04D-01  1.47D+00
                    CP:  1.52D+00  1.56D+00  1.21D+00
 E= -1680.96758430575     Delta-E=       -0.000003148574 Rises=F Damp=F
 DIIS: error= 2.46D-05 at cycle   9 NSaved=   9.
 NSaved= 9 IEnMin= 9 EnMin= -1680.96758430575     IErMin= 9 ErrMin= 2.46D-05
 ErrMax= 2.46D-05 EMaxC= 1.00D-01 BMatC= 8.12D-08 BMatP= 7.89D-07
 IDIUse=1 WtCom= 1.00D+00 WtEn= 0.00D+00
 Coeff-Com: -0.691D-04-0.345D-04 0.181D-02 0.477D-02 0.374D-02-0.354D-01
 Coeff-Com: -0.577D-01 0.134D+00 0.949D+00
 Coeff:     -0.691D-04-0.345D-04 0.181D-02 0.477D-02 0.374D-02-0.354D-01
 Coeff:     -0.577D-01 0.134D+00 0.949D+00
 Gap=     0.370 Goal=   None    Shift=    0.000
 RMSDP=2.25D-06 MaxDP=6.06D-05 DE=-3.15D-06 OVMax= 2.24D-04

 Initial convergence to 1.0D-05 achieved.  Increase integral accuracy.
 Cycle  10  Pass 1  IDiag  1:
 E= -1680.96759289802     Delta-E=       -0.000008592277 Rises=F Damp=F
 DIIS: error= 9.21D-05 at cycle   1 NSaved=   1.
 NSaved= 1 IEnMin= 1 EnMin= -1680.96759289802     IErMin= 1 ErrMin= 9.21D-05
 ErrMax= 9.21D-05 EMaxC= 1.00D-01 BMatC= 1.37D-06 BMatP= 1.37D-06
 IDIUse=1 WtCom= 1.00D+00 WtEn= 0.00D+00
 Coeff-Com:  0.100D+01
 Coeff:      0.100D+01
 Gap=     0.370 Goal=   None    Shift=    0.000
 RMSDP=2.25D-06 MaxDP=6.06D-05 DE=-8.59D-06 OVMax= 1.22D-04

 Cycle  11  Pass 1  IDiag  1:
 RMSU=  3.56D-05    CP:  1.00D+00
 E= -1680.96759428385     Delta-E=       -0.000001385826 Rises=F Damp=F
 DIIS: error= 9.48D-06 at cycle   2 NSaved=   2.
 NSaved= 2 IEnMin= 2 EnMin= -1680.96759428385     IErMin= 2 ErrMin= 9.48D-06
 ErrMax= 9.48D-06 EMaxC= 1.00D-01 BMatC= 1.41D-08 BMatP= 1.37D-06
 IDIUse=1 WtCom= 1.00D+00 WtEn= 0.00D+00
 Coeff-Com: -0.373D-01 0.104D+01
 Coeff:     -0.373D-01 0.104D+01
 Gap=     0.370 Goal=   None    Shift=    0.000
 RMSDP=2.87D-06 MaxDP=5.48D-05 DE=-1.39D-06 OVMax= 7.62D-05

 Cycle  12  Pass 1  IDiag  1:
 RMSU=  7.22D-07    CP:  1.00D+00  1.05D+00
 E= -1680.96759431627     Delta-E=       -0.000000032418 Rises=F Damp=F
 DIIS: error= 5.86D-06 at cycle   3 NSaved=   3.
 NSaved= 3 IEnMin= 3 EnMin= -1680.96759431627     IErMin= 3 ErrMin= 5.86D-06
 ErrMax= 5.86D-06 EMaxC= 1.00D-01 BMatC= 6.80D-09 BMatP= 1.41D-08
 IDIUse=1 WtCom= 1.00D+00 WtEn= 0.00D+00
 Coeff-Com: -0.205D-01 0.387D+00 0.633D+00
 Coeff:     -0.205D-01 0.387D+00 0.633D+00
 Gap=     0.370 Goal=   None    Shift=    0.000
 RMSDP=3.76D-07 MaxDP=1.04D-05 DE=-3.24D-08 OVMax= 3.12D-05

 Cycle  13  Pass 1  IDiag  1:
 RMSU=  2.60D-07    CP:  1.00D+00  1.06D+00  1.01D+00
 E= -1680.96759432723     Delta-E=       -0.000000010961 Rises=F Damp=F
 DIIS: error= 4.68D-06 at cycle   4 NSaved=   4.
 NSaved= 4 IEnMin= 4 EnMin= -1680.96759432723     IErMin= 4 ErrMin= 4.68D-06
 ErrMax= 4.68D-06 EMaxC= 1.00D-01 BMatC= 1.55D-09 BMatP= 6.80D-09
 IDIUse=1 WtCom= 1.00D+00 WtEn= 0.00D+00
 Coeff-Com:  0.226D-01-0.545D+00-0.306D+00 0.183D+01
 Coeff:      0.226D-01-0.545D+00-0.306D+00 0.183D+01
 Gap=     0.370 Goal=   None    Shift=    0.000
 RMSDP=5.54D-07 MaxDP=1.32D-05 DE=-1.10D-08 OVMax= 7.47D-05

 Cycle  14  Pass 1  IDiag  1:
 RMSU=  2.18D-07    CP:  1.00D+00  1.06D+00  1.34D+00  1.82D+00
 E= -1680.96759433763     Delta-E=       -0.000000010405 Rises=F Damp=F
 DIIS: error= 1.43D-06 at cycle   5 NSaved=   5.
 NSaved= 5 IEnMin= 5 EnMin= -1680.96759433763     IErMin= 5 ErrMin= 1.43D-06
 ErrMax= 1.43D-06 EMaxC= 1.00D-01 BMatC= 1.68D-10 BMatP= 1.55D-09
 IDIUse=1 WtCom= 1.00D+00 WtEn= 0.00D+00
 Coeff-Com:  0.580D-02-0.123D+00-0.135D+00 0.184D+00 0.107D+01
 Coeff:      0.580D-02-0.123D+00-0.135D+00 0.184D+00 0.107D+01
 Gap=     0.370 Goal=   None    Shift=    0.000
 RMSDP=1.77D-07 MaxDP=4.03D-06 DE=-1.04D-08 OVMax= 2.48D-05

 Cycle  15  Pass 1  IDiag  1:
 RMSU=  4.97D-08    CP:  1.00D+00  1.06D+00  1.40D+00  2.09D+00  1.37D+00
 E= -1680.96759433855     Delta-E=       -0.000000000917 Rises=F Damp=F
 DIIS: error= 3.57D-07 at cycle   6 NSaved=   6.
 NSaved= 6 IEnMin= 6 EnMin= -1680.96759433855     IErMin= 6 ErrMin= 3.57D-07
 ErrMax= 3.57D-07 EMaxC= 1.00D-01 BMatC= 3.05D-11 BMatP= 1.68D-10
 IDIUse=1 WtCom= 1.00D+00 WtEn= 0.00D+00
 Coeff-Com: -0.202D-02 0.531D-01 0.169D-01-0.241D+00 0.321D+00 0.852D+00
 Coeff:     -0.202D-02 0.531D-01 0.169D-01-0.241D+00 0.321D+00 0.852D+00
 Gap=     0.370 Goal=   None    Shift=    0.000
 RMSDP=4.41D-08 MaxDP=8.97D-07 DE=-9.17D-10 OVMax= 5.10D-06

 Cycle  16  Pass 1  IDiag  1:
 RMSU=  1.70D-08    CP:  1.00D+00  1.06D+00  1.40D+00  2.12D+00  1.47D+00
                    CP:  1.04D+00
 E= -1680.96759433858     Delta-E=       -0.000000000027 Rises=F Damp=F
 DIIS: error= 1.54D-07 at cycle   7 NSaved=   7.
 NSaved= 7 IEnMin= 7 EnMin= -1680.96759433858     IErMin= 7 ErrMin= 1.54D-07
 ErrMax= 1.54D-07 EMaxC= 1.00D-01 BMatC= 3.59D-12 BMatP= 3.05D-11
 IDIUse=1 WtCom= 1.00D+00 WtEn= 0.00D+00
 Coeff-Com: -0.709D-03 0.153D-01 0.184D-01-0.367D-01-0.953D-01-0.335D-01
 Coeff-Com:  0.113D+01
 Coeff:     -0.709D-03 0.153D-01 0.184D-01-0.367D-01-0.953D-01-0.335D-01
 Coeff:      0.113D+01
 Gap=     0.370 Goal=   None    Shift=    0.000
 RMSDP=1.91D-08 MaxDP=3.65D-07 DE=-2.73D-11 OVMax= 2.03D-06

 Cycle  17  Pass 1  IDiag  1:
 RMSU=  7.59D-09    CP:  1.00D+00  1.06D+00  1.40D+00  2.13D+00  1.50D+00
                    CP:  1.17D+00  1.39D+00
 E= -1680.96759433860     Delta-E=       -0.000000000024 Rises=F Damp=F
 DIIS: error= 1.06D-07 at cycle   8 NSaved=   8.
 NSaved= 8 IEnMin= 8 EnMin= -1680.96759433860     IErMin= 8 ErrMin= 1.06D-07
 ErrMax= 1.06D-07 EMaxC= 1.00D-01 BMatC= 9.95D-13 BMatP= 3.59D-12
 IDIUse=1 WtCom= 1.00D+00 WtEn= 0.00D+00
 Coeff-Com:  0.364D-03-0.105D-01 0.164D-02 0.539D-01-0.103D+00-0.261D+00
 Coeff-Com:  0.334D+00 0.985D+00
 Coeff:      0.364D-03-0.105D-01 0.164D-02 0.539D-01-0.103D+00-0.261D+00
 Coeff:      0.334D+00 0.985D+00
 Gap=     0.370 Goal=   None    Shift=    0.000
 RMSDP=8.68D-09 MaxDP=2.48D-07 DE=-2.36D-11 OVMax= 1.04D-06

 SCF Done:  E(RHF) =  -1680.96759434     A.U. after   17 cycles
             Convg  =    0.8676D-08             -V/T =  2.0002
 KE= 1.680653578075D+03 PE=-9.778209453139D+03 EE= 3.498511179082D+03
 Leave Link  502 at Fri Aug 26 21:24:43 2022, MaxMem=  209715200 cpu:     579.0
 (Enter /opt/gaussian/l601.exe)
 Copying SCF densities to generalized density rwf, IOpCl= 0 IROHF=0.

 **********************************************************************

            Population analysis using the SCF density.

 **********************************************************************

 Orbital symmetries:
       Occupied  (A) (A) (A) (A) (A) (A) (A) (A) (A) (A) (A) (A)
                 (A) (A) (A) (A) (A) (A) (A) (A) (A) (A) (A) (A)
                 (A) (A) (A) (A) (A) (A) (A) (A) (A) (A) (A) (A)
                 (A) (A) (A) (A) (A) (A) (A) (A) (A) (A) (A) (A)
                 (A) (A) (A) (A) (A) (A) (A) (A) (A) (A) (A) (A)
                 (A) (A) (A) (A) (A) (A) (A) (A) (A) (A) (A) (A)
                 (A) (A) (A) (A) (A) (A) (A) (A) (A) (A) (A) (A)
                 (A) (A) (A) (A) (A) (A) (A) (A) (A) (A) (A) (A)
                 (A) (A) (A) (A) (A) (A) (A) (A) (A) (A) (A) (A)
                 (A) (A) (A) (A)
       Virtual   (A) (A) (A) (A) (A) (A) (A) (A) (A) (A) (A) (A)
                 (A) (A) (A) (A) (A) (A) (A) (A) (A) (A) (A) (A)
                 (A) (A) (A) (A) (A) (A) (A) (A) (A) (A) (A) (A)
                 (A) (A) (A) (A) (A) (A) (A) (A) (A) (A) (A) (A)
                 (A) (A) (A) (A) (A) (A) (A) (A) (A) (A) (A) (A)
                 (A) (A) (A) (A) (A) (A) (A) (A) (A) (A) (A) (A)
                 (A) (A) (A) (A) (A) (A) (A) (A) (A) (A) (A) (A)
                 (A) (A) (A) (A) (A) (A) (A) (A) (A) (A) (A) (A)
                 (A) (A) (A) (A) (A) (A) (A) (A) (A) (A) (A) (A)
                 (A) (A) (A) (A) (A) (A) (A) (A) (A) (A) (A) (A)
                 (A) (A) (A) (A) (A) (A) (A) (A) (A) (A) (A) (A)
                 (A) (A) (A) (A) (A) (A) (A) (A) (A) (A) (A) (A)
                 (A) (A) (A) (A) (A) (A) (A) (A) (A) (A) (A) (A)
                 (A) (A) (A) (A) (A) (A) (A) (A) (A) (A) (A) (A)
                 (A) (A) (A) (A) (A) (A) (A) (A) (A) (A) (A) (A)
                 (A) (A) (A) (A) (A) (A) (A) (A) (A) (A) (A) (A)
                 (A) (A) (A) (A) (A) (A) (A) (A) (A) (A) (A) (A)
                 (A) (A) (A) (A) (A) (A) (A)
 The electronic state is 1-A.
 Alpha  occ. eigenvalues --  -91.99441 -20.54830 -15.66753 -15.65307 -15.63933
 Alpha  occ. eigenvalues --  -15.62004 -15.61896 -15.56803 -11.39016 -11.32270
 Alpha  occ. eigenvalues --  -11.31667 -11.30931 -11.30378 -11.30225 -11.29261
 Alpha  occ. eigenvalues --  -11.28850 -11.28561 -11.27937 -11.27868 -11.27382
 Alpha  occ. eigenvalues --  -11.26906 -11.26423 -11.26149 -11.26123 -11.25956
 Alpha  occ. eigenvalues --  -11.24850 -11.24789 -11.24767 -11.24454 -11.23558
 Alpha  occ. eigenvalues --  -11.23361  -9.01834  -6.69987  -6.69816  -6.69536
 Alpha  occ. eigenvalues --   -1.46009  -1.40439  -1.34405  -1.28246  -1.24053
 Alpha  occ. eigenvalues --   -1.22508  -1.19710  -1.16748  -1.15179  -1.06849
 Alpha  occ. eigenvalues --   -1.05197  -1.04628  -1.03701  -1.01937  -1.01500
 Alpha  occ. eigenvalues --   -1.01436  -0.99683  -0.95921  -0.94020  -0.88405
 Alpha  occ. eigenvalues --   -0.87272  -0.84337  -0.83586  -0.81633  -0.79237
 Alpha  occ. eigenvalues --   -0.78442  -0.78033  -0.76926  -0.75078  -0.72676
 Alpha  occ. eigenvalues --   -0.72121  -0.71511  -0.71037  -0.70251  -0.68632
 Alpha  occ. eigenvalues --   -0.65207  -0.65073  -0.64721  -0.64411  -0.63678
 Alpha  occ. eigenvalues --   -0.62459  -0.62108  -0.61503  -0.61242  -0.60476
 Alpha  occ. eigenvalues --   -0.59552  -0.58848  -0.58406  -0.57889  -0.57525
 Alpha  occ. eigenvalues --   -0.56749  -0.56141  -0.54903  -0.54726  -0.53664
 Alpha  occ. eigenvalues --   -0.53433  -0.53043  -0.52837  -0.51865  -0.50457
 Alpha  occ. eigenvalues --   -0.50077  -0.49312  -0.49235  -0.48706  -0.44914
 Alpha  occ. eigenvalues --   -0.42789  -0.42181  -0.41849  -0.41028  -0.38353
 Alpha  occ. eigenvalues --   -0.36465  -0.34892  -0.34323  -0.33497  -0.33444
 Alpha  occ. eigenvalues --   -0.32257  -0.27266
 Alpha virt. eigenvalues --    0.09750   0.10420   0.10984   0.13940   0.14750
 Alpha virt. eigenvalues --    0.16202   0.17287   0.18626   0.19593   0.19925
 Alpha virt. eigenvalues --    0.20682   0.21664   0.22542   0.23698   0.23934
 Alpha virt. eigenvalues --    0.24139   0.25148   0.25799   0.25948   0.27475
 Alpha virt. eigenvalues --    0.27536   0.28306   0.29021   0.29277   0.30097
 Alpha virt. eigenvalues --    0.31107   0.31220   0.31786   0.32149   0.32735
 Alpha virt. eigenvalues --    0.33596   0.34892   0.35359   0.35762   0.36500
 Alpha virt. eigenvalues --    0.37178   0.38638   0.39647   0.39947   0.40783
 Alpha virt. eigenvalues --    0.41569   0.41919   0.42450   0.43202   0.43738
 Alpha virt. eigenvalues --    0.45753   0.46498   0.47256   0.47666   0.48753
 Alpha virt. eigenvalues --    0.49547   0.50106   0.51480   0.51767   0.52329
 Alpha virt. eigenvalues --    0.53485   0.54523   0.55936   0.56480   0.57484
 Alpha virt. eigenvalues --    0.58189   0.60190   0.60921   0.62786   0.63746
 Alpha virt. eigenvalues --    0.64033   0.65557   0.71087   0.71403   0.71847
 Alpha virt. eigenvalues --    0.72626   0.73309   0.74123   0.74350   0.75079
 Alpha virt. eigenvalues --    0.75464   0.76550   0.77033   0.77329   0.77870
 Alpha virt. eigenvalues --    0.79470   0.79800   0.80505   0.81041   0.81318
 Alpha virt. eigenvalues --    0.81437   0.82004   0.83131   0.83427   0.83546
 Alpha virt. eigenvalues --    0.83594   0.84905   0.85504   0.85693   0.86049
 Alpha virt. eigenvalues --    0.86175   0.86497   0.86924   0.87379   0.88138
 Alpha virt. eigenvalues --    0.88902   0.89165   0.89624   0.90049   0.90503
 Alpha virt. eigenvalues --    0.91363   0.91536   0.92744   0.93211   0.93773
 Alpha virt. eigenvalues --    0.95210   0.95580   0.97121   0.97657   0.98172
 Alpha virt. eigenvalues --    0.99067   0.99657   1.00748   1.00834   1.01280
 Alpha virt. eigenvalues --    1.01911   1.02831   1.04521   1.05089   1.06867
 Alpha virt. eigenvalues --    1.07534   1.07674   1.08079   1.08444   1.08839
 Alpha virt. eigenvalues --    1.09911   1.10421   1.10693   1.11380   1.11625
 Alpha virt. eigenvalues --    1.12179   1.12614   1.12926   1.13740   1.14214
 Alpha virt. eigenvalues --    1.14988   1.15425   1.16124   1.16248   1.17010
 Alpha virt. eigenvalues --    1.17197   1.17561   1.17975   1.18273   1.18909
 Alpha virt. eigenvalues --    1.19718   1.20236   1.21332   1.21890   1.22963
 Alpha virt. eigenvalues --    1.23415   1.24941   1.25184   1.26675   1.27171
 Alpha virt. eigenvalues --    1.28396   1.29255   1.30877   1.31266   1.32251
 Alpha virt. eigenvalues --    1.33873   1.34840   1.36203   1.37171   1.38810
 Alpha virt. eigenvalues --    1.39187   1.40727   1.41739   1.42363   1.43079
 Alpha virt. eigenvalues --    1.43944   1.44363   1.45047   1.46527   1.49247
 Alpha virt. eigenvalues --    1.50637   1.51904   1.54641   1.55520   1.57433
 Alpha virt. eigenvalues --    1.58936   1.60867   1.62217   1.63068   1.63728
 Alpha virt. eigenvalues --    1.65617   1.67230   1.68725   1.69574   1.71054
 Alpha virt. eigenvalues --    1.74212   1.76476   1.76998   1.79927   1.84445
 Alpha virt. eigenvalues --    1.87112   1.91722   1.96063   1.98504   2.01475
 Alpha virt. eigenvalues --    2.02969   2.05581   2.15620   2.22211   2.25677
 Alpha virt. eigenvalues --    2.31961
          Condensed to atoms (all electrons):
 Mulliken atomic charges:
              1
     1  C   -0.214653
     2  N   -0.871639
     3  C    0.371779
     4  N   -0.560336
     5  C    0.032343
     6  C    0.175907
     7  C   -0.000646
     8  C   -0.197087
     9  C   -0.162918
    10  C    0.347479
    11  C   -0.238527
    12  C   -0.203698
    13  N   -0.982344
    14  C   -0.129970
    15  C    0.014832
    16  C   -0.107381
    17  C   -0.605109
    18  S    0.577390
    19  C   -0.612700
    20  C    0.799787
    21  O   -0.579094
    22  C   -0.144583
    23  N   -0.798398
    24  N    0.118983
    25  N   -0.315851
    26  C    0.031634
    27  C   -0.104729
    28  C   -0.234264
    29  C   -0.201465
    30  C   -0.117897
    31  C    0.391180
    32  H    0.186843
    33  H    0.186387
    34  H    0.185038
    35  H    0.236440
    36  H    0.240498
    37  H    0.257237
    38  H    0.260840
    39  H    0.219282
    40  H    0.204522
    41  H    0.187969
    42  H    0.229164
    43  H    0.253142
    44  H    0.252157
    45  H    0.247221
    46  H    0.240160
    47  H    0.242496
    48  H    0.245451
    49  H    0.207900
    50  H    0.209807
    51  H    0.229422
 Sum of Mulliken atomic charges =   0.00000
 Mulliken charges with hydrogens summed into heavy atoms:
              1
     1  C    0.343614
     2  N   -0.871639
     3  C    0.608219
     4  N   -0.560336
     5  C    0.032343
     6  C    0.416405
     7  C   -0.000646
     8  C    0.060150
     9  C    0.097922
    10  C    0.347479
    11  C   -0.019246
    12  C    0.000824
    13  N   -0.982344
    14  C    0.287163
    15  C    0.014832
    16  C    0.145761
    17  C   -0.352952
    18  S    0.577390
    19  C   -0.365479
    20  C    0.799787
    21  O   -0.579094
    22  C    0.338073
    23  N   -0.798398
    24  N    0.118983
    25  N   -0.315851
    26  C    0.031634
    27  C    0.140722
    28  C   -0.026364
    29  C    0.008343
    30  C    0.111525
    31  C    0.391180
 Sum of Mulliken charges with hydrogens summed into heavy atoms =   0.00000
 Electronic spatial extent (au):  <R**2>=          19857.6795
 Charge=              0.0000 electrons
 Dipole moment (field-independent basis, Debye):
    X=             -4.7826    Y=              8.6564    Z=              1.8946  Tot=             10.0695
 Quadrupole moment (field-independent basis, Debye-Ang):
   XX=           -130.3894   YY=           -203.4938   ZZ=           -184.0011
   XY=              2.0987   XZ=              6.5418   YZ=             -7.9913
 Traceless Quadrupole moment (field-independent basis, Debye-Ang):
   XX=             42.2387   YY=            -30.8657   ZZ=            -11.3730
   XY=              2.0987   XZ=              6.5418   YZ=             -7.9913
 Octapole moment (field-independent basis, Debye-Ang**2):
  XXX=           -609.1940  YYY=             23.6759  ZZZ=             12.8797  XYY=            -36.1546
  XXY=             27.9532  XXZ=            165.6130  XZZ=             29.6675  YZZ=             42.8996
  YYZ=             28.4021  XYZ=            -50.8771
 Hexadecapole moment (field-independent basis, Debye-Ang**3):
 XXXX=         -14882.1128 YYYY=          -5712.8721 ZZZZ=          -1358.3897 XXXY=            -22.0468
 XXXZ=           -171.8810 YYYX=             44.0864 YYYZ=            -92.2788 ZZZX=             70.9649
 ZZZY=            -11.5760 XXYY=          -4324.7095 XXZZ=          -3656.6715 YYZZ=          -1085.3615
 XXYZ=           -313.1414 YYXZ=            133.3069 ZZXY=             91.1953
 N-N= 2.918077101643D+03 E-N=-9.778209457642D+03  KE= 1.680653578075D+03
 No NMR shielding tensors so no spin-rotation constants.
 Leave Link  601 at Fri Aug 26 21:24:43 2022, MaxMem=  209715200 cpu:       1.4
 (Enter /opt/gaussian/l701.exe)
 Compute integral first derivatives.
 ... and contract with generalized density number  0.
 Leave Link  701 at Fri Aug 26 21:24:43 2022, MaxMem=  209715200 cpu:       1.2
 (Enter /opt/gaussian/l702.exe)
 L702 exits ... SP integral derivatives will be done elsewhere.
 Leave Link  702 at Fri Aug 26 21:24:43 2022, MaxMem=  209715200 cpu:       0.2
 (Enter /opt/gaussian/l703.exe)
 Compute integral first derivatives, UseDBF=F ICtDFT=           0.
 Integral derivatives from FoFDir, PRISM(SPDF).
 Calling FoFJK, ICntrl=      2127 FMM=F ISym2X=0 I1Cent= 0 IOpClX= 0 NMat=1 NMatS=1 NMatT=0.
 FoFCou: FMM=F IPFlag=           0 FMFlag=      100000 FMFlg1=         800
         NFxFlg=           0 DoJE=F BraDBF=F KetDBF=F FulRan=T
         Omega=  0.000000  0.000000  1.000000  0.000000  0.000000 ICntrl=    2127 IOpCl=  0
         NMat0=    1 NMatS0=    1 NMatT0=    0 NMatD0=    1 NMtDS0=    0 NMtDT0=    0
         I1Cent=           0 NGrid=           0.
 Symmetry not used in FoFCou.
 Leave Link  703 at Fri Aug 26 21:25:11 2022, MaxMem=  209715200 cpu:     221.8
 (Enter /opt/gaussian/l716.exe)
 Dipole        =-1.88162305D+00 3.40567716D+00 7.45373773D-01
 ***** Axes restored to original set *****
 -------------------------------------------------------------------
 Center     Atomic                   Forces (Hartrees/Bohr)
 Number     Number              X              Y              Z
 -------------------------------------------------------------------
      1        6          -0.027224637   -0.026354802   -0.008728929
      2        7           0.031482957    0.051372716    0.008753003
      3        6           0.027134776   -0.008497223    0.007225792
      4        7          -0.028496071   -0.042720494   -0.006207416
      5        6          -0.044986334   -0.033834908   -0.011891989
      6        6           0.005462836    0.035648845    0.001420488
      7        6           0.012781308    0.004380634    0.001712849
      8        6          -0.004174880    0.008063837    0.000409898
      9        6           0.008293111    0.006500132    0.005094635
     10        6          -0.025720000    0.003557942   -0.007055697
     11        6           0.011900156   -0.000903455    0.003775727
     12        6          -0.002891001   -0.004712258   -0.001555530
     13        7           0.015224037    0.017273298   -0.013455076
     14        6          -0.003158415   -0.015766909    0.049348578
     15        6           0.021720000   -0.015193412   -0.000229374
     16        6           0.004491304   -0.003523876   -0.012178281
     17        6          -0.057423013    0.034707358   -0.051172054
     18       16           0.076801606   -0.057228717   -0.006516706
     19        6          -0.050482716    0.044512618    0.051743205
     20        6          -0.020531689    0.015498004   -0.010261534
     21        8           0.021739934   -0.025277277    0.016287770
     22        6           0.006846115   -0.019054404    0.021739864
     23        7           0.008648194    0.012795322   -0.052076149
     24        7          -0.004308428   -0.012297161    0.012066065
     25        7           0.014903994   -0.005850431   -0.027175099
     26        6          -0.012747540   -0.045714521    0.012440602
     27        6          -0.001712947    0.011164459    0.004594474
     28        6           0.007199077    0.010181215   -0.008611017
     29        6           0.003228154   -0.009072274   -0.008314443
     30        6          -0.004390159   -0.010655895    0.002731248
     31        6          -0.000464404    0.040917505    0.022944241
     32        1          -0.007618988    0.011013689    0.022895013
     33        1          -0.001920746    0.017876478   -0.020301636
     34        1           0.023618234   -0.015046709    0.001360288
     35        1           0.018687427   -0.010823615    0.004815559
     36        1          -0.007376084    0.015897294   -0.000832628
     37        1           0.011749288   -0.018726076   -0.002255739
     38        1          -0.007317495   -0.023230108   -0.007901663
     39        1          -0.014401578    0.016689142    0.003064592
     40        1           0.007848882    0.017697148    0.006351563
     41        1          -0.017396715   -0.013053990   -0.021719322
     42        1           0.021076006    0.024995298   -0.006102784
     43        1           0.015546345   -0.008794015    0.006332820
     44        1           0.001257152    0.001492988    0.017639345
     45        1          -0.002113476   -0.000634157   -0.016849412
     46        1           0.002759279    0.002405818   -0.030740803
     47        1          -0.014484877    0.023036601    0.018722543
     48        1          -0.002795752   -0.019735214   -0.000718352
     49        1          -0.010999666   -0.008993049    0.014157898
     50        1          -0.008297395    0.010040593    0.015307728
     51        1           0.003034836    0.017976017   -0.000084154
 -------------------------------------------------------------------
 Cartesian Forces:  Max     0.076801606 RMS     0.020891358
 Leave Link  716 at Fri Aug 26 21:25:11 2022, MaxMem=  209715200 cpu:       0.2
 (Enter /opt/gaussian/l103.exe)

 GradGradGradGradGradGradGradGradGradGradGradGradGradGradGradGradGradGrad
 Berny optimization.
 Internal  Forces:  Max     0.061996019 RMS     0.011962499
 Search for a local minimum.
 Step number   1 out of a maximum of  287
 All quantities printed in internal units (Hartrees-Bohrs-Radians)
 RMS Force = .11962D-01 SwitMx=.10000D-02 MixMth= 1
 Mixed Optimization -- RFO/linear search
 Second derivative matrix not updated -- first step.
 ITU=  0
     Eigenvalues ---    0.00232   0.00820   0.00884   0.01082   0.01175
     Eigenvalues ---    0.01383   0.01388   0.01409   0.01438   0.01492
     Eigenvalues ---    0.01553   0.01584   0.01632   0.01651   0.01696
     Eigenvalues ---    0.01722   0.01747   0.01771   0.01775   0.01822
     Eigenvalues ---    0.01850   0.01869   0.01916   0.01962   0.01972
     Eigenvalues ---    0.02052   0.02055   0.02057   0.02071   0.02089
     Eigenvalues ---    0.02107   0.02121   0.02126   0.02128   0.02151
     Eigenvalues ---    0.02159   0.02179   0.02184   0.02187   0.02240
     Eigenvalues ---    0.02264   0.02301   0.04726   0.04787   0.06481
     Eigenvalues ---    0.06572   0.07758   0.07804   0.10318   0.10702
     Eigenvalues ---    0.13473   0.13691   0.15997   0.15999   0.15999
     Eigenvalues ---    0.16000   0.16000   0.16000   0.16000   0.16000
     Eigenvalues ---    0.16000   0.16000   0.16000   0.16000   0.16000
     Eigenvalues ---    0.16000   0.16000   0.16000   0.21999   0.22000
     Eigenvalues ---    0.22060   0.22151   0.22508   0.22579   0.22953
     Eigenvalues ---    0.23317   0.23379   0.23491   0.23998   0.24019
     Eigenvalues ---    0.24445   0.24651   0.24812   0.24869   0.24960
     Eigenvalues ---    0.24969   0.24988   0.24993   0.24999   0.25000
     Eigenvalues ---    0.25000   0.25000   0.28488   0.30394   0.30460
     Eigenvalues ---    0.30603   0.30704   0.31138   0.31218   0.31340
     Eigenvalues ---    0.33329   0.33402   0.33460   0.33502   0.33550
     Eigenvalues ---    0.33617   0.33645   0.33754   0.33942   0.34279
     Eigenvalues ---    0.34399   0.34904   0.34912   0.34967   0.35096
     Eigenvalues ---    0.37820   0.38114   0.38335   0.38350   0.38760
     Eigenvalues ---    0.39475   0.39715   0.40319   0.40822   0.41475
     Eigenvalues ---    0.41790   0.41920   0.41962   0.42249   0.42773
     Eigenvalues ---    0.43099   0.44410   0.44441   0.44633   0.45441
     Eigenvalues ---    0.45669   0.45896   0.45994   0.46012   0.46837
     Eigenvalues ---    0.46909   0.47343   0.48216   0.48783   0.53829
     Eigenvalues ---    0.77145   0.86750
 RFO step:  Lambda=-8.64126511D-02 EMin= 2.32195677D-03
 Linear search not attempted -- first point.
 Maximum step size (   0.300) exceeded in Quadratic search.
    -- Step size scaled by   0.685
 Iteration  1 RMS(Cart)=  0.08978244 RMS(Int)=  0.00094175
 Iteration  2 RMS(Cart)=  0.00272922 RMS(Int)=  0.00006131
 Iteration  3 RMS(Cart)=  0.00000199 RMS(Int)=  0.00006130
 Iteration  4 RMS(Cart)=  0.00000000 RMS(Int)=  0.00006130
 Variable       Old X    -DE/DX   Delta X   Delta X   Delta X     New X
                                 (Linear)    (Quad)   (Total)
    R1        2.68972   0.01871   0.00000   0.02534   0.02534   2.71505
    R2        2.12450  -0.02628   0.00000  -0.04528  -0.04528   2.07922
    R3        2.12298  -0.02694   0.00000  -0.04631  -0.04631   2.07667
    R4        2.12069  -0.02798   0.00000  -0.04795  -0.04795   2.07273
    R5        2.65527  -0.04384   0.00000  -0.05703  -0.05703   2.59824
    R6        2.63638  -0.02140   0.00000  -0.02574  -0.02575   2.61063
    R7        2.54318  -0.05143   0.00000  -0.05574  -0.05573   2.48744
    R8        2.06862  -0.02212   0.00000  -0.03533  -0.03533   2.03330
    R9        2.65838  -0.02436   0.00000  -0.03151  -0.03150   2.62688
   R10        2.67376  -0.05000   0.00000  -0.06469  -0.06470   2.60906
   R11        2.73858   0.01184   0.00000   0.01727   0.01727   2.75585
   R12        2.05519  -0.01744   0.00000  -0.02732  -0.02732   2.02786
   R13        2.64975  -0.01136   0.00000  -0.01423  -0.01422   2.63552
   R14        2.64927  -0.01067   0.00000  -0.01327  -0.01327   2.63600
   R15        2.62769  -0.00808   0.00000  -0.00998  -0.00997   2.61772
   R16        2.08252  -0.02208   0.00000  -0.03595  -0.03595   2.04657
   R17        2.66767  -0.01791   0.00000  -0.02373  -0.02373   2.64394
   R18        2.08351  -0.02558   0.00000  -0.04170  -0.04170   2.04181
   R19        2.66876  -0.01834   0.00000  -0.02426  -0.02426   2.64450
   R20        2.68607   0.01209   0.00000   0.01629   0.01629   2.70236
   R21        2.62535  -0.00639   0.00000  -0.00774  -0.00774   2.61761
   R22        2.08179  -0.02223   0.00000  -0.03615  -0.03615   2.04564
   R23        2.07934  -0.02030   0.00000  -0.03290  -0.03290   2.04644
   R24        2.73274   0.01543   0.00000   0.02231   0.02231   2.75505
   R25        2.64506  -0.01754   0.00000  -0.02213  -0.02213   2.62294
   R26        2.81778   0.01521   0.00000   0.02484   0.02484   2.84261
   R27        2.13756  -0.03014   0.00000  -0.05283  -0.05283   2.08473
   R28        2.13885  -0.03273   0.00000  -0.05746  -0.05746   2.08140
   R29        2.70938   0.00647   0.00000   0.00577   0.00561   2.71498
   R30        2.61392  -0.01946   0.00000  -0.02420  -0.02428   2.58964
   R31        2.60273  -0.01810   0.00000  -0.02245  -0.02249   2.58024
   R32        2.06663  -0.01855   0.00000  -0.02953  -0.02953   2.03710
   R33        3.15525   0.05610   0.00000   0.08165   0.08178   3.23703
   R34        2.05817  -0.01733   0.00000  -0.02726  -0.02726   2.03091
   R35        3.14661   0.06200   0.00000   0.08907   0.08918   3.23579
   R36        2.05831  -0.01665   0.00000  -0.02621  -0.02621   2.03210
   R37        2.34468  -0.03624   0.00000  -0.02604  -0.02604   2.31864
   R38        2.91084  -0.01384   0.00000  -0.02554  -0.02554   2.88530
   R39        2.71942  -0.01016   0.00000  -0.01440  -0.01440   2.70502
   R40        2.13476  -0.03082   0.00000  -0.05382  -0.05382   2.08094
   R41        2.13282  -0.03261   0.00000  -0.05679  -0.05679   2.07603
   R42        2.59720  -0.01098   0.00000  -0.01181  -0.01184   2.58536
   R43        2.67813  -0.03353   0.00000  -0.04577  -0.04577   2.63236
   R44        2.37114  -0.00271   0.00000  -0.00100  -0.00102   2.37012
   R45        2.70769  -0.02615   0.00000  -0.03616  -0.03615   2.67154
   R46        2.63496  -0.01164   0.00000  -0.01513  -0.01511   2.61985
   R47        2.73806  -0.04608   0.00000  -0.07055  -0.07049   2.66757
   R48        2.62849  -0.01104   0.00000  -0.01293  -0.01294   2.61555
   R49        2.07747  -0.01994   0.00000  -0.03224  -0.03224   2.04523
   R50        2.65459  -0.00743   0.00000  -0.00821  -0.00824   2.64635
   R51        2.07982  -0.02006   0.00000  -0.03253  -0.03253   2.04729
[...]
 ! D119  D(48,27,28,49)         -0.051          -DE/DX =    0.0                 !
 ! D120  D(27,28,29,30)         -0.1934         -DE/DX =    0.0                 !
 ! D121  D(27,28,29,50)        178.9775         -DE/DX =    0.0                 !
 ! D122  D(49,28,29,30)       -179.6425         -DE/DX =    0.0                 !
 ! D123  D(49,28,29,50)         -0.4717         -DE/DX =    0.0                 !
 ! D124  D(28,29,30,31)         -0.439          -DE/DX =    0.0                 !
 ! D125  D(28,29,30,51)        177.1054         -DE/DX =    0.0                 !
 ! D126  D(50,29,30,31)       -179.606          -DE/DX =    0.0                 !
 ! D127  D(50,29,30,51)         -2.0616         -DE/DX =    0.0                 !
 ! D128  D(29,30,31,23)       -178.5756         -DE/DX =    0.0                 !
 ! D129  D(29,30,31,26)          0.7448         -DE/DX =    0.0                 !
 ! D130  D(51,30,31,23)          3.88           -DE/DX =    0.0                 !
 ! D131  D(51,30,31,26)       -176.7997         -DE/DX =    0.0                 !
 --------------------------------------------------------------------------------
 GradGradGradGradGradGradGradGradGradGradGradGradGradGradGradGradGradGrad

 Largest change from initial coordinates is atom   50       2.496 Angstoms.
 Leave Link  103 at Fri Aug 26 22:10:45 2022, MaxMem=  209715200 cpu:       0.8
 (Enter /opt/gaussian/l202.exe)
 Stoichiometry    C23H20N6OS
 Framework group  C1[X(C23H20N6OS)]
 Deg. of freedom   147
 Full point group                 C1      NOp   1
 RotChk:  IX=0 Diff= 1.63D-15
 Largest Abelian subgroup         C1      NOp   1
 Largest concise Abelian subgroup C1      NOp   1
                         Standard orientation:                         
 ---------------------------------------------------------------------
 Center     Atomic      Atomic             Coordinates (Angstroms)
 Number     Number       Type             X           Y           Z
 ---------------------------------------------------------------------
      1          6           0       -8.748096   -0.740888    0.947718
      2          7           0       -7.427892   -0.944687    0.384160
      3          6           0       -7.058511   -1.904537   -0.504407
      4          7           0       -5.795414   -1.814521   -0.806215
      5          6           0       -5.291796   -0.742899   -0.086977
      6          6           0       -6.300048   -0.200510    0.654350
      7          6           0       -3.881411   -0.357284   -0.186671
      8          6           0       -2.989799   -1.157001   -0.900647
      9          6           0       -1.655064   -0.811844   -1.009919
     10          6           0       -1.175602    0.338485   -0.398232
     11          6           0       -2.052320    1.139634    0.318150
     12          6           0       -3.391053    0.797868    0.416033
     13          7           0        0.203301    0.727080   -0.549919
     14          6           0        0.470699    2.002426   -1.233120
     15          6           0        1.220939    3.022517   -0.407936
     16          6           0        1.057282    3.190665    1.022511
     17          6           0        1.788715    4.190607    1.538854
     18         16           0        2.753879    5.023896    0.287656
     19          6           0        2.086682    3.906336   -0.936551
     20          6           0        1.186526   -0.142026   -0.165906
     21          8           0        0.945243   -1.201470    0.398533
     22          6           0        2.634632    0.253646   -0.416754
     23          7           0        3.483743   -0.889842   -0.604886
     24          7           0        3.959901   -1.153495   -1.855888
     25          7           0        4.720532   -2.168000   -1.815374
     26          6           0        4.782369   -2.629245   -0.511368
     27          6           0        5.490166   -3.699086    0.038387
     28          6           0        5.362114   -3.908782    1.388117
     29          6           0        4.535953   -3.076861    2.179151
     30          6           0        3.830666   -2.026561    1.645370
     31          6           0        3.976857   -1.810921    0.271515
     32          1           0       -8.723284   -0.843023    2.023895
     33          1           0       -9.124861    0.239903    0.692124
     34          1           0       -9.421161   -1.483671    0.546781
     35          1           0       -7.740261   -2.627177   -0.889115
     36          1           0       -6.320046    0.616239    1.337478
     37          1           0       -3.356254   -2.045857   -1.370931
     38          1           0       -0.982852   -1.444407   -1.552408
     39          1           0       -1.699755    2.032668    0.795487
     40          1           0       -4.049623    1.442385    0.965697
     41          1           0        0.994715    1.828326   -2.165880
     42          1           0       -0.495763    2.402824   -1.499653
     43          1           0        0.423233    2.565627    1.615846
     44          1           0        1.845456    4.510509    2.554669
     45          1           0        2.393702    3.997982   -1.954969
     46          1           0        2.749725    0.858612   -1.297452
     47          1           0        2.982844    0.834175    0.428832
     48          1           0        6.103703   -4.321012   -0.581697
     49          1           0        5.885336   -4.718282    1.857686
     50          1           0        4.449986   -3.284619    3.228130
     51          1           0        3.172569   -1.429951    2.241565
 ---------------------------------------------------------------------
 Rotational constants (GHZ):      0.1713439      0.0648045      0.0509256
 Leave Link  202 at Fri Aug 26 22:10:45 2022, MaxMem=  209715200 cpu:       0.0
 (Enter /opt/gaussian/l601.exe)
 Copying SCF densities to generalized density rwf, IOpCl= 0 IROHF=0.

 **********************************************************************

            Population analysis using the SCF density.

 **********************************************************************

 Orbital symmetries:
       Occupied  (A) (A) (A) (A) (A) (A) (A) (A) (A) (A) (A) (A)
                 (A) (A) (A) (A) (A) (A) (A) (A) (A) (A) (A) (A)
                 (A) (A) (A) (A) (A) (A) (A) (A) (A) (A) (A) (A)
                 (A) (A) (A) (A) (A) (A) (A) (A) (A) (A) (A) (A)
                 (A) (A) (A) (A) (A) (A) (A) (A) (A) (A) (A) (A)
                 (A) (A) (A) (A) (A) (A) (A) (A) (A) (A) (A) (A)
                 (A) (A) (A) (A) (A) (A) (A) (A) (A) (A) (A) (A)
                 (A) (A) (A) (A) (A) (A) (A) (A) (A) (A) (A) (A)
                 (A) (A) (A) (A) (A) (A) (A) (A) (A) (A) (A) (A)
                 (A) (A) (A) (A)
       Virtual   (A) (A) (A) (A) (A) (A) (A) (A) (A) (A) (A) (A)
                 (A) (A) (A) (A) (A) (A) (A) (A) (A) (A) (A) (A)
                 (A) (A) (A) (A) (A) (A) (A) (A) (A) (A) (A) (A)
                 (A) (A) (A) (A) (A) (A) (A) (A) (A) (A) (A) (A)
                 (A) (A) (A) (A) (A) (A) (A) (A) (A) (A) (A) (A)
                 (A) (A) (A) (A) (A) (A) (A) (A) (A) (A) (A) (A)
                 (A) (A) (A) (A) (A) (A) (A) (A) (A) (A) (A) (A)
                 (A) (A) (A) (A) (A) (A) (A) (A) (A) (A) (A) (A)
                 (A) (A) (A) (A) (A) (A) (A) (A) (A) (A) (A) (A)
                 (A) (A) (A) (A) (A) (A) (A) (A) (A) (A) (A) (A)
                 (A) (A) (A) (A) (A) (A) (A) (A) (A) (A) (A) (A)
                 (A) (A) (A) (A) (A) (A) (A) (A) (A) (A) (A) (A)
                 (A) (A) (A) (A) (A) (A) (A) (A) (A) (A) (A) (A)
                 (A) (A) (A) (A) (A) (A) (A) (A) (A) (A) (A) (A)
                 (A) (A) (A) (A) (A) (A) (A) (A) (A) (A) (A) (A)
                 (A) (A) (A) (A) (A) (A) (A) (A) (A) (A) (A) (A)
                 (A) (A) (A) (A) (A) (A) (A) (A) (A) (A) (A) (A)
                 (A) (A) (A) (A) (A) (A) (A)
 The electronic state is 1-A.
 Alpha  occ. eigenvalues --  -91.98429 -20.53988 -15.65856 -15.65017 -15.63630
 Alpha  occ. eigenvalues --  -15.61396 -15.60730 -15.55626 -11.38073 -11.30608
 Alpha  occ. eigenvalues --  -11.30340 -11.30218 -11.29337 -11.29230 -11.28879
 Alpha  occ. eigenvalues --  -11.28811 -11.28419 -11.27451 -11.27208 -11.26298
 Alpha  occ. eigenvalues --  -11.26248 -11.25952 -11.24969 -11.24585 -11.24529
 Alpha  occ. eigenvalues --  -11.24391 -11.24320 -11.24049 -11.23499 -11.23455
 Alpha  occ. eigenvalues --  -11.22868  -9.00213  -6.68343  -6.68210  -6.67948
 Alpha  occ. eigenvalues --   -1.46928  -1.41301  -1.37195  -1.27695  -1.24208
 Alpha  occ. eigenvalues --   -1.20592  -1.19575  -1.17086  -1.16002  -1.06914
 Alpha  occ. eigenvalues --   -1.05768  -1.04903  -1.04162  -1.02632  -1.01918
 Alpha  occ. eigenvalues --   -1.00934  -1.00421  -0.97375  -0.94426  -0.88204
 Alpha  occ. eigenvalues --   -0.87490  -0.84747  -0.84359  -0.82091  -0.80109
 Alpha  occ. eigenvalues --   -0.79452  -0.79274  -0.77118  -0.75246  -0.73809
 Alpha  occ. eigenvalues --   -0.72487  -0.71772  -0.71589  -0.70354  -0.68914
 Alpha  occ. eigenvalues --   -0.66357  -0.66298  -0.65116  -0.64844  -0.64009
 Alpha  occ. eigenvalues --   -0.62684  -0.62457  -0.62144  -0.61662  -0.61080
 Alpha  occ. eigenvalues --   -0.60037  -0.59523  -0.59286  -0.58615  -0.58137
 Alpha  occ. eigenvalues --   -0.57448  -0.56862  -0.55862  -0.53860  -0.53119
 Alpha  occ. eigenvalues --   -0.52863  -0.52517  -0.52303  -0.51524  -0.50940
 Alpha  occ. eigenvalues --   -0.49936  -0.49581  -0.48871  -0.47842  -0.44091
 Alpha  occ. eigenvalues --   -0.42552  -0.42365  -0.41841  -0.41446  -0.38898
 Alpha  occ. eigenvalues --   -0.36383  -0.35837  -0.35047  -0.33799  -0.33106
 Alpha  occ. eigenvalues --   -0.31324  -0.28751
 Alpha virt. eigenvalues --    0.10426   0.10488   0.11431   0.14081   0.15954
 Alpha virt. eigenvalues --    0.16990   0.17469   0.18523   0.20171   0.21017
 Alpha virt. eigenvalues --    0.21955   0.22073   0.23358   0.24433   0.24812
 Alpha virt. eigenvalues --    0.25354   0.25650   0.26373   0.26497   0.27595
 Alpha virt. eigenvalues --    0.28637   0.29352   0.29923   0.30247   0.30468
 Alpha virt. eigenvalues --    0.30535   0.30916   0.32262   0.32887   0.33512
 Alpha virt. eigenvalues --    0.34085   0.35125   0.35727   0.36703   0.36993
 Alpha virt. eigenvalues --    0.37632   0.39328   0.40417   0.41051   0.41565
 Alpha virt. eigenvalues --    0.42318   0.43235   0.44100   0.44978   0.45593
 Alpha virt. eigenvalues --    0.46195   0.47036   0.47549   0.48363   0.49253
 Alpha virt. eigenvalues --    0.49596   0.50971   0.52014   0.52992   0.53481
 Alpha virt. eigenvalues --    0.54322   0.54767   0.55233   0.56880   0.58641
 Alpha virt. eigenvalues --    0.59645   0.60244   0.60786   0.62794   0.63239
 Alpha virt. eigenvalues --    0.65879   0.66106   0.69427   0.69861   0.71302
 Alpha virt. eigenvalues --    0.73229   0.74087   0.74283   0.74785   0.74988
 Alpha virt. eigenvalues --    0.75368   0.76005   0.76947   0.78310   0.78615
 Alpha virt. eigenvalues --    0.79513   0.79777   0.80235   0.80955   0.81323
 Alpha virt. eigenvalues --    0.81762   0.82382   0.82852   0.83342   0.83663
 Alpha virt. eigenvalues --    0.83773   0.84662   0.85182   0.85666   0.86194
 Alpha virt. eigenvalues --    0.86527   0.87042   0.87577   0.88147   0.88795
 Alpha virt. eigenvalues --    0.89309   0.89567   0.89931   0.90858   0.91505
 Alpha virt. eigenvalues --    0.92278   0.92498   0.93049   0.93882   0.94433
 Alpha virt. eigenvalues --    0.95003   0.95714   0.96452   0.98442   0.98932
 Alpha virt. eigenvalues --    0.99974   1.00447   1.01006   1.01616   1.02019
 Alpha virt. eigenvalues --    1.02456   1.02791   1.05056   1.05855   1.06910
 Alpha virt. eigenvalues --    1.08089   1.08599   1.08835   1.09518   1.10105
 Alpha virt. eigenvalues --    1.11238   1.11926   1.12105   1.12753   1.13129
 Alpha virt. eigenvalues --    1.13285   1.14111   1.14620   1.15236   1.15846
 Alpha virt. eigenvalues --    1.16142   1.17242   1.17481   1.17692   1.17993
 Alpha virt. eigenvalues --    1.19649   1.19753   1.19839   1.20722   1.20890
 Alpha virt. eigenvalues --    1.21171   1.22224   1.23097   1.23810   1.24215
 Alpha virt. eigenvalues --    1.24537   1.25320   1.26189   1.27889   1.28286
 Alpha virt. eigenvalues --    1.29195   1.30616   1.31054   1.31788   1.32793
 Alpha virt. eigenvalues --    1.33478   1.35564   1.35927   1.37979   1.38493
 Alpha virt. eigenvalues --    1.39324   1.41376   1.42703   1.43153   1.44084
 Alpha virt. eigenvalues --    1.45160   1.45594   1.46656   1.47775   1.49140
 Alpha virt. eigenvalues --    1.51094   1.53025   1.54345   1.56320   1.57894
 Alpha virt. eigenvalues --    1.59097   1.59323   1.62706   1.64441   1.66517
 Alpha virt. eigenvalues --    1.67483   1.67937   1.68970   1.71778   1.72665
 Alpha virt. eigenvalues --    1.75706   1.78258   1.81341   1.82745   1.87915
 Alpha virt. eigenvalues --    1.91361   1.93428   1.96153   1.99867   2.01632
 Alpha virt. eigenvalues --    2.02690   2.07056   2.08239   2.25008   2.26905
 Alpha virt. eigenvalues --    2.36110
          Condensed to atoms (all electrons):
 Mulliken atomic charges:
              1
     1  C   -0.197249
     2  N   -0.891609
     3  C    0.389478
     4  N   -0.568979
     5  C    0.002993
     6  C    0.194876
     7  C    0.016614
     8  C   -0.205998
     9  C   -0.142860
    10  C    0.302693
    11  C   -0.206108
    12  C   -0.198712
    13  N   -0.973175
    14  C   -0.089245
    15  C    0.053029
    16  C   -0.093187
    17  C   -0.558276
    18  S    0.480252
    19  C   -0.597107
    20  C    0.805028
    21  O   -0.589840
    22  C   -0.118939
    23  N   -0.880327
    24  N    0.083925
    25  N   -0.338149
    26  C   -0.020637
    27  C   -0.081804
    28  C   -0.232048
    29  C   -0.211800
    30  C   -0.049472
    31  C    0.476303
    32  H    0.190687
    33  H    0.189686
    34  H    0.185346
    35  H    0.233285
    36  H    0.241201
    37  H    0.260401
    38  H    0.232371
    39  H    0.207534
    40  H    0.200652
    41  H    0.200462
    42  H    0.229714
    43  H    0.235495
    44  H    0.237199
    45  H    0.235747
    46  H    0.240987
    47  H    0.241126
    48  H    0.237303
    49  H    0.201448
    50  H    0.202891
    51  H    0.236795
 Sum of Mulliken atomic charges =   0.00000
 Mulliken charges with hydrogens summed into heavy atoms:
              1
     1  C    0.368469
     2  N   -0.891609
     3  C    0.622763
     4  N   -0.568979
     5  C    0.002993
     6  C    0.436078
     7  C    0.016614
     8  C    0.054402
     9  C    0.089511
    10  C    0.302693
    11  C    0.001426
    12  C    0.001940
    13  N   -0.973175
    14  C    0.340931
    15  C    0.053029
    16  C    0.142309
    17  C   -0.321077
    18  S    0.480252
    19  C   -0.361361
    20  C    0.805028
    21  O   -0.589840
    22  C    0.363174
    23  N   -0.880327
    24  N    0.083925
    25  N   -0.338149
    26  C   -0.020637
    27  C    0.155499
    28  C   -0.030600
    29  C   -0.008909
    30  C    0.187323
    31  C    0.476303
 Sum of Mulliken charges with hydrogens summed into heavy atoms =   0.00000
 Electronic spatial extent (au):  <R**2>=          20067.1641
 Charge=              0.0000 electrons
 Dipole moment (field-independent basis, Debye):
    X=             -7.1034    Y=              4.7172    Z=              4.4813  Tot=              9.6329
 Quadrupole moment (field-independent basis, Debye-Ang):
   XX=           -137.4203   YY=           -190.5195   ZZ=           -186.3586
   XY=              0.0142   XZ=              1.3597   YZ=             -5.8095
 Traceless Quadrupole moment (field-independent basis, Debye-Ang):
   XX=             34.0125   YY=            -19.0867   ZZ=            -14.9258
   XY=              0.0142   XZ=              1.3597   YZ=             -5.8095
 Octapole moment (field-independent basis, Debye-Ang**2):
  XXX=           -735.8031  YYY=            -60.8661  ZZZ=             46.9518  XYY=             10.7342
  XXY=            -75.0666  XXZ=            178.4493  XZZ=            -16.5927  YZZ=             38.0402
  YYZ=             24.3974  XYZ=            -47.6306
 Hexadecapole moment (field-independent basis, Debye-Ang**3):
 XXXX=         -13990.4265 YYYY=          -7111.6510 ZZZZ=          -1301.5501 XXXY=            441.8758
 XXXZ=           -448.0507 YYYX=           -244.8602 YYYZ=             -3.7619 ZZZX=            110.1464
 ZZZY=            -65.2820 XXYY=          -4101.3865 XXZZ=          -3617.8121 YYZZ=          -1219.1718
 XXYZ=           -190.8621 YYXZ=             95.4356 ZZXY=             80.1209
 N-N= 2.910592669496D+03 E-N=-9.765281835728D+03  KE= 1.682468807146D+03
 No NMR shielding tensors so no spin-rotation constants.
 Leave Link  601 at Fri Aug 26 22:10:45 2022, MaxMem=  209715200 cpu:       1.4
 (Enter /opt/gaussian/l9999.exe)
 1\1\GINC-LQCAPF-6\FOpt\RHF\6-31G\C23H20N6O1S1\LQCAPF-6\26-Aug-2022\0\\
 #p opt hf/6-31G\\Mol20.out\\0,1\C,12.7844519879,-11.0466208431,-2.5165
 269012\N,13.9183067926,-10.3440140146,-1.9483850107\C,13.9079217637,-9
 .1203746089,-1.3568569832\N,15.0971147555,-8.7741300683,-0.9561829442\
 C,15.947280373,-9.8146100982,-1.2937141022\C,15.2213782891,-10.7905885
 502,-1.9108488563\C,17.3795422726,-9.7540374498,-0.9891176338\C,17.934
 2929814,-8.5798196874,-0.4814304691\C,19.2827120848,-8.5002863126,-0.1
 847310114\C,20.1135608408,-9.5917919542,-0.3982909666\C,19.5737853407,
 -10.7638441261,-0.9068319578\C,18.2207242115,-10.8446113554,-1.1919518
 742\N,21.5088757047,-9.5289683136,-0.0453923212\C,21.9802800752,-10.45
 29606149,0.9980581173\C,23.0694402929,-11.4054994132,0.5612782244\C,23
 .1604669926,-11.9836959016,-0.7648579946\C,24.1820560795,-12.841317164
 9,-0.9142920543\S,25.1314821691,-13.0137522655,0.5891248622\C,24.04032
 88366,-11.8428539437,1.3835788692\C,22.2928818327,-8.555049077,-0.5988
 895252\O,21.8824760419,-7.791962746,-1.4640464774\C,23.7419495416,-8.4
 534310992,-0.144611857\N,24.2473104985,-7.1121372404,-0.2420223433\N,2
 4.4582131033,-6.4065236981,0.9063998725\N,24.9435107985,-5.2692465276,
 0.622659112\C,25.0775695538,-5.1701099335,-0.7518237832\C,25.572135692
 3,-4.1307334707,-1.5410445595\C,25.5926802061,-4.3286633604,-2.8984470
 874\C,25.1197090173,-5.5348488482,-3.4657072101\C,24.6250477949,-6.559
 6909556,-2.6972731259\C,24.6198684241,-6.3558633966,-1.3138799804\H,12
 .9384771265,-11.2294057514,-3.5710740538\H,12.6277264982,-11.989688845
 5,-2.0112636239\H,11.8987310344,-10.4408953504,-2.3978265155\H,13.0211
 755313,-8.5399489085,-1.2483285812\H,15.5017675204,-11.7310444511,-2.3
 244521209\H,17.2964959104,-7.7359259762,-0.3183935785\H,19.6930578416,
 -7.5865213716,0.1933550788\H,20.2003157132,-11.6173050233,-1.076322983
 2\H,17.827430701,-11.7675369938,-1.5724447476\H,22.3050301615,-9.90082
 61799,1.8724895959\H,21.1139936876,-11.0201839328,1.3033653746\H,22.48
 46537745,-11.7383620323,-1.5572128296\H,24.4617949314,-13.3892669037,-
 1.7854595203\H,24.21010774,-11.5737348028,2.4026886436\H,23.8739415318
 ,-8.7480833131,0.8803846895\H,24.3405925949,-9.1165491144,-0.757134271
 \H,25.9176579117,-3.2225650382,-1.0898583665\H,25.9628093668,-3.559774
 4652,-3.5475701995\H,25.1376462391,-5.643541023,-4.532840851\H,24.2271
 398345,-7.4505034836,-3.1361431673\\Version=EM64L-G09RevC.01\State=1-A
 \HF=-1681.0277383\RMSD=8.400e-09\RMSF=3.706e-06\Dipole=-1.9674827,-2.9
 53913,-1.3290856\Quadrupole=22.1177379,-13.2075047,-8.9102333,10.99238
 02,2.08445,-2.2298956\PG=C01 [X(C23H20N6O1S1)]\\@


 I DO NOT DEFINE TIME, SPACE, PLACE, AND MOTION, AS BEING WELL KNOWN TO ALL.
                                            -- NEWTON (1642-1726), PRINCIPIA
 Job cpu time:  0 days  6 hours 15 minutes 43.3 seconds.
 File lengths (MBytes):  RWF=     71 Int=      0 D2E=      0 Chk=     10 Scr=      1
 Normal termination of Gaussian 09 at Fri Aug 26 22:10:45 2022.
