 Entering Gaussian System, Link 0=g09
 Input=Mol28.gjf
 Output=Mol28.log
 Initial command:
 /opt/gaussian/l1.exe /home/scr/lqcapf-6/Gau-284890.inp -scrdir=/home/scr/lqcapf-6/
 Entering Link 1 = /opt/gaussian/l1.exe PID=    284892.
  
 Copyright (c) 1988,1990,1992,1993,1995,1998,2003,2009,2011,
            Gaussian, Inc.  All Rights Reserved.
  
 This is part of the Gaussian(R) 09 program.  It is based on
 the Gaussian(R) 03 system (copyright 2003, Gaussian, Inc.),
 the Gaussian(R) 98 system (copyright 1998, Gaussian, Inc.),
 the Gaussian(R) 94 system (copyright 1995, Gaussian, Inc.),
 the Gaussian 92(TM) system (copyright 1992, Gaussian, Inc.),
 the Gaussian 90(TM) system (copyright 1990, Gaussian, Inc.),
 the Gaussian 88(TM) system (copyright 1988, Gaussian, Inc.),
 the Gaussian 86(TM) system (copyright 1986, Carnegie Mellon
 University), and the Gaussian 82(TM) system (copyright 1983,
 Carnegie Mellon University). Gaussian is a federally registered
 trademark of Gaussian, Inc.
  
 This software contains proprietary and confidential information,
 including trade secrets, belonging to Gaussian, Inc.
  
 This software is provided under written license and may be
 used, copied, transmitted, or stored only in accord with that
 written license.
  
 The following legend is applicable only to US Government
 contracts under FAR:
  
                    RESTRICTED RIGHTS LEGEND
  
 Use, reproduction and disclosure by the US Government is
 subject to restrictions as set forth in subparagraphs (a)
 and (c) of the Commercial Computer Software - Restricted
 Rights clause in FAR 52.227-19.
  
 Gaussian, Inc.
 340 Quinnipiac St., Bldg. 40, Wallingford CT 06492
  
  
 ---------------------------------------------------------------
 Warning -- This program may not be used in any manner that
 competes with the business of Gaussian, Inc. or will provide
 assistance to any competitor of Gaussian, Inc.  The licensee
 of this program is prohibited from giving any competitor of
 Gaussian, Inc. access to this program.  By using this program,
 the user acknowledges that Gaussian, Inc. is engaged in the
 business of creating and licensing software in the field of
 computational chemistry and represents and warrants to the
 licensee that it is not a competitor of Gaussian, Inc. and that
 it will not use this program in any manner prohibited above.
 ---------------------------------------------------------------
  

 Cite this work as:
 Gaussian 09, Revision C.01,
 M. J. Frisch, G. W. Trucks, H. B. Schlegel, G. E. Scuseria, 
 M. A. Robb, J. R. Cheeseman, G. Scalmani, V. Barone, B. Mennucci, 
 G. A. Petersson, H. Nakatsuji, M. Caricato, X. Li, H. P. Hratchian, 
 A. F. Izmaylov, J. Bloino, G. Zheng, J. L. Sonnenberg, M. Hada, 
 M. Ehara, K. Toyota, R. Fukuda, J. Hasegawa, M. Ishida, T. Nakajima, 
 Y. Honda, O. Kitao, H. Nakai, T. Vreven, J. A. Montgomery, Jr., 
 J. E. Peralta, F. Ogliaro, M. Bearpark, J. J. Heyd, E. Brothers, 
 K. N. Kudin, V. N. Staroverov, T. Keith, R. Kobayashi, J. Normand, 
 K. Raghavachari, A. Rendell, J. C. Burant, S. S. Iyengar, J. Tomasi, 
 M. Cossi, N. Rega, J. M. Millam, M. Klene, J. E. Knox, J. B. Cross, 
 V. Bakken, C. Adamo, J. Jaramillo, R. Gomperts, R. E. Stratmann, 
 O. Yazyev, A. J. Austin, R. Cammi, C. Pomelli, J. W. Ochterski, 
 R. L. Martin, K. Morokuma, V. G. Zakrzewski, G. A. Voth, 
 P. Salvador, J. J. Dannenberg, S. Dapprich, A. D. Daniels, 
 O. Farkas, J. B. Foresman, J. V. Ortiz, J. Cioslowski, 
 and D. J. Fox, Gaussian, Inc., Wallingford CT, 2010.
 
 ******************************************
 Gaussian 09:  EM64L-G09RevC.01 23-Sep-2011
                27-Aug-2022 
 ******************************************
 %nprocshared=8
 Will use up to    8 processors via shared memory.
 %mem=1600MB
 ---------------
 #p opt hf/6-31G
 ---------------
 1/18=20,19=15,38=1/1,3;
 2/9=110,12=2,17=6,18=5,40=1/2;
 3/5=1,6=6,11=9,16=1,25=1,30=1,71=1/1,2,3;
 4//1;
 5/5=2,38=5/2;
 6/7=2,8=2,9=2,10=2,28=1/1;
 7//1,2,3,16;
 1/18=20,19=15/3(2);
 2/9=110/2;
 99//99;
 2/9=110/2;
 3/5=1,6=6,11=9,16=1,25=1,30=1,71=1/1,2,3;
 4/5=5,16=3/1;
 5/5=2,38=5/2;
 7//1,2,3,16;
 1/18=20,19=15/3(-5);
 2/9=110/2;
 6/7=2,8=2,9=2,10=2,19=2,28=1/1;
 99/9=1/99;
 Leave Link    1 at Sat Aug 27 02:47:47 2022, MaxMem=  209715200 cpu:       0.1
 (Enter /opt/gaussian/l101.exe)
 ---------
 Mol28.out
 ---------
 Charge =  0 Multiplicity = 1
 Symbolic Z-Matrix:
 Cl                    23.947   -14.7926  -1.7497 
 C                     23.4284  -13.2227  -1.3582 
 C                     23.6938  -12.7011  -0.0868 
 C                     23.263   -11.4135   0.2218 
 C                     22.5736  -10.6499  -0.7215 
 C                     22.3066  -11.1721  -1.9892 
 C                     22.7388  -12.4668  -2.3081 
 C                     21.5813  -10.4131  -3.0693 
 N                     20.8965  -9.1979   -2.6973 
 C                     21.604   -8.0064   -2.4899 
 O                     21.0455  -6.9866   -2.0569 
 C                     23.0968  -8.0087   -2.8715 
 N                     23.8257  -6.8306   -2.4853 
 N                     23.7008  -5.6133   -3.1147 
 N                     24.1543  -4.671    -2.4227 
 C                     24.5897  -5.1772   -1.1534 
 C                     25.1674  -4.5838   -0.0321 
 C                     25.4793  -5.4118    1.0423 
 C                     25.2319  -6.7935    1.0099 
 C                     24.6622  -7.4167   -0.0963 
 C                     24.3393  -6.6032   -1.1822 
 C                     19.5243  -9.3015   -2.3396 
 C                     19.0272  -10.4732  -1.7275 
 C                     17.6798  -10.584   -1.4076 
 C                     16.7862  -9.5374   -1.6731 
 C                     17.2786  -8.3737   -2.2793 
 C                     18.6225  -8.2509   -2.6137 
 C                     15.3794  -9.6547   -1.3148 
 C                     14.9738  -10.3294  -0.1528 
 C                     13.6152  -10.4101   0.1497 
 C                     12.6934  -9.8089   -0.7259 
 N                     13.0567  -9.1569   -1.8478 
 C                     14.3698  -9.0862   -2.1278 
 H                     24.2335  -13.3023   0.6606 
 H                     23.4646  -10.9944   1.2196 
 H                     22.2354  -9.6384   -0.4455 
 H                     22.5315  -12.8853  -3.3054 
 H                     22.3313  -10.1673  -3.8798 
 H                     20.8185  -11.11    -3.5312 
 H                     23.6052  -8.8865   -2.3752 
 H                     23.1639  -8.1151   -3.9938 
 H                     25.3659  -3.5029   -0.0026 
 H                     25.9324  -4.9739    1.9449 
 H                     25.496   -7.4021    1.8889 
 H                     24.4725  -8.4988   -0.1108 
 H                     19.7036  -11.3099  -1.4903 
 H                     17.3136  -11.5107  -0.9391 
 H                     16.5966  -7.5342   -2.4877 
 H                     18.9814  -7.3145   -3.072 
 H                     15.7215  -10.7816   0.5155 
 H                     13.2676  -10.9288   1.0524 
 H                     11.6084  -9.8488   -0.523 
 H                     14.6337  -8.5499   -3.0576 
 
 NAtoms=     53 NQM=        0 NQMF=       0 NMMI=     53 NMMIF=      0
                NMic=       0 NMicF=      0.
                    Isotopes and Nuclear Properties:
 (Nuclear quadrupole moments (NQMom) in fm**2, nuclear magnetic moments (NMagM)
  in nuclear magnetons)

  Atom         1           2           3           4           5           6           7           8           9          10
 IAtWgt=          35          12          12          12          12          12          12          12          14          12
 AtmWgt=  34.9688527  12.0000000  12.0000000  12.0000000  12.0000000  12.0000000  12.0000000  12.0000000  14.0030740  12.0000000
 NucSpn=           3           0           0           0           0           0           0           0           2           0
 AtZEff=   0.0000000   0.0000000   0.0000000   0.0000000   0.0000000   0.0000000   0.0000000   0.0000000   0.0000000   0.0000000
 NQMom=   -8.1650000   0.0000000   0.0000000   0.0000000   0.0000000   0.0000000   0.0000000   0.0000000   2.0440000   0.0000000
 NMagM=    0.8218740   0.0000000   0.0000000   0.0000000   0.0000000   0.0000000   0.0000000   0.0000000   0.4037610   0.0000000

  Atom        11          12          13          14          15          16          17          18          19          20
 IAtWgt=          16          12          14          14          14          12          12          12          12          12
 AtmWgt=  15.9949146  12.0000000  14.0030740  14.0030740  14.0030740  12.0000000  12.0000000  12.0000000  12.0000000  12.0000000
 NucSpn=           0           0           2           2           2           0           0           0           0           0
 AtZEff=   0.0000000   0.0000000   0.0000000   0.0000000   0.0000000   0.0000000   0.0000000   0.0000000   0.0000000   0.0000000
 NQMom=    0.0000000   0.0000000   2.0440000   2.0440000   2.0440000   0.0000000   0.0000000   0.0000000   0.0000000   0.0000000
 NMagM=    0.0000000   0.0000000   0.4037610   0.4037610   0.4037610   0.0000000   0.0000000   0.0000000   0.0000000   0.0000000

  Atom        21          22          23          24          25          26          27          28          29          30
 IAtWgt=          12          12          12          12          12          12          12          12          12          12
 AtmWgt=  12.0000000  12.0000000  12.0000000  12.0000000  12.0000000  12.0000000  12.0000000  12.0000000  12.0000000  12.0000000
 NucSpn=           0           0           0           0           0           0           0           0           0           0
 AtZEff=   0.0000000   0.0000000   0.0000000   0.0000000   0.0000000   0.0000000   0.0000000   0.0000000   0.0000000   0.0000000
 NQMom=    0.0000000   0.0000000   0.0000000   0.0000000   0.0000000   0.0000000   0.0000000   0.0000000   0.0000000   0.0000000
 NMagM=    0.0000000   0.0000000   0.0000000   0.0000000   0.0000000   0.0000000   0.0000000   0.0000000   0.0000000   0.0000000

  Atom        31          32          33          34          35          36          37          38          39          40
 IAtWgt=          12          14          12           1           1           1           1           1           1           1
 AtmWgt=  12.0000000  14.0030740  12.0000000   1.0078250   1.0078250   1.0078250   1.0078250   1.0078250   1.0078250   1.0078250
 NucSpn=           0           2           0           1           1           1           1           1           1           1
 AtZEff=   0.0000000   0.0000000   0.0000000   0.0000000   0.0000000   0.0000000   0.0000000   0.0000000   0.0000000   0.0000000
 NQMom=    0.0000000   2.0440000   0.0000000   0.0000000   0.0000000   0.0000000   0.0000000   0.0000000   0.0000000   0.0000000
 NMagM=    0.0000000   0.4037610   0.0000000   2.7928460   2.7928460   2.7928460   2.7928460   2.7928460   2.7928460   2.7928460

  Atom        41          42          43          44          45          46          47          48          49          50
 IAtWgt=           1           1           1           1           1           1           1           1           1           1
 AtmWgt=   1.0078250   1.0078250   1.0078250   1.0078250   1.0078250   1.0078250   1.0078250   1.0078250   1.0078250   1.0078250
 NucSpn=           1           1           1           1           1           1           1           1           1           1
 AtZEff=   0.0000000   0.0000000   0.0000000   0.0000000   0.0000000   0.0000000   0.0000000   0.0000000   0.0000000   0.0000000
 NQMom=    0.0000000   0.0000000   0.0000000   0.0000000   0.0000000   0.0000000   0.0000000   0.0000000   0.0000000   0.0000000
 NMagM=    2.7928460   2.7928460   2.7928460   2.7928460   2.7928460   2.7928460   2.7928460   2.7928460   2.7928460   2.7928460

  Atom        51          52          53
 IAtWgt=           1           1           1
 AtmWgt=   1.0078250   1.0078250   1.0078250
 NucSpn=           1           1           1
 AtZEff=   0.0000000   0.0000000   0.0000000
 NQMom=    0.0000000   0.0000000   0.0000000
 NMagM=    2.7928460   2.7928460   2.7928460
 Leave Link  101 at Sat Aug 27 02:47:48 2022, MaxMem=  209715200 cpu:       0.8
 (Enter /opt/gaussian/l103.exe)

 GradGradGradGradGradGradGradGradGradGradGradGradGradGradGradGradGradGrad
 Berny optimization.
 Initialization pass.
                           ----------------------------
                           !    Initial Parameters    !
                           ! (Angstroms and Degrees)  !
 --------------------------                            --------------------------
 ! Name  Definition              Value          Derivative Info.                !
 --------------------------------------------------------------------------------
 ! R1    R(1,2)                  1.6991         estimate D2E/DX2                !
 ! R2    R(2,3)                  1.3996         estimate D2E/DX2                !
 ! R3    R(2,7)                  1.3962         estimate D2E/DX2                !
 ! R4    R(3,4)                  1.3924         estimate D2E/DX2                !
 ! R5    R(3,34)                 1.1006         estimate D2E/DX2                !
 ! R6    R(4,5)                  1.3958         estimate D2E/DX2                !
 ! R7    R(4,35)                 1.1009         estimate D2E/DX2                !
 ! R8    R(5,6)                  1.3968         estimate D2E/DX2                !
 ! R9    R(5,36)                 1.1017         estimate D2E/DX2                !
 ! R10   R(6,7)                  1.4017         estimate D2E/DX2                !
 ! R11   R(6,8)                  1.5062         estimate D2E/DX2                !
 ! R12   R(7,37)                 1.1012         estimate D2E/DX2                !
 ! R13   R(8,9)                  1.4436         estimate D2E/DX2                !
 ! R14   R(8,38)                 1.1313         estimate D2E/DX2                !
 ! R15   R(8,39)                 1.1318         estimate D2E/DX2                !
 ! R16   R(9,10)                 1.4012         estimate D2E/DX2                !
 ! R17   R(9,22)                 1.4218         estimate D2E/DX2                !
 ! R18   R(10,11)                1.2407         estimate D2E/DX2                !
 ! R19   R(10,12)                1.5408         estimate D2E/DX2                !
 ! R20   R(12,13)                1.4382         estimate D2E/DX2                !
 ! R21   R(12,40)                1.1293         estimate D2E/DX2                !
 ! R22   R(12,41)                1.1293         estimate D2E/DX2                !
 ! R23   R(13,14)                1.3761         estimate D2E/DX2                !
 ! R24   R(13,21)                1.419          estimate D2E/DX2                !
 ! R25   R(14,15)                1.254          estimate D2E/DX2                !
 ! R26   R(15,16)                1.4342         estimate D2E/DX2                !
 ! R27   R(16,17)                1.394          estimate D2E/DX2                !
 ! R28   R(16,21)                1.4481         estimate D2E/DX2                !
 ! R29   R(17,18)                1.3918         estimate D2E/DX2                !
 ! R30   R(17,42)                1.0994         estimate D2E/DX2                !
 ! R31   R(18,19)                1.404          estimate D2E/DX2                !
 ! R32   R(18,43)                1.1008         estimate D2E/DX2                !
 ! R33   R(19,20)                1.3916         estimate D2E/DX2                !
 ! R34   R(19,44)                1.1013         estimate D2E/DX2                !
 ! R35   R(20,21)                1.3947         estimate D2E/DX2                !
 ! R36   R(20,45)                1.0987         estimate D2E/DX2                !
 ! R37   R(22,23)                1.4123         estimate D2E/DX2                !
 ! R38   R(22,27)                1.4114         estimate D2E/DX2                !
 ! R39   R(23,24)                1.3893         estimate D2E/DX2                !
 ! R40   R(23,46)                1.1017         estimate D2E/DX2                !
 ! R41   R(24,25)                1.4016         estimate D2E/DX2                !
 ! R42   R(24,47)                1.1011         estimate D2E/DX2                !
 ! R43   R(25,26)                1.4015         estimate D2E/DX2                !
 ! R44   R(25,28)                1.4564         estimate D2E/DX2                !
 ! R45   R(26,27)                1.3903         estimate D2E/DX2                !
 ! R46   R(26,48)                1.1015         estimate D2E/DX2                !
 ! R47   R(27,49)                1.1026         estimate D2E/DX2                !
 ! R48   R(28,29)                1.4036         estimate D2E/DX2                !
 ! R49   R(28,33)                1.4154         estimate D2E/DX2                !
 ! R50   R(29,30)                1.3942         estimate D2E/DX2                !
 ! R51   R(29,50)                1.1001         estimate D2E/DX2                !
 ! R52   R(30,31)                1.4064         estimate D2E/DX2                !
 ! R53   R(30,51)                1.0976         estimate D2E/DX2                !
 ! R54   R(31,32)                1.3475         estimate D2E/DX2                !
 ! R55   R(31,52)                1.1045         estimate D2E/DX2                !
 ! R56   R(32,33)                1.3445         estimate D2E/DX2                !
 ! R57   R(33,53)                1.1053         estimate D2E/DX2                !
 ! A1    A(1,2,3)              119.7208         estimate D2E/DX2                !
 ! A2    A(1,2,7)              119.6201         estimate D2E/DX2                !
 ! A3    A(3,2,7)              120.6589         estimate D2E/DX2                !
 ! A4    A(2,3,4)              119.1623         estimate D2E/DX2                !
 ! A5    A(2,3,34)             120.4165         estimate D2E/DX2                !
 ! A6    A(4,3,34)             120.4209         estimate D2E/DX2                !
 ! A7    A(3,4,5)              120.5934         estimate D2E/DX2                !
 ! A8    A(3,4,35)             119.754          estimate D2E/DX2                !
 ! A9    A(5,4,35)             119.6523         estimate D2E/DX2                !
 ! A10   A(4,5,6)              120.2152         estimate D2E/DX2                !
 ! A11   A(4,5,36)             118.9873         estimate D2E/DX2                !
 ! A12   A(6,5,36)             120.7935         estimate D2E/DX2                !
 ! A13   A(5,6,7)              119.5288         estimate D2E/DX2                !
 ! A14   A(5,6,8)              123.6739         estimate D2E/DX2                !
 ! A15   A(7,6,8)              116.7932         estimate D2E/DX2                !
 ! A16   A(2,7,6)              119.8411         estimate D2E/DX2                !
 ! A17   A(2,7,37)             120.2239         estimate D2E/DX2                !
 ! A18   A(6,7,37)             119.9348         estimate D2E/DX2                !
 ! A19   A(6,8,9)              117.8922         estimate D2E/DX2                !
 ! A20   A(6,8,38)             107.6977         estimate D2E/DX2                !
 ! A21   A(6,8,39)             107.8738         estimate D2E/DX2                !
 ! A22   A(9,8,38)             108.4334         estimate D2E/DX2                !
 ! A23   A(9,8,39)             107.685          estimate D2E/DX2                !
 ! A24   A(38,8,39)            106.7516         estimate D2E/DX2                !
 ! A25   A(8,9,10)             120.9596         estimate D2E/DX2                !
 ! A26   A(8,9,22)             117.4707         estimate D2E/DX2                !
 ! A27   A(10,9,22)            120.7995         estimate D2E/DX2                !
 ! A28   A(9,10,11)            121.5548         estimate D2E/DX2                !
 ! A29   A(9,10,12)            116.8258         estimate D2E/DX2                !
 ! A30   A(11,10,12)           121.5857         estimate D2E/DX2                !
 ! A31   A(10,12,13)           115.0432         estimate D2E/DX2                !
 ! A32   A(10,12,40)           109.1767         estimate D2E/DX2                !
 ! A33   A(10,12,41)           107.6876         estimate D2E/DX2                !
 ! A34   A(13,12,40)           106.8909         estimate D2E/DX2                !
 ! A35   A(13,12,41)           108.296          estimate D2E/DX2                !
 ! A36   A(40,12,41)           109.6796         estimate D2E/DX2                !
 ! A37   A(12,13,14)           123.7672         estimate D2E/DX2                !
 ! A38   A(12,13,21)           124.1468         estimate D2E/DX2                !
 ! A39   A(14,13,21)           108.1267         estimate D2E/DX2                !
 ! A40   A(13,14,15)           112.3037         estimate D2E/DX2                !
 ! A41   A(14,15,16)           109.4487         estimate D2E/DX2                !
 ! A42   A(15,16,17)           133.43           estimate D2E/DX2                !
 ! A43   A(15,16,21)           106.109          estimate D2E/DX2                !
 ! A44   A(17,16,21)           120.4542         estimate D2E/DX2                !
 ! A45   A(16,17,18)           117.4233         estimate D2E/DX2                !
 ! A46   A(16,17,42)           120.994          estimate D2E/DX2                !
 ! A47   A(18,17,42)           121.5827         estimate D2E/DX2                !
 ! A48   A(17,18,19)           121.8792         estimate D2E/DX2                !
 ! A49   A(17,18,43)           119.2443         estimate D2E/DX2                !
 ! A50   A(19,18,43)           118.8764         estimate D2E/DX2                !
 ! A51   A(18,19,20)           122.0847         estimate D2E/DX2                !
 ! A52   A(18,19,44)           118.8924         estimate D2E/DX2                !
 ! A53   A(20,19,44)           119.0229         estimate D2E/DX2                !
 ! A54   A(19,20,21)           116.9023         estimate D2E/DX2                !
 ! A55   A(19,20,45)           121.482          estimate D2E/DX2                !
 ! A56   A(21,20,45)           121.6153         estimate D2E/DX2                !
 ! A57   A(13,21,16)           103.8073         estimate D2E/DX2                !
 ! A58   A(13,21,20)           134.8549         estimate D2E/DX2                !
 ! A59   A(16,21,20)           121.2554         estimate D2E/DX2                !
 ! A60   A(9,22,23)            120.6085         estimate D2E/DX2                !
 ! A61   A(9,22,27)            120.8992         estimate D2E/DX2                !
 ! A62   A(23,22,27)           118.4776         estimate D2E/DX2                !
 ! A63   A(22,23,24)           120.4858         estimate D2E/DX2                !
 ! A64   A(22,23,46)           120.4817         estimate D2E/DX2                !
 ! A65   A(24,23,46)           119.0311         estimate D2E/DX2                !
 ! A66   A(23,24,25)           121.0095         estimate D2E/DX2                !
 ! A67   A(23,24,47)           119.1867         estimate D2E/DX2                !
 ! A68   A(25,24,47)           119.8039         estimate D2E/DX2                !
 ! A69   A(24,25,26)           118.5532         estimate D2E/DX2                !
 ! A70   A(24,25,28)           120.6038         estimate D2E/DX2                !
 ! A71   A(26,25,28)           120.8407         estimate D2E/DX2                !
 ! A72   A(25,26,27)           121.1306         estimate D2E/DX2                !
 ! A73   A(25,26,48)           119.8105         estimate D2E/DX2                !
 ! A74   A(27,26,48)           119.0558         estimate D2E/DX2                !
 ! A75   A(22,27,26)           120.3408         estimate D2E/DX2                !
 ! A76   A(22,27,49)           120.3251         estimate D2E/DX2                !
 ! A77   A(26,27,49)           119.3162         estimate D2E/DX2                !
 ! A78   A(25,28,29)           121.434          estimate D2E/DX2                !
 ! A79   A(25,28,33)           121.0186         estimate D2E/DX2                !
 ! A80   A(29,28,33)           117.5471         estimate D2E/DX2                !
 ! A81   A(28,29,30)           119.2783         estimate D2E/DX2                !
 ! A82   A(28,29,50)           120.2741         estimate D2E/DX2                !
 ! A83   A(30,29,50)           120.4456         estimate D2E/DX2                !
 ! A84   A(29,30,31)           118.6126         estimate D2E/DX2                !
 ! A85   A(29,30,51)           120.957          estimate D2E/DX2                !
 ! A86   A(31,30,51)           120.4302         estimate D2E/DX2                !
 ! A87   A(30,31,32)           123.2637         estimate D2E/DX2                !
 ! A88   A(30,31,52)           120.934          estimate D2E/DX2                !
 ! A89   A(32,31,52)           115.8022         estimate D2E/DX2                !
 ! A90   A(31,32,33)           117.5262         estimate D2E/DX2                !
 ! A91   A(28,33,32)           123.7721         estimate D2E/DX2                !
 ! A92   A(28,33,53)           120.5134         estimate D2E/DX2                !
 ! A93   A(32,33,53)           115.7137         estimate D2E/DX2                !
 ! D1    D(1,2,3,4)           -179.973          estimate D2E/DX2                !
 ! D2    D(1,2,3,34)            -0.1587         estimate D2E/DX2                !
 ! D3    D(7,2,3,4)             -0.11           estimate D2E/DX2                !
 ! D4    D(7,2,3,34)           179.7043         estimate D2E/DX2                !
 ! D5    D(1,2,7,6)            179.8785         estimate D2E/DX2                !
 ! D6    D(1,2,7,37)             0.0263         estimate D2E/DX2                !
 ! D7    D(3,2,7,6)              0.0154         estimate D2E/DX2                !
 ! D8    D(3,2,7,37)          -179.8368         estimate D2E/DX2                !
 ! D9    D(2,3,4,5)              0.0706         estimate D2E/DX2                !
 ! D10   D(2,3,4,35)           179.8685         estimate D2E/DX2                !
 ! D11   D(34,3,4,5)          -179.7437         estimate D2E/DX2                !
 ! D12   D(34,3,4,35)            0.0542         estimate D2E/DX2                !
 ! D13   D(3,4,5,6)              0.0636         estimate D2E/DX2                !
 ! D14   D(3,4,5,36)           179.3449         estimate D2E/DX2                !
 ! D15   D(35,4,5,6)          -179.7345         estimate D2E/DX2                !
 ! D16   D(35,4,5,36)           -0.4532         estimate D2E/DX2                !
 ! D17   D(4,5,6,7)             -0.1583         estimate D2E/DX2                !
 ! D18   D(4,5,6,8)           -179.4074         estimate D2E/DX2                !
 ! D19   D(36,5,6,7)          -179.4264         estimate D2E/DX2                !
 ! D20   D(36,5,6,8)             1.3245         estimate D2E/DX2                !
 ! D21   D(5,6,7,2)              0.1188         estimate D2E/DX2                !
 ! D22   D(5,6,7,37)           179.9714         estimate D2E/DX2                !
 ! D23   D(8,6,7,2)            179.4188         estimate D2E/DX2                !
 ! D24   D(8,6,7,37)            -0.7286         estimate D2E/DX2                !
 ! D25   D(5,6,8,9)            -12.7898         estimate D2E/DX2                !
 ! D26   D(5,6,8,38)           110.1962         estimate D2E/DX2                !
 ! D27   D(5,6,8,39)          -134.9194         estimate D2E/DX2                !
 ! D28   D(7,6,8,9)            167.9421         estimate D2E/DX2                !
 ! D29   D(7,6,8,38)           -69.0718         estimate D2E/DX2                !
 ! D30   D(7,6,8,39)            45.8125         estimate D2E/DX2                !
 ! D31   D(6,8,9,10)            77.7014         estimate D2E/DX2                !
 ! D32   D(6,8,9,22)           -92.3244         estimate D2E/DX2                !
 ! D33   D(38,8,9,10)          -44.9123         estimate D2E/DX2                !
 ! D34   D(38,8,9,22)          145.0619         estimate D2E/DX2                !
 ! D35   D(39,8,9,10)         -160.0728         estimate D2E/DX2                !
 ! D36   D(39,8,9,22)           29.9014         estimate D2E/DX2                !
 ! D37   D(8,9,10,11)         -173.5647         estimate D2E/DX2                !
 ! D38   D(8,9,10,12)            8.5135         estimate D2E/DX2                !
 ! D39   D(22,9,10,11)          -3.8709         estimate D2E/DX2                !
 ! D40   D(22,9,10,12)         178.2074         estimate D2E/DX2                !
 ! D41   D(8,9,22,23)           30.9947         estimate D2E/DX2                !
 ! D42   D(8,9,22,27)         -147.5888         estimate D2E/DX2                !
 ! D43   D(10,9,22,23)        -139.0479         estimate D2E/DX2                !
 ! D44   D(10,9,22,27)          42.3686         estimate D2E/DX2                !
 ! D45   D(9,10,12,13)        -172.3124         estimate D2E/DX2                !
 ! D46   D(9,10,12,40)         -52.1778         estimate D2E/DX2                !
 ! D47   D(9,10,12,41)          66.8441         estimate D2E/DX2                !
 ! D48   D(11,10,12,13)          9.7665         estimate D2E/DX2                !
 ! D49   D(11,10,12,40)        129.9011         estimate D2E/DX2                !
 ! D50   D(11,10,12,41)       -111.077          estimate D2E/DX2                !
 ! D51   D(10,12,13,14)        -73.7099         estimate D2E/DX2                !
 ! D52   D(10,12,13,21)         81.2076         estimate D2E/DX2                !
 ! D53   D(40,12,13,14)        164.905          estimate D2E/DX2                !
 ! D54   D(40,12,13,21)        -40.1776         estimate D2E/DX2                !
 ! D55   D(41,12,13,14)         46.8005         estimate D2E/DX2                !
 ! D56   D(41,12,13,21)       -158.282          estimate D2E/DX2                !
 ! D57   D(12,13,14,15)        163.1517         estimate D2E/DX2                !
 ! D58   D(21,13,14,15)          4.8156         estimate D2E/DX2                !
 ! D59   D(12,13,21,16)       -162.3069         estimate D2E/DX2                !
 ! D60   D(12,13,21,20)         21.1173         estimate D2E/DX2                !
 ! D61   D(14,13,21,16)         -4.0726         estimate D2E/DX2                !
 ! D62   D(14,13,21,20)        179.3516         estimate D2E/DX2                !
 ! D63   D(13,14,15,16)         -3.3023         estimate D2E/DX2                !
 ! D64   D(14,15,16,17)        179.5632         estimate D2E/DX2                !
 ! D65   D(14,15,16,21)          0.5444         estimate D2E/DX2                !
 ! D66   D(15,16,17,18)       -179.2624         estimate D2E/DX2                !
 ! D67   D(15,16,17,42)          0.7938         estimate D2E/DX2                !
 ! D68   D(21,16,17,18)         -0.3559         estimate D2E/DX2                !
 ! D69   D(21,16,17,42)        179.7002         estimate D2E/DX2                !
 ! D70   D(15,16,21,13)          2.2209         estimate D2E/DX2                !
 ! D71   D(15,16,21,20)        179.3819         estimate D2E/DX2                !
 ! D72   D(17,16,21,13)       -176.9526         estimate D2E/DX2                !
 ! D73   D(17,16,21,20)          0.2085         estimate D2E/DX2                !
 ! D74   D(16,17,18,19)          0.2355         estimate D2E/DX2                !
 ! D75   D(16,17,18,43)       -179.7264         estimate D2E/DX2                !
 ! D76   D(42,17,18,19)       -179.821          estimate D2E/DX2                !
 ! D77   D(42,17,18,43)          0.2172         estimate D2E/DX2                !
 ! D78   D(17,18,19,20)          0.049          estimate D2E/DX2                !
 ! D79   D(17,18,19,44)       -179.8529         estimate D2E/DX2                !
 ! D80   D(43,18,19,20)       -179.9891         estimate D2E/DX2                !
 ! D81   D(43,18,19,44)          0.109          estimate D2E/DX2                !
 ! D82   D(18,19,20,21)         -0.2027         estimate D2E/DX2                !
 ! D83   D(18,19,20,45)       -179.9717         estimate D2E/DX2                !
 ! D84   D(44,19,20,21)        179.6991         estimate D2E/DX2                !
 ! D85   D(44,19,20,45)         -0.0699         estimate D2E/DX2                !
 ! D86   D(19,20,21,13)        176.185          estimate D2E/DX2                !
 ! D87   D(19,20,21,16)          0.0755         estimate D2E/DX2                !
 ! D88   D(45,20,21,13)         -4.0463         estimate D2E/DX2                !
 ! D89   D(45,20,21,16)        179.8442         estimate D2E/DX2                !
 ! D90   D(9,22,23,24)        -178.4831         estimate D2E/DX2                !
 ! D91   D(9,22,23,46)           1.9475         estimate D2E/DX2                !
 ! D92   D(27,22,23,24)          0.1341         estimate D2E/DX2                !
 ! D93   D(27,22,23,46)       -179.4353         estimate D2E/DX2                !
 ! D94   D(9,22,27,26)         178.9088         estimate D2E/DX2                !
 ! D95   D(9,22,27,49)          -2.6377         estimate D2E/DX2                !
 ! D96   D(23,22,27,26)          0.2957         estimate D2E/DX2                !
 ! D97   D(23,22,27,49)        178.7492         estimate D2E/DX2                !
 ! D98   D(22,23,24,25)         -0.5041         estimate D2E/DX2                !
 ! D99   D(22,23,24,47)        179.4532         estimate D2E/DX2                !
 ! D100  D(46,23,24,25)        179.0716         estimate D2E/DX2                !
 ! D101  D(46,23,24,47)         -0.9711         estimate D2E/DX2                !
 ! D102  D(23,24,25,26)          0.4336         estimate D2E/DX2                !
 ! D103  D(23,24,25,28)       -179.0242         estimate D2E/DX2                !
 ! D104  D(47,24,25,26)       -179.5234         estimate D2E/DX2                !
 ! D105  D(47,24,25,28)          1.0188         estimate D2E/DX2                !
 ! D106  D(24,25,26,27)          0.002          estimate D2E/DX2                !
 ! D107  D(24,25,26,48)       -179.3601         estimate D2E/DX2                !
 ! D108  D(28,25,26,27)        179.4585         estimate D2E/DX2                !
 ! D109  D(28,25,26,48)          0.0963         estimate D2E/DX2                !
 ! D110  D(24,25,28,29)         35.6115         estimate D2E/DX2                !
 ! D111  D(24,25,28,33)       -144.5851         estimate D2E/DX2                !
 ! D112  D(26,25,28,29)       -143.8338         estimate D2E/DX2                !
 ! D113  D(26,25,28,33)         35.9696         estimate D2E/DX2                !
 ! D114  D(25,26,27,22)         -0.3661         estimate D2E/DX2                !
 ! D115  D(25,26,27,49)       -178.8352         estimate D2E/DX2                !
 ! D116  D(48,26,27,22)        179.0007         estimate D2E/DX2                !
 ! D117  D(48,26,27,49)          0.5317         estimate D2E/DX2                !
 ! D118  D(25,28,29,30)        179.7492         estimate D2E/DX2                !
 ! D119  D(25,28,29,50)          0.2724         estimate D2E/DX2                !
 ! D120  D(33,28,29,30)         -0.0607         estimate D2E/DX2                !
 ! D121  D(33,28,29,50)       -179.5376         estimate D2E/DX2                !
 ! D122  D(25,28,33,32)       -179.7559         estimate D2E/DX2                !
 ! D123  D(25,28,33,53)          0.605          estimate D2E/DX2                !
 ! D124  D(29,28,33,32)          0.0548         estimate D2E/DX2                !
 ! D125  D(29,28,33,53)       -179.5842         estimate D2E/DX2                !
 ! D126  D(28,29,30,31)          0.0083         estimate D2E/DX2                !
 ! D127  D(28,29,30,51)       -179.8454         estimate D2E/DX2                !
 ! D128  D(50,29,30,31)        179.4842         estimate D2E/DX2                !
 ! D129  D(50,29,30,51)         -0.3695         estimate D2E/DX2                !
 ! D130  D(29,30,31,32)          0.0589         estimate D2E/DX2                !
 ! D131  D(29,30,31,52)       -179.9446         estimate D2E/DX2                !
 ! D132  D(51,30,31,32)        179.9134         estimate D2E/DX2                !
 ! D133  D(51,30,31,52)         -0.0901         estimate D2E/DX2                !
 ! D134  D(30,31,32,33)         -0.0666         estimate D2E/DX2                !
 ! D135  D(52,31,32,33)        179.9368         estimate D2E/DX2                !
 ! D136  D(31,32,33,28)          0.0082         estimate D2E/DX2                !
 ! D137  D(31,32,33,53)        179.6631         estimate D2E/DX2                !
 --------------------------------------------------------------------------------
 Trust Radius=3.00D-01 FncErr=1.00D-07 GrdErr=1.00D-07
 Number of steps in this run=    297 maximum allowed number of steps=    318.
 GradGradGradGradGradGradGradGradGradGradGradGradGradGradGradGradGradGrad

 Leave Link  103 at Sat Aug 27 02:47:48 2022, MaxMem=  209715200 cpu:       0.1
 (Enter /opt/gaussian/l202.exe)
 Stoichiometry    C26H20ClN5O
 Framework group  C1[X(C26H20ClN5O)]
 Deg. of freedom   153
 Full point group                 C1      NOp   1
 Largest Abelian subgroup         C1      NOp   1
 Largest concise Abelian subgroup C1      NOp   1
                         Standard orientation:                         
 ---------------------------------------------------------------------
 Center     Atomic      Atomic             Coordinates (Angstroms)
 Number     Number       Type             X           Y           Z
 ---------------------------------------------------------------------
      1         17           0       -1.850882    6.057692   -0.336373
      2          6           0       -1.676719    4.414160    0.057675
      3          6           0       -2.080020    3.956065    1.317222
      4          6           0       -1.931477    2.606974    1.628070
      5          6           0       -1.386357    1.719692    0.698690
      6          6           0       -0.981474    2.178040   -0.557109
      7          6           0       -1.129634    3.534383   -0.878238
      8          6           0       -0.396340    1.288114   -1.622194
      9          7           0        0.013713   -0.042333   -1.240337
     10          6           0       -0.928749   -1.063657   -1.061713
     11          8           0       -0.603955   -2.177046   -0.620944
     12          6           0       -2.377708   -0.754510   -1.484821
     13          7           0       -3.343520   -1.758616   -1.127969
     14          7           0       -3.452754   -2.974631   -1.762744
     15          7           0       -4.109614   -3.804951   -1.090761
     16          6           0       -4.468428   -3.222230    0.169645
     17          6           0       -5.187649   -3.686281    1.269896
     18          6           0       -5.354031   -2.813632    2.341344
     19          6           0       -4.827751   -1.512036    2.326225
     20          6           0       -4.110682   -1.017203    1.241068
     21          6           0       -3.930233   -1.877898    0.158540
     22          6           0        1.367090   -0.223050   -0.843693
     23          6           0        2.075994    0.820745   -0.209183
     24          6           0        3.407676    0.652223    0.149039
     25          6           0        4.074977   -0.555025   -0.099244
     26          6           0        3.372141   -1.591964   -0.727664
     27          6           0        2.041841   -1.435882   -1.100372
     28          6           0        5.464995   -0.729434    0.299070
     29          6           0        5.966602   -0.154176    1.476968
     30          6           0        7.303572   -0.354427    1.817884
     31          6           0        8.107400   -1.130556    0.963884
     32          7           0        7.650673   -1.692340   -0.172580
     33          6           0        6.359618   -1.491673   -0.489660
     34          1           0       -2.506328    4.654003    2.053746
     35          1           0       -2.243446    2.236548    2.616681
     36          1           0       -1.270854    0.659878    0.976436
     37          1           0       -0.812226    3.903051   -1.866195
     38          1           0       -1.157087    1.202727   -2.455141
     39          1           0        0.506156    1.814424   -2.057376
     40          1           0       -2.709431    0.208125   -0.996345
     41          1           0       -2.389138   -0.634801   -2.607728
     42          1           0       -5.604329   -4.703505    1.285737
     43          1           0       -5.913155   -3.150704    3.227632
     44          1           0       -4.986714   -0.863613    3.202045
     45          1           0       -3.702798    0.002977    1.239983
     46          1           0        1.578964    1.778041    0.015302
     47          1           0        3.942427    1.483320    0.634516
     48          1           0        3.873243   -2.553196   -0.923226
     49          1           0        1.511948   -2.277986   -1.575523
     50          1           0        5.308534    0.440736    2.127500
     51          1           0        7.723934    0.080467    2.733802
     52          1           0        9.171209   -1.314443    1.197296
     53          1           0        6.018315   -1.960922   -1.430461
 ---------------------------------------------------------------------
 Rotational constants (GHZ):      0.1310254      0.0662417      0.0492328
 Leave Link  202 at Sat Aug 27 02:47:48 2022, MaxMem=  209715200 cpu:       0.0
 (Enter /opt/gaussian/l301.exe)
 Standard basis: 6-31G (6D, 7F)
 Ernie: Thresh=  0.10000D-02 Tol=  0.10000D-05 Strict=F.
 There are   341 symmetry adapted basis functions of A   symmetry.
 Integral buffers will be    131072 words long.
 Raffenetti 1 integral format.
 Two-electron integral symmetry is turned on.
   341 basis functions,   830 primitive gaussians,   341 cartesian basis functions
   118 alpha electrons      118 beta electrons
       nuclear repulsion energy      3163.9431434339 Hartrees.
 IExCor=    0 DFT=F Ex=HF Corr=None ExCW=0 ScaHFX=  1.000000
 ScaDFX=  1.000000  1.000000  1.000000  1.000000 ScalE2=  1.000000  1.000000
 IRadAn=      0 IRanWt=     -1 IRanGd=            0 ICorTp=0
 NAtoms=   53 NActive=   53 NUniq=   53 SFac= 1.00D+00 NAtFMM=   60 NAOKFM=F Big=F
 Leave Link  301 at Sat Aug 27 02:47:48 2022, MaxMem=  209715200 cpu:       0.2
 (Enter /opt/gaussian/l302.exe)
 NPDir=0 NMtPBC=     1 NCelOv=     1 NCel=       1 NClECP=     1 NCelD=      1
         NCelK=      1 NCelE2=     1 NClLst=     1 CellRange=     0.0.
 One-electron integrals computed using PRISM.
 NBasis=   341 RedAO= T  NBF=   341
 NBsUse=   341 1.00D-06 NBFU=   341
 Leave Link  302 at Sat Aug 27 02:47:48 2022, MaxMem=  209715200 cpu:       2.1
 (Enter /opt/gaussian/l303.exe)
 DipDrv:  MaxL=1.
 Leave Link  303 at Sat Aug 27 02:47:48 2022, MaxMem=  209715200 cpu:       0.5
 (Enter /opt/gaussian/l401.exe)
 Harris functional with IExCor=  205 diagonalized for initial guess.
 ExpMin= 1.43D-01 ExpMax= 2.52D+04 ExpMxC= 3.78D+03 IAcc=1 IRadAn=         1 AccDes= 0.00D+00
 HarFok:  IExCor=  205 AccDes= 0.00D+00 IRadAn=         1 IDoV= 1
 ScaDFX=  1.000000  1.000000  1.000000  1.000000
 FoFCou: FMM=F IPFlag=           0 FMFlag=      100000 FMFlg1=           0
         NFxFlg=           0 DoJE=T BraDBF=F KetDBF=T FulRan=T
         Omega=  0.000000  0.000000  1.000000  0.000000  0.000000 ICntrl=     500 IOpCl=  0
         NMat0=    1 NMatS0=    1 NMatT0=    0 NMatD0=    1 NMtDS0=    0 NMtDT0=    0
         I1Cent=           4 NGrid=           0.
 Petite list used in FoFCou.
 Harris En= -1803.28070049710    
 Initial guess orbital symmetries:
       Occupied  (A) (A) (A) (A) (A) (A) (A) (A) (A) (A) (A) (A)
                 (A) (A) (A) (A) (A) (A) (A) (A) (A) (A) (A) (A)
                 (A) (A) (A) (A) (A) (A) (A) (A) (A) (A) (A) (A)
                 (A) (A) (A) (A) (A) (A) (A) (A) (A) (A) (A) (A)
                 (A) (A) (A) (A) (A) (A) (A) (A) (A) (A) (A) (A)
                 (A) (A) (A) (A) (A) (A) (A) (A) (A) (A) (A) (A)
                 (A) (A) (A) (A) (A) (A) (A) (A) (A) (A) (A) (A)
                 (A) (A) (A) (A) (A) (A) (A) (A) (A) (A) (A) (A)
                 (A) (A) (A) (A) (A) (A) (A) (A) (A) (A) (A) (A)
                 (A) (A) (A) (A) (A) (A) (A) (A) (A) (A)
       Virtual   (A) (A) (A) (A) (A) (A) (A) (A) (A) (A) (A) (A)
                 (A) (A) (A) (A) (A) (A) (A) (A) (A) (A) (A) (A)
                 (A) (A) (A) (A) (A) (A) (A) (A) (A) (A) (A) (A)
                 (A) (A) (A) (A) (A) (A) (A) (A) (A) (A) (A) (A)
                 (A) (A) (A) (A) (A) (A) (A) (A) (A) (A) (A) (A)
                 (A) (A) (A) (A) (A) (A) (A) (A) (A) (A) (A) (A)
                 (A) (A) (A) (A) (A) (A) (A) (A) (A) (A) (A) (A)
                 (A) (A) (A) (A) (A) (A) (A) (A) (A) (A) (A) (A)
                 (A) (A) (A) (A) (A) (A) (A) (A) (A) (A) (A) (A)
                 (A) (A) (A) (A) (A) (A) (A) (A) (A) (A) (A) (A)
                 (A) (A) (A) (A) (A) (A) (A) (A) (A) (A) (A) (A)
                 (A) (A) (A) (A) (A) (A) (A) (A) (A) (A) (A) (A)
                 (A) (A) (A) (A) (A) (A) (A) (A) (A) (A) (A) (A)
                 (A) (A) (A) (A) (A) (A) (A) (A) (A) (A) (A) (A)
                 (A) (A) (A) (A) (A) (A) (A) (A) (A) (A) (A) (A)
                 (A) (A) (A) (A) (A) (A) (A) (A) (A) (A) (A) (A)
                 (A) (A) (A) (A) (A) (A) (A) (A) (A) (A) (A) (A)
                 (A) (A) (A) (A) (A) (A) (A) (A) (A) (A) (A) (A)
                 (A) (A) (A) (A) (A) (A) (A)
 The electronic state of the initial guess is 1-A.
 Leave Link  401 at Sat Aug 27 02:47:49 2022, MaxMem=  209715200 cpu:       4.9
 (Enter /opt/gaussian/l502.exe)
 Closed shell SCF:
 Requested convergence on RMS density matrix=1.00D-08 within 128 cycles.
 Requested convergence on MAX density matrix=1.00D-06.
 Requested convergence on             energy=1.00D-06.
 No special actions if energy rises.
 Using DIIS extrapolation, IDIIS=  1040.
 Integral symmetry usage will be decided dynamically.
 IEnd=      372350 IEndB=      372350 NGot=   209715200 MDV=   209476113
 LenX=   209476113 LenY=   209359391
 Fock matrices will be formed incrementally for  20 cycles.
 Integral accuracy reduced to 1.0D-05 until final iterations.

 Cycle   1  Pass 0  IDiag  1:
 FoFCou: FMM=F IPFlag=           0 FMFlag=      100000 FMFlg1=           0
         NFxFlg=           0 DoJE=F BraDBF=F KetDBF=F FulRan=T
         Omega=  0.000000  0.000000  1.000000  0.000000  0.000000 ICntrl=       0 IOpCl=  0
         NMat0=    1 NMatS0=    1 NMatT0=    0 NMatD0=    1 NMtDS0=    0 NMtDT0=    0
         I1Cent=           0 NGrid=           0.
 Symmetry not used in FoFCou.
 E= -1801.23301814482    
 DIIS: error= 3.05D-02 at cycle   1 NSaved=   1.
 NSaved= 1 IEnMin= 1 EnMin= -1801.23301814482     IErMin= 1 ErrMin= 3.05D-02
 ErrMax= 3.05D-02 EMaxC= 1.00D-01 BMatC= 1.09D+00 BMatP= 1.09D+00
 IDIUse=3 WtCom= 6.95D-01 WtEn= 3.05D-01
 Coeff-Com:  0.100D+01
 Coeff-En:   0.100D+01
 Coeff:      0.100D+01
 Gap=     0.584 Goal=   None    Shift=    0.000
 GapD=    0.584 DampG=2.000 DampE=0.500 DampFc=1.0000 IDamp=-1.
 RMSDP=5.68D-03 MaxDP=1.71D-01              OVMax= 1.63D-01

 Cycle   2  Pass 0  IDiag  1:
 RMSU=  3.98D-03    CP:  9.69D-01
 E= -1801.98013193558     Delta-E=       -0.747113790762 Rises=F Damp=F
 DIIS: error= 1.82D-02 at cycle   2 NSaved=   2.
 NSaved= 2 IEnMin= 2 EnMin= -1801.98013193558     IErMin= 2 ErrMin= 1.82D-02
 ErrMax= 1.82D-02 EMaxC= 1.00D-01 BMatC= 1.82D-01 BMatP= 1.09D+00
 IDIUse=3 WtCom= 8.18D-01 WtEn= 1.82D-01
 Coeff-Com:  0.235D+00 0.765D+00
 Coeff-En:   0.000D+00 0.100D+01
 Coeff:      0.192D+00 0.808D+00
 Gap=     0.434 Goal=   None    Shift=    0.000
 RMSDP=2.32D-03 MaxDP=8.75D-02 DE=-7.47D-01 OVMax= 1.02D-01

 Cycle   3  Pass 0  IDiag  1:
 RMSU=  1.46D-03    CP:  9.68D-01  8.11D-01
 E= -1802.12656420724     Delta-E=       -0.146432271662 Rises=F Damp=F
 DIIS: error= 9.22D-03 at cycle   3 NSaved=   3.
 NSaved= 3 IEnMin= 3 EnMin= -1802.12656420724     IErMin= 3 ErrMin= 9.22D-03
 ErrMax= 9.22D-03 EMaxC= 1.00D-01 BMatC= 3.08D-02 BMatP= 1.82D-01
 IDIUse=3 WtCom= 9.08D-01 WtEn= 9.22D-02
 Coeff-Com:  0.613D-02 0.276D+00 0.718D+00
 Coeff-En:   0.000D+00 0.000D+00 0.100D+01
 Coeff:      0.556D-02 0.251D+00 0.744D+00
 Gap=     0.389 Goal=   None    Shift=    0.000
 RMSDP=7.79D-04 MaxDP=3.43D-02 DE=-1.46D-01 OVMax= 3.79D-02

 Cycle   4  Pass 0  IDiag  1:
 RMSU=  3.43D-04    CP:  9.68D-01  9.00D-01  8.30D-01
 E= -1802.15378547677     Delta-E=       -0.027221269526 Rises=F Damp=F
 DIIS: error= 2.75D-03 at cycle   4 NSaved=   4.
 NSaved= 4 IEnMin= 4 EnMin= -1802.15378547677     IErMin= 4 ErrMin= 2.75D-03
 ErrMax= 2.75D-03 EMaxC= 1.00D-01 BMatC= 2.80D-03 BMatP= 3.08D-02
 IDIUse=3 WtCom= 9.72D-01 WtEn= 2.75D-02
 Coeff-Com: -0.132D-01 0.252D-01 0.268D+00 0.720D+00
 Coeff-En:   0.000D+00 0.000D+00 0.000D+00 0.100D+01
 Coeff:     -0.128D-01 0.245D-01 0.261D+00 0.727D+00
 Gap=     0.385 Goal=   None    Shift=    0.000
 RMSDP=2.49D-04 MaxDP=9.28D-03 DE=-2.72D-02 OVMax= 8.93D-03

 Cycle   5  Pass 0  IDiag  1:
 RMSU=  1.14D-04    CP:  9.67D-01  8.97D-01  9.05D-01  7.73D-01
 E= -1802.15648688408     Delta-E=       -0.002701407311 Rises=F Damp=F
 DIIS: error= 9.48D-04 at cycle   5 NSaved=   5.
 NSaved= 5 IEnMin= 5 EnMin= -1802.15648688408     IErMin= 5 ErrMin= 9.48D-04
 ErrMax= 9.48D-04 EMaxC= 1.00D-01 BMatC= 1.00D-04 BMatP= 2.80D-03
 IDIUse=3 WtCom= 9.91D-01 WtEn= 9.48D-03
 Coeff-Com: -0.144D-02-0.139D-01-0.102D-01 0.731D-01 0.952D+00
 Coeff-En:   0.000D+00 0.000D+00 0.000D+00 0.000D+00 0.100D+01
 Coeff:     -0.143D-02-0.138D-01-0.101D-01 0.724D-01 0.953D+00
 Gap=     0.385 Goal=   None    Shift=    0.000
 RMSDP=7.47D-05 MaxDP=1.91D-03 DE=-2.70D-03 OVMax= 5.36D-03

 Cycle   6  Pass 0  IDiag  1:
 RMSU=  4.01D-05    CP:  9.67D-01  8.97D-01  9.21D-01  8.27D-01  1.15D+00
 E= -1802.15673952588     Delta-E=       -0.000252641797 Rises=F Damp=F
 DIIS: error= 3.49D-04 at cycle   6 NSaved=   6.
 NSaved= 6 IEnMin= 6 EnMin= -1802.15673952588     IErMin= 6 ErrMin= 3.49D-04
 ErrMax= 3.49D-04 EMaxC= 1.00D-01 BMatC= 2.65D-05 BMatP= 1.00D-04
 IDIUse=3 WtCom= 9.97D-01 WtEn= 3.49D-03
 Coeff-Com:  0.233D-02-0.814D-02-0.514D-01-0.143D+00 0.162D+00 0.104D+01
 Coeff-En:   0.000D+00 0.000D+00 0.000D+00 0.000D+00 0.000D+00 0.100D+01
 Coeff:      0.233D-02-0.811D-02-0.512D-01-0.142D+00 0.161D+00 0.104D+01
 Gap=     0.386 Goal=   None    Shift=    0.000
 RMSDP=4.97D-05 MaxDP=1.78D-03 DE=-2.53D-04 OVMax= 2.98D-03

 Cycle   7  Pass 0  IDiag  1:
 RMSU=  1.60D-05    CP:  9.67D-01  8.97D-01  9.31D-01  8.36D-01  1.38D+00
                    CP:  1.18D+00
 E= -1802.15682201812     Delta-E=       -0.000082492241 Rises=F Damp=F
 DIIS: error= 1.88D-04 at cycle   7 NSaved=   7.
 NSaved= 7 IEnMin= 7 EnMin= -1802.15682201812     IErMin= 7 ErrMin= 1.88D-04
 ErrMax= 1.88D-04 EMaxC= 1.00D-01 BMatC= 3.51D-06 BMatP= 2.65D-05
 IDIUse=3 WtCom= 9.98D-01 WtEn= 1.88D-03
 Coeff-Com:  0.593D-04 0.182D-02 0.580D-02-0.678D-02-0.115D+00-0.569D-01
 Coeff-Com:  0.117D+01
 Coeff-En:   0.000D+00 0.000D+00 0.000D+00 0.000D+00 0.000D+00 0.000D+00
 Coeff-En:   0.100D+01
 Coeff:      0.592D-04 0.182D-02 0.578D-02-0.676D-02-0.115D+00-0.568D-01
 Coeff:      0.117D+01
 Gap=     0.386 Goal=   None    Shift=    0.000
 RMSDP=1.90D-05 MaxDP=6.65D-04 DE=-8.25D-05 OVMax= 1.59D-03

 Cycle   8  Pass 0  IDiag  1:
 RMSU=  6.44D-06    CP:  9.67D-01  8.96D-01  9.32D-01  8.35D-01  1.44D+00
                    CP:  1.36D+00  1.34D+00
 E= -1802.15683566639     Delta-E=       -0.000013648272 Rises=F Damp=F
 DIIS: error= 6.52D-05 at cycle   8 NSaved=   8.
 NSaved= 8 IEnMin= 8 EnMin= -1802.15683566639     IErMin= 8 ErrMin= 6.52D-05
 ErrMax= 6.52D-05 EMaxC= 1.00D-01 BMatC= 7.67D-07 BMatP= 3.51D-06
 IDIUse=1 WtCom= 1.00D+00 WtEn= 0.00D+00
 Coeff-Com: -0.524D-03 0.226D-02 0.141D-01 0.305D-01-0.541D-01-0.262D+00
 Coeff-Com:  0.224D+00 0.105D+01
 Coeff:     -0.524D-03 0.226D-02 0.141D-01 0.305D-01-0.541D-01-0.262D+00
 Coeff:      0.224D+00 0.105D+01
 Gap=     0.386 Goal=   None    Shift=    0.000
 RMSDP=8.94D-06 MaxDP=2.67D-04 DE=-1.36D-05 OVMax= 7.22D-04

 Initial convergence to 1.0D-05 achieved.  Increase integral accuracy.
 Cycle   9  Pass 1  IDiag  1:
 E= -1802.15683968218     Delta-E=       -0.000004015792 Rises=F Damp=F
 DIIS: error= 7.16D-05 at cycle   1 NSaved=   1.
 NSaved= 1 IEnMin= 1 EnMin= -1802.15683968218     IErMin= 1 ErrMin= 7.16D-05
 ErrMax= 7.16D-05 EMaxC= 1.00D-01 BMatC= 1.82D-06 BMatP= 1.82D-06
 IDIUse=1 WtCom= 1.00D+00 WtEn= 0.00D+00
 Coeff-Com:  0.100D+01
 Coeff:      0.100D+01
 Gap=     0.386 Goal=   None    Shift=    0.000
 RMSDP=8.94D-06 MaxDP=2.67D-04 DE=-4.02D-06 OVMax= 1.89D-04

 Cycle  10  Pass 1  IDiag  1:
 RMSU=  3.82D-05    CP:  1.00D+00
 E= -1802.15684169101     Delta-E=       -0.000002008832 Rises=F Damp=F
 DIIS: error= 1.34D-05 at cycle   2 NSaved=   2.
 NSaved= 2 IEnMin= 2 EnMin= -1802.15684169101     IErMin= 2 ErrMin= 1.34D-05
 ErrMax= 1.34D-05 EMaxC= 1.00D-01 BMatC= 3.66D-08 BMatP= 1.82D-06
 IDIUse=1 WtCom= 1.00D+00 WtEn= 0.00D+00
 Coeff-Com: -0.388D-01 0.104D+01
 Coeff:     -0.388D-01 0.104D+01
 Gap=     0.386 Goal=   None    Shift=    0.000
 RMSDP=3.21D-06 MaxDP=6.61D-05 DE=-2.01D-06 OVMax= 1.24D-04

 Cycle  11  Pass 1  IDiag  1:
 RMSU=  9.88D-07    CP:  1.00D+00  1.05D+00
 E= -1802.15684180631     Delta-E=       -0.000000115293 Rises=F Damp=F
 DIIS: error= 9.71D-06 at cycle   3 NSaved=   3.
 NSaved= 3 IEnMin= 3 EnMin= -1802.15684180631     IErMin= 3 ErrMin= 9.71D-06
 ErrMax= 9.71D-06 EMaxC= 1.00D-01 BMatC= 1.64D-08 BMatP= 3.66D-08
 IDIUse=1 WtCom= 1.00D+00 WtEn= 0.00D+00
 Coeff-Com: -0.233D-01 0.281D+00 0.742D+00
 Coeff:     -0.233D-01 0.281D+00 0.742D+00
 Gap=     0.386 Goal=   None    Shift=    0.000
 RMSDP=5.99D-07 MaxDP=1.67D-05 DE=-1.15D-07 OVMax= 5.86D-05

 Cycle  12  Pass 1  IDiag  1:
 RMSU=  4.03D-07    CP:  1.00D+00  1.06D+00  1.11D+00
 E= -1802.15684184499     Delta-E=       -0.000000038683 Rises=F Damp=F
 DIIS: error= 6.41D-06 at cycle   4 NSaved=   4.
 NSaved= 4 IEnMin= 4 EnMin= -1802.15684184499     IErMin= 4 ErrMin= 6.41D-06
 ErrMax= 6.41D-06 EMaxC= 1.00D-01 BMatC= 5.59D-09 BMatP= 1.64D-08
 IDIUse=1 WtCom= 1.00D+00 WtEn= 0.00D+00
 Coeff-Com:  0.272D-01-0.640D+00-0.265D+00 0.188D+01
 Coeff:      0.272D-01-0.640D+00-0.265D+00 0.188D+01
 Gap=     0.386 Goal=   None    Shift=    0.000
 RMSDP=1.09D-06 MaxDP=2.76D-05 DE=-3.87D-08 OVMax= 1.28D-04

 Cycle  13  Pass 1  IDiag  1:
 RMSU=  3.00D-07    CP:  1.00D+00  1.06D+00  1.68D+00  2.04D+00
 E= -1802.15684188299     Delta-E=       -0.000000038001 Rises=F Damp=F
 DIIS: error= 1.53D-06 at cycle   5 NSaved=   5.
 NSaved= 5 IEnMin= 5 EnMin= -1802.15684188299     IErMin= 5 ErrMin= 1.53D-06
 ErrMax= 1.53D-06 EMaxC= 1.00D-01 BMatC= 3.66D-10 BMatP= 5.59D-09
 IDIUse=1 WtCom= 1.00D+00 WtEn= 0.00D+00
 Coeff-Com:  0.811D-02-0.167D+00-0.119D+00 0.412D+00 0.866D+00
 Coeff:      0.811D-02-0.167D+00-0.119D+00 0.412D+00 0.866D+00
 Gap=     0.386 Goal=   None    Shift=    0.000
 RMSDP=1.80D-07 MaxDP=5.28D-06 DE=-3.80D-08 OVMax= 2.09D-05

 Cycle  14  Pass 1  IDiag  1:
 RMSU=  7.00D-08    CP:  1.00D+00  1.06D+00  1.73D+00  2.23D+00  1.17D+00
 E= -1802.15684188431     Delta-E=       -0.000000001324 Rises=F Damp=F
 DIIS: error= 4.68D-07 at cycle   6 NSaved=   6.
 NSaved= 6 IEnMin= 6 EnMin= -1802.15684188431     IErMin= 6 ErrMin= 4.68D-07
 ErrMax= 4.68D-07 EMaxC= 1.00D-01 BMatC= 6.93D-11 BMatP= 3.66D-10
 IDIUse=1 WtCom= 1.00D+00 WtEn= 0.00D+00
 Coeff-Com: -0.368D-02 0.894D-01 0.372D-01-0.288D+00 0.137D+00 0.103D+01
 Coeff:     -0.368D-02 0.894D-01 0.372D-01-0.288D+00 0.137D+00 0.103D+01
 Gap=     0.386 Goal=   None    Shift=    0.000
 RMSDP=7.52D-08 MaxDP=1.61D-06 DE=-1.32D-09 OVMax= 8.38D-06

 Cycle  15  Pass 1  IDiag  1:
 RMSU=  2.94D-08    CP:  1.00D+00  1.06D+00  1.74D+00  2.29D+00  1.28D+00
                    CP:  1.15D+00
 E= -1802.15684188452     Delta-E=       -0.000000000206 Rises=F Damp=F
 DIIS: error= 2.25D-07 at cycle   7 NSaved=   7.
 NSaved= 7 IEnMin= 7 EnMin= -1802.15684188452     IErMin= 7 ErrMin= 2.25D-07
 ErrMax= 2.25D-07 EMaxC= 1.00D-01 BMatC= 7.87D-12 BMatP= 6.93D-11
 IDIUse=1 WtCom= 1.00D+00 WtEn= 0.00D+00
 Coeff-Com: -0.971D-03 0.198D-01 0.184D-01-0.564D-01-0.960D-01-0.175D-01
 Coeff-Com:  0.113D+01
 Coeff:     -0.971D-03 0.198D-01 0.184D-01-0.564D-01-0.960D-01-0.175D-01
 Coeff:      0.113D+01
 Gap=     0.386 Goal=   None    Shift=    0.000
 RMSDP=2.72D-08 MaxDP=7.60D-07 DE=-2.06D-10 OVMax= 2.83D-06

 Cycle  16  Pass 1  IDiag  1:
 RMSU=  1.09D-08    CP:  1.00D+00  1.06D+00  1.74D+00  2.30D+00  1.30D+00
                    CP:  1.29D+00  1.34D+00
 E= -1802.15684188458     Delta-E=       -0.000000000057 Rises=F Damp=F
 DIIS: error= 7.21D-08 at cycle   8 NSaved=   8.
 NSaved= 8 IEnMin= 8 EnMin= -1802.15684188458     IErMin= 8 ErrMin= 7.21D-08
 ErrMax= 7.21D-08 EMaxC= 1.00D-01 BMatC= 2.27D-12 BMatP= 7.87D-12
 IDIUse=1 WtCom= 1.00D+00 WtEn= 0.00D+00
 Coeff-Com:  0.442D-03-0.119D-01 0.641D-04 0.388D-01-0.568D-01-0.228D+00
 Coeff-Com:  0.385D+00 0.872D+00
 Coeff:      0.442D-03-0.119D-01 0.641D-04 0.388D-01-0.568D-01-0.228D+00
 Coeff:      0.385D+00 0.872D+00
 Gap=     0.386 Goal=   None    Shift=    0.000
 RMSDP=1.12D-08 MaxDP=3.05D-07 DE=-5.73D-11 OVMax= 1.11D-06

 Cycle  17  Pass 1  IDiag  1:
 RMSU=  4.84D-09    CP:  1.00D+00  1.06D+00  1.74D+00  2.30D+00  1.30D+00
                    CP:  1.33D+00  1.53D+00  9.76D-01
 E= -1802.15684188457     Delta-E=        0.000000000007 Rises=F Damp=F
 DIIS: error= 5.34D-08 at cycle   9 NSaved=   9.
 NSaved= 9 IEnMin= 8 EnMin= -1802.15684188458     IErMin= 9 ErrMin= 5.34D-08
 ErrMax= 5.34D-08 EMaxC= 1.00D-01 BMatC= 1.91D-13 BMatP= 2.27D-12
 IDIUse=1 WtCom= 1.00D+00 WtEn= 0.00D+00
 Coeff-Com:  0.779D-04-0.150D-02-0.110D-02 0.336D-02 0.123D-01 0.671D-02
 Coeff-Com: -0.101D+00-0.682D-01 0.115D+01
 Coeff:      0.779D-04-0.150D-02-0.110D-02 0.336D-02 0.123D-01 0.671D-02
 Coeff:     -0.101D+00-0.682D-01 0.115D+01
 Gap=     0.386 Goal=   None    Shift=    0.000
 RMSDP=4.29D-09 MaxDP=1.22D-07 DE= 7.28D-12 OVMax= 5.10D-07

 SCF Done:  E(RHF) =  -1802.15684188     A.U. after   17 cycles
             Convg  =    0.4286D-08             -V/T =  2.0002
 KE= 1.801817271238D+03 PE=-1.055277351698D+04 EE= 3.784856260423D+03
 Leave Link  502 at Sat Aug 27 02:49:18 2022, MaxMem=  209715200 cpu:     708.3
 (Enter /opt/gaussian/l601.exe)
 Copying SCF densities to generalized density rwf, IOpCl= 0 IROHF=0.

 **********************************************************************

            Population analysis using the SCF density.

 **********************************************************************

 Orbital symmetries:
       Occupied  (A) (A) (A) (A) (A) (A) (A) (A) (A) (A) (A) (A)
                 (A) (A) (A) (A) (A) (A) (A) (A) (A) (A) (A) (A)
                 (A) (A) (A) (A) (A) (A) (A) (A) (A) (A) (A) (A)
                 (A) (A) (A) (A) (A) (A) (A) (A) (A) (A) (A) (A)
                 (A) (A) (A) (A) (A) (A) (A) (A) (A) (A) (A) (A)
                 (A) (A) (A) (A) (A) (A) (A) (A) (A) (A) (A) (A)
                 (A) (A) (A) (A) (A) (A) (A) (A) (A) (A) (A) (A)
                 (A) (A) (A) (A) (A) (A) (A) (A) (A) (A) (A) (A)
                 (A) (A) (A) (A) (A) (A) (A) (A) (A) (A) (A) (A)
                 (A) (A) (A) (A) (A) (A) (A) (A) (A) (A)
       Virtual   (A) (A) (A) (A) (A) (A) (A) (A) (A) (A) (A) (A)
                 (A) (A) (A) (A) (A) (A) (A) (A) (A) (A) (A) (A)
                 (A) (A) (A) (A) (A) (A) (A) (A) (A) (A) (A) (A)
                 (A) (A) (A) (A) (A) (A) (A) (A) (A) (A) (A) (A)
                 (A) (A) (A) (A) (A) (A) (A) (A) (A) (A) (A) (A)
                 (A) (A) (A) (A) (A) (A) (A) (A) (A) (A) (A) (A)
                 (A) (A) (A) (A) (A) (A) (A) (A) (A) (A) (A) (A)
                 (A) (A) (A) (A) (A) (A) (A) (A) (A) (A) (A) (A)
                 (A) (A) (A) (A) (A) (A) (A) (A) (A) (A) (A) (A)
                 (A) (A) (A) (A) (A) (A) (A) (A) (A) (A) (A) (A)
                 (A) (A) (A) (A) (A) (A) (A) (A) (A) (A) (A) (A)
                 (A) (A) (A) (A) (A) (A) (A) (A) (A) (A) (A) (A)
                 (A) (A) (A) (A) (A) (A) (A) (A) (A) (A) (A) (A)
                 (A) (A) (A) (A) (A) (A) (A) (A) (A) (A) (A) (A)
                 (A) (A) (A) (A) (A) (A) (A) (A) (A) (A) (A) (A)
                 (A) (A) (A) (A) (A) (A) (A) (A) (A) (A) (A) (A)
                 (A) (A) (A) (A) (A) (A) (A) (A) (A) (A) (A) (A)
                 (A) (A) (A) (A) (A) (A) (A) (A) (A) (A) (A) (A)
                 (A) (A) (A) (A) (A) (A) (A)
 The electronic state is 1-A.
 Alpha  occ. eigenvalues -- -104.84128 -20.56264 -15.67668 -15.66217 -15.63426
 Alpha  occ. eigenvalues --  -15.62797 -15.58305 -11.40360 -11.33801 -11.33466
 Alpha  occ. eigenvalues --  -11.32237 -11.31283 -11.30698 -11.29329 -11.28795
 Alpha  occ. eigenvalues --  -11.28704 -11.28646 -11.28439 -11.28376 -11.28158
 Alpha  occ. eigenvalues --  -11.27863 -11.27075 -11.27038 -11.26993 -11.26902
 Alpha  occ. eigenvalues --  -11.26602 -11.26200 -11.26066 -11.25875 -11.25742
 Alpha  occ. eigenvalues --  -11.25729 -11.25328 -11.25177 -10.58358  -8.05233
 Alpha  occ. eigenvalues --   -8.04779  -8.04767  -1.46895  -1.41885  -1.29624
 Alpha  occ. eigenvalues --   -1.27051  -1.25074  -1.22863  -1.17686  -1.17508
 Alpha  occ. eigenvalues --   -1.15854  -1.10829  -1.08268  -1.06500  -1.05559
 Alpha  occ. eigenvalues --   -1.05005  -1.03360  -1.02853  -1.02396  -1.00003
 Alpha  occ. eigenvalues --   -0.97102  -0.89702  -0.88863  -0.87255  -0.86507
 Alpha  occ. eigenvalues --   -0.85230  -0.84992  -0.83747  -0.82609  -0.80664
 Alpha  occ. eigenvalues --   -0.77280  -0.73672  -0.73106  -0.72583  -0.72320
 Alpha  occ. eigenvalues --   -0.71747  -0.70717  -0.68483  -0.67565  -0.67448
 Alpha  occ. eigenvalues --   -0.66115  -0.65982  -0.65007  -0.64862  -0.63574
 Alpha  occ. eigenvalues --   -0.63287  -0.62513  -0.61931  -0.61401  -0.61166
 Alpha  occ. eigenvalues --   -0.60639  -0.60014  -0.59424  -0.58316  -0.57316
 Alpha  occ. eigenvalues --   -0.56492  -0.56218  -0.55058  -0.54566  -0.54257
 Alpha  occ. eigenvalues --   -0.53853  -0.53142  -0.53058  -0.51610  -0.51387
 Alpha  occ. eigenvalues --   -0.51220  -0.50211  -0.50083  -0.48569  -0.47449
 Alpha  occ. eigenvalues --   -0.46102  -0.43414  -0.42982  -0.41878  -0.40810
 Alpha  occ. eigenvalues --   -0.38720  -0.37100  -0.36426  -0.35844  -0.34936
 Alpha  occ. eigenvalues --   -0.34368  -0.33242  -0.30017
 Alpha virt. eigenvalues --    0.08558   0.08863   0.09386   0.10060   0.11508
 Alpha virt. eigenvalues --    0.12958   0.13634   0.14140   0.17460   0.18424
 Alpha virt. eigenvalues --    0.19380   0.20535   0.22015   0.23081   0.23250
 Alpha virt. eigenvalues --    0.24192   0.24860   0.25639   0.26507   0.27066
 Alpha virt. eigenvalues --    0.27732   0.28139   0.29011   0.29273   0.30032
 Alpha virt. eigenvalues --    0.30605   0.31364   0.31517   0.32354   0.32487
 Alpha virt. eigenvalues --    0.33269   0.34038   0.34205   0.35233   0.36151
 Alpha virt. eigenvalues --    0.36874   0.37279   0.38552   0.39038   0.40185
 Alpha virt. eigenvalues --    0.40546   0.41166   0.41653   0.42567   0.42877
 Alpha virt. eigenvalues --    0.43516   0.44194   0.45718   0.46934   0.48078
 Alpha virt. eigenvalues --    0.48359   0.49421   0.50381   0.50862   0.51342
 Alpha virt. eigenvalues --    0.51978   0.54649   0.55485   0.56463   0.56551
 Alpha virt. eigenvalues --    0.56868   0.57979   0.59743   0.60310   0.61859
 Alpha virt. eigenvalues --    0.62236   0.62714   0.63098   0.65431   0.70400
 Alpha virt. eigenvalues --    0.70936   0.71655   0.71733   0.72582   0.73142
 Alpha virt. eigenvalues --    0.73577   0.74393   0.74817   0.75693   0.75911
 Alpha virt. eigenvalues --    0.76290   0.76800   0.77080   0.77889   0.78035
 Alpha virt. eigenvalues --    0.79034   0.79710   0.79909   0.80307   0.81606
 Alpha virt. eigenvalues --    0.81930   0.82515   0.82676   0.83056   0.83568
 Alpha virt. eigenvalues --    0.83838   0.84356   0.84586   0.84895   0.85332
 Alpha virt. eigenvalues --    0.85403   0.85674   0.86115   0.86335   0.86467
 Alpha virt. eigenvalues --    0.86874   0.87995   0.88141   0.88831   0.88918
 Alpha virt. eigenvalues --    0.89528   0.89957   0.90127   0.91172   0.91455
 Alpha virt. eigenvalues --    0.91989   0.92938   0.93647   0.94224   0.94723
 Alpha virt. eigenvalues --    0.94934   0.95506   0.96489   0.96949   0.98367
 Alpha virt. eigenvalues --    0.98552   1.00068   1.00555   1.01186   1.01503
 Alpha virt. eigenvalues --    1.02746   1.03649   1.04414   1.06250   1.08062
 Alpha virt. eigenvalues --    1.08803   1.09244   1.09332   1.09800   1.10116
 Alpha virt. eigenvalues --    1.10187   1.11284   1.11706   1.11776   1.11881
 Alpha virt. eigenvalues --    1.12374   1.12818   1.13486   1.13878   1.14521
 Alpha virt. eigenvalues --    1.15029   1.15220   1.16416   1.16876   1.17439
 Alpha virt. eigenvalues --    1.18731   1.19911   1.20291   1.21119   1.21794
 Alpha virt. eigenvalues --    1.22773   1.23340   1.23496   1.24763   1.25494
 Alpha virt. eigenvalues --    1.26792   1.27903   1.28169   1.29225   1.29817
 Alpha virt. eigenvalues --    1.30263   1.31110   1.31152   1.32540   1.34193
 Alpha virt. eigenvalues --    1.34692   1.35175   1.36080   1.37844   1.38167
 Alpha virt. eigenvalues --    1.38999   1.39706   1.41033   1.41362   1.41755
 Alpha virt. eigenvalues --    1.42622   1.43282   1.44384   1.44477   1.46619
 Alpha virt. eigenvalues --    1.47264   1.49185   1.50374   1.51950   1.52132
 Alpha virt. eigenvalues --    1.53418   1.55561   1.57396   1.58296   1.59682
 Alpha virt. eigenvalues --    1.61383   1.64510   1.66140   1.67457   1.68756
 Alpha virt. eigenvalues --    1.69595   1.70672   1.71968   1.73479   1.73861
 Alpha virt. eigenvalues --    1.77244   1.79449   1.84783   1.86729   1.97621
 Alpha virt. eigenvalues --    2.00617   2.02597   2.09690   2.12213   2.15938
 Alpha virt. eigenvalues --    2.22890   2.24421   2.32645
          Condensed to atoms (all electrons):
 Mulliken atomic charges:
              1
     1  Cl   0.168450
     2  C   -0.374836
     3  C   -0.145060
     4  C   -0.198074
     5  C   -0.220686
     6  C   -0.012233
     7  C   -0.152905
     8  C   -0.131025
     9  N   -0.980773
    10  C    0.779320
    11  O   -0.577168
    12  C   -0.147352
    13  N   -0.788243
    14  N    0.121577
    15  N   -0.311339
    16  C    0.034992
    17  C   -0.103679
    18  C   -0.232905
    19  C   -0.203087
    20  C   -0.126352
    21  C    0.378261
    22  C    0.341422
    23  C   -0.220172
    24  C   -0.201128
    25  C   -0.025390
    26  C   -0.208298
    27  C   -0.153891
    28  C   -0.087155
    29  C   -0.141837
    30  C   -0.246737
    31  C    0.049117
    32  N   -0.529782
    33  C    0.055405
    34  H    0.242578
    35  H    0.224930
    36  H    0.245178
    37  H    0.243638
    38  H    0.204604
    39  H    0.225885
    40  H    0.231025
    41  H    0.250821
    42  H    0.248855
    43  H    0.210923
    44  H    0.210295
    45  H    0.231210
    46  H    0.229183
    47  H    0.219459
    48  H    0.229580
    49  H    0.264521
    50  H    0.227379
    51  H    0.217287
    52  H    0.211963
    53  H    0.222251
 Sum of Mulliken atomic charges =   0.00000
 Mulliken charges with hydrogens summed into heavy atoms:
              1
     1  Cl   0.168450
     2  C   -0.374836
     3  C    0.097518
     4  C    0.026855
     5  C    0.024492
     6  C   -0.012233
     7  C    0.090733
     8  C    0.299463
     9  N   -0.980773
    10  C    0.779320
    11  O   -0.577168
    12  C    0.334495
    13  N   -0.788243
    14  N    0.121577
    15  N   -0.311339
    16  C    0.034992
    17  C    0.145176
    18  C   -0.021982
    19  C    0.007208
    20  C    0.104857
    21  C    0.378261
    22  C    0.341422
    23  C    0.009011
    24  C    0.018331
    25  C   -0.025390
    26  C    0.021282
    27  C    0.110630
    28  C   -0.087155
    29  C    0.085542
    30  C   -0.029451
    31  C    0.261080
    32  N   -0.529782
    33  C    0.277656
 Sum of Mulliken charges with hydrogens summed into heavy atoms =   0.00000
 Electronic spatial extent (au):  <R**2>=          20804.6214
 Charge=              0.0000 electrons
 Dipole moment (field-independent basis, Debye):
    X=             -1.5780    Y=              6.5346    Z=              3.7428  Tot=              7.6942
 Quadrupole moment (field-independent basis, Debye-Ang):
   XX=           -214.1234   YY=           -230.0621   ZZ=           -187.3031
   XY=              3.3531   XZ=             -3.5657   YZ=             -8.4043
 Traceless Quadrupole moment (field-independent basis, Debye-Ang):
   XX=             -3.6272   YY=            -19.5659   ZZ=             23.1931
   XY=              3.3531   XZ=             -3.5657   YZ=             -8.4043
 Octapole moment (field-independent basis, Debye-Ang**2):
  XXX=           -144.4443  YYY=              7.0959  ZZZ=             18.4303  XYY=             18.9660
  XXY=             95.7445  XXZ=            213.6567  XZZ=            -13.8655  YZZ=             37.6550
  YYZ=             56.7286  XYZ=             50.5089
 Hexadecapole moment (field-independent basis, Debye-Ang**3):
 XXXX=         -20169.0980 YYYY=          -9021.7832 ZZZZ=          -1790.0309 XXXY=            802.5659
 XXXZ=            688.8701 YYYX=             47.8650 YYYZ=           -144.0264 ZZZX=            -65.2649
 ZZZY=            -25.8883 XXYY=          -4855.7829 XXZZ=          -3194.1215 YYZZ=          -1672.6747
 XXYZ=           -280.5438 YYXZ=           -323.5072 ZZXY=            -51.6070
 N-N= 3.163943143434D+03 E-N=-1.055277351637D+04  KE= 1.801817271238D+03
 No NMR shielding tensors so no spin-rotation constants.
 Leave Link  601 at Sat Aug 27 02:49:18 2022, MaxMem=  209715200 cpu:       1.5
 (Enter /opt/gaussian/l701.exe)
 Compute integral first derivatives.
 ... and contract with generalized density number  0.
 Leave Link  701 at Sat Aug 27 02:49:18 2022, MaxMem=  209715200 cpu:       1.3
 (Enter /opt/gaussian/l702.exe)
 L702 exits ... SP integral derivatives will be done elsewhere.
 Leave Link  702 at Sat Aug 27 02:49:18 2022, MaxMem=  209715200 cpu:       0.2
 (Enter /opt/gaussian/l703.exe)
 Compute integral first derivatives, UseDBF=F ICtDFT=           0.
 Integral derivatives from FoFDir, PRISM(SPDF).
 Calling FoFJK, ICntrl=      2127 FMM=F ISym2X=0 I1Cent= 0 IOpClX= 0 NMat=1 NMatS=1 NMatT=0.
 FoFCou: FMM=F IPFlag=           0 FMFlag=      100000 FMFlg1=         800
         NFxFlg=           0 DoJE=F BraDBF=F KetDBF=F FulRan=T
         Omega=  0.000000  0.000000  1.000000  0.000000  0.000000 ICntrl=    2127 IOpCl=  0
         NMat0=    1 NMatS0=    1 NMatT0=    0 NMatD0=    1 NMtDS0=    0 NMtDT0=    0
         I1Cent=           0 NGrid=           0.
 Symmetry not used in FoFCou.
 Leave Link  703 at Sat Aug 27 02:49:51 2022, MaxMem=  209715200 cpu:     262.1
 (Enter /opt/gaussian/l716.exe)
 Dipole        =-6.20842598D-01 2.57091176D+00 1.47254415D+00
 ***** Axes restored to original set *****
 -------------------------------------------------------------------
 Center     Atomic                   Forces (Hartrees/Bohr)
 Number     Number              X              Y              Z
 -------------------------------------------------------------------
      1       17           0.017548116   -0.053102729   -0.013094251
      2        6          -0.020497156    0.061385588    0.013924549
      3        6           0.003704948   -0.005061026    0.004008470
      4        6           0.002621128    0.002565174    0.009755310
      5        6          -0.004129742    0.008996437    0.003299040
      6        6           0.005383270   -0.008216853    0.010378922
      7        6           0.002340441   -0.003590662    0.001615935
      8        6           0.003044591   -0.015509136   -0.044975783
      9        7           0.016198766    0.018781600    0.013772485
     10        6          -0.023149538    0.016849388    0.004632624
     11        8           0.024324230   -0.026975495   -0.010020020
     12        6           0.010183924   -0.020305310   -0.020745502
     13        7          -0.001469737    0.011073789    0.053119699
     14        7          -0.002576465   -0.010929342   -0.013300576
     15        7           0.008756139   -0.007686305    0.029024961
     16        6          -0.011808066   -0.044607007   -0.016624357
     17        6          -0.000344689    0.011203611   -0.004326684
     18        6           0.005970869    0.009668389    0.010681362
     19        6           0.001151746   -0.009229438    0.008342280
     20        6          -0.004343527   -0.010869982   -0.003864957
     21        6           0.006030237    0.041475884   -0.020899604
     22        6          -0.026218116    0.002950533    0.005320929
     23        6           0.014308521   -0.000314758   -0.002135865
     24        6          -0.003313837   -0.005435632    0.003456653
     25        6           0.018909177    0.000572192   -0.004385618
     26        6          -0.002352557    0.005747222   -0.002500795
     27        6           0.008598439    0.006758992   -0.006685237
     28        6          -0.029918565    0.001833470    0.000845339
     29        6           0.000301416   -0.002743615    0.003195148
     30        6          -0.007990049    0.001062900   -0.002014012
     31        6          -0.012340773   -0.001851351    0.004622442
     32        7           0.018211430   -0.010978224    0.016256878
     33        6           0.002167840    0.004277303   -0.006293611
     34        1          -0.010145469    0.010415620   -0.015308563
     35        1          -0.003761917   -0.008184355   -0.017855155
     36        1           0.003972027   -0.020274812   -0.005217445
     37        1           0.004376718    0.006117152    0.018657455
     38        1          -0.022160165   -0.009537846    0.017990204
     39        1           0.022487043    0.022362291    0.009268354
     40        1          -0.012075419    0.025328547   -0.019938791
     41        1           0.000537242    0.001231585    0.029974517
     42        1          -0.003704543   -0.019669526   -0.000860385
     43        1          -0.008275139   -0.007952691   -0.016673356
     44        1          -0.004708577    0.011114434   -0.016085119
     45        1           0.005296875    0.019368544    0.001400813
     46        1          -0.013702882    0.016877882   -0.004349503
     47        1           0.007420903    0.016531993   -0.010057740
     48        1           0.014109208   -0.015377728    0.004768931
     49        1          -0.007497926   -0.022258807    0.010579244
     50        1          -0.013989688    0.009337861   -0.011239521
     51        1           0.005059255    0.009355197   -0.015659613
     52        1           0.023605513    0.000650425   -0.003959584
     53        1          -0.006145466   -0.013231376    0.020179106
 -------------------------------------------------------------------
 Cartesian Forces:  Max     0.061385588 RMS     0.015644046
 Leave Link  716 at Sat Aug 27 02:49:51 2022, MaxMem=  209715200 cpu:       0.2
 (Enter /opt/gaussian/l103.exe)

 GradGradGradGradGradGradGradGradGradGradGradGradGradGradGradGradGradGrad
 Berny optimization.
 Internal  Forces:  Max     0.057439312 RMS     0.009934109
 Search for a local minimum.
 Step number   1 out of a maximum of  297
 All quantities printed in internal units (Hartrees-Bohrs-Radians)
 RMS Force = .99341D-02 SwitMx=.10000D-02 MixMth= 1
 Mixed Optimization -- RFO/linear search
 Second derivative matrix not updated -- first step.
 ITU=  0
     Eigenvalues ---    0.00230   0.00683   0.00812   0.01115   0.01187
     Eigenvalues ---    0.01342   0.01403   0.01417   0.01532   0.01582
     Eigenvalues ---    0.01665   0.01676   0.01735   0.01768   0.01771
     Eigenvalues ---    0.01773   0.01848   0.01972   0.01976   0.02050
     Eigenvalues ---    0.02054   0.02057   0.02073   0.02074   0.02091
     Eigenvalues ---    0.02093   0.02096   0.02104   0.02107   0.02110
     Eigenvalues ---    0.02117   0.02124   0.02125   0.02126   0.02129
     Eigenvalues ---    0.02138   0.02142   0.02145   0.02155   0.02158
     Eigenvalues ---    0.02161   0.02170   0.02180   0.02182   0.02183
     Eigenvalues ---    0.02319   0.04534   0.04811   0.06490   0.06495
     Eigenvalues ---    0.10294   0.10862   0.13458   0.13785   0.15994
     Eigenvalues ---    0.15999   0.15999   0.15999   0.16000   0.16000
     Eigenvalues ---    0.16000   0.16000   0.16000   0.16000   0.16000
     Eigenvalues ---    0.16000   0.16000   0.16000   0.16000   0.16000
     Eigenvalues ---    0.22000   0.22000   0.22000   0.22000   0.22092
     Eigenvalues ---    0.22154   0.22580   0.22957   0.22982   0.23196
     Eigenvalues ---    0.23444   0.23478   0.23494   0.23998   0.24434
     Eigenvalues ---    0.24599   0.24675   0.24771   0.24964   0.24986
     Eigenvalues ---    0.24992   0.24998   0.24999   0.25000   0.25000
     Eigenvalues ---    0.25000   0.28448   0.30400   0.30446   0.30636
     Eigenvalues ---    0.30639   0.31731   0.33098   0.33186   0.33398
     Eigenvalues ---    0.33490   0.33498   0.33516   0.33543   0.33546
     Eigenvalues ---    0.33563   0.33587   0.33595   0.33616   0.33674
     Eigenvalues ---    0.33752   0.33827   0.33948   0.35038   0.36004
     Eigenvalues ---    0.37413   0.38150   0.39093   0.39836   0.40492
     Eigenvalues ---    0.40849   0.41503   0.41678   0.41932   0.42039
     Eigenvalues ---    0.42185   0.42768   0.43182   0.43383   0.44014
     Eigenvalues ---    0.44485   0.44696   0.45429   0.45669   0.45759
     Eigenvalues ---    0.45962   0.46058   0.46062   0.46296   0.46620
     Eigenvalues ---    0.46788   0.46862   0.47358   0.47929   0.53790
     Eigenvalues ---    0.55126   0.77399   0.86759
 RFO step:  Lambda=-7.01234286D-02 EMin= 2.30000000D-03
 Linear search not attempted -- first point.
 Maximum step size (   0.300) exceeded in Quadratic search.
    -- Step size scaled by   0.749
 Iteration  1 RMS(Cart)=  0.13499961 RMS(Int)=  0.00252060
 Iteration  2 RMS(Cart)=  0.00739185 RMS(Int)=  0.00011190
 Iteration  3 RMS(Cart)=  0.00001729 RMS(Int)=  0.00011172
 Iteration  4 RMS(Cart)=  0.00000001 RMS(Int)=  0.00011172
 Variable       Old X    -DE/DX   Delta X   Delta X   Delta X     New X
                                 (Linear)    (Quad)   (Total)
    R1        3.21076   0.05744   0.00000   0.10000   0.10000   3.31076
    R2        2.64492  -0.01498   0.00000  -0.02163  -0.02164   2.62328
    R3        2.63835  -0.01462   0.00000  -0.02092  -0.02092   2.61743
    R4        2.63123  -0.01012   0.00000  -0.01401  -0.01401   2.61721
    R5        2.07984  -0.02106   0.00000  -0.03882  -0.03882   2.04102
    R6        2.63762  -0.00756   0.00000  -0.01023  -0.01024   2.62738
    R7        2.08032  -0.01999   0.00000  -0.03687  -0.03687   2.04345
    R8        2.63957  -0.01016   0.00000  -0.01397  -0.01397   2.62560
    R9        2.08186  -0.02114   0.00000  -0.03908  -0.03908   2.04278
   R10        2.64882  -0.00787   0.00000  -0.01129  -0.01129   2.63753
   R11        2.84638   0.01248   0.00000   0.02412   0.02412   2.87050
   R12        2.08104  -0.02005   0.00000  -0.03701  -0.03701   2.04402
   R13        2.72805   0.01401   0.00000   0.02276   0.02276   2.75081
   R14        2.13784  -0.02965   0.00000  -0.05928  -0.05928   2.07855
   R15        2.13872  -0.03271   0.00000  -0.06547  -0.06547   2.07325
   R16        2.64780  -0.01534   0.00000  -0.02191  -0.02191   2.62589
   R17        2.68688   0.01011   0.00000   0.01539   0.01539   2.70227
   R18        2.34463  -0.03662   0.00000  -0.02924  -0.02924   2.31539
   R19        2.91170  -0.01083   0.00000  -0.02287  -0.02287   2.88882
   R20        2.71777  -0.00818   0.00000  -0.01308  -0.01308   2.70469
   R21        2.13407  -0.03389   0.00000  -0.06740  -0.06740   2.06667
   R22        2.13412  -0.02987   0.00000  -0.05942  -0.05942   2.07470
   R23        2.60039  -0.01029   0.00000  -0.01243  -0.01248   2.58791
   R24        2.68152  -0.03170   0.00000  -0.04913  -0.04915   2.63238
   R25        2.36967  -0.00382   0.00000  -0.00210  -0.00214   2.36753
[...]
 ! D132  D(51,30,31,32)        179.6579         -DE/DX =    0.0                 !
 ! D133  D(51,30,31,52)         -0.3053         -DE/DX =    0.0                 !
 ! D134  D(30,31,32,33)         -0.0798         -DE/DX =    0.0                 !
 ! D135  D(52,31,32,33)        179.885          -DE/DX =    0.0                 !
 ! D136  D(31,32,33,28)         -0.1325         -DE/DX =    0.0                 !
 ! D137  D(31,32,33,53)        178.9098         -DE/DX =    0.0                 !
 --------------------------------------------------------------------------------
 GradGradGradGradGradGradGradGradGradGradGradGradGradGradGradGradGradGrad

 Largest change from initial coordinates is atom   44       0.954 Angstoms.
 Leave Link  103 at Sat Aug 27 03:21:55 2022, MaxMem=  209715200 cpu:       0.8
 (Enter /opt/gaussian/l202.exe)
 Stoichiometry    C26H20ClN5O
 Framework group  C1[X(C26H20ClN5O)]
 Deg. of freedom   153
 Full point group                 C1      NOp   1
 RotChk:  IX=0 Diff= 4.12D-16
 Largest Abelian subgroup         C1      NOp   1
 Largest concise Abelian subgroup C1      NOp   1
                         Standard orientation:                         
 ---------------------------------------------------------------------
 Center     Atomic      Atomic             Coordinates (Angstroms)
 Number     Number       Type             X           Y           Z
 ---------------------------------------------------------------------
      1         17           0       -3.169149    5.854082   -0.521280
      2          6           0       -2.350342    4.372709    0.113114
      3          6           0       -2.382212    4.116641    1.469857
      4          6           0       -1.752319    2.975247    1.938220
      5          6           0       -1.103965    2.113867    1.061598
      6          6           0       -1.078376    2.384523   -0.301127
      7          6           0       -1.716643    3.530061   -0.773337
      8          6           0       -0.364901    1.493866   -1.308933
      9          7           0        0.049817    0.181426   -0.809462
     10          6           0       -0.843281   -0.844857   -0.620694
     11          8           0       -0.530287   -1.904024   -0.100882
     12          6           0       -2.273250   -0.611748   -1.094182
     13          7           0       -3.086908   -1.777690   -0.943582
     14          7           0       -3.333376   -2.568604   -2.027257
     15          7           0       -4.034710   -3.563394   -1.674077
     16          6           0       -4.280103   -3.479118   -0.312629
     17          6           0       -4.999675   -4.321482    0.533806
     18          6           0       -5.072797   -3.968410    1.858888
     19          6           0       -4.438442   -2.799959    2.336900
     20          6           0       -3.725109   -1.965896    1.509563
     21          6           0       -3.659960   -2.330495    0.162415
     22          6           0        1.445940   -0.021964   -0.536732
     23          6           0        2.161753    0.923857    0.184222
     24          6           0        3.521870    0.761700    0.398708
     25          6           0        4.197184   -0.353091   -0.087810
     26          6           0        3.464817   -1.299222   -0.805069
     27          6           0        2.110912   -1.136333   -1.035219
     28          6           0        5.651801   -0.529940    0.148016
     29          6           0        6.227985   -0.295168    1.394801
     30          6           0        7.591461   -0.473002    1.566388
     31          6           0        8.350667   -0.886486    0.484260
     32          7           0        7.809930   -1.112356   -0.711335
     33          6           0        6.502342   -0.939092   -0.877468
     34          1           0       -2.884331    4.786376    2.136837
     35          1           0       -1.764619    2.756926    2.988092
     36          1           0       -0.618261    1.237511    1.442827
     37          1           0       -1.719112    3.761919   -1.820522
     38          1           0       -0.992536    1.375699   -2.183431
     39          1           0        0.529266    1.993232   -1.652757
     40          1           0       -2.717856    0.215436   -0.558057
     41          1           0       -2.277702   -0.368955   -2.146430
     42          1           0       -5.469912   -5.204702    0.151240
     43          1           0       -5.613647   -4.584904    2.549243
     44          1           0       -4.513689   -2.563265    3.380556
     45          1           0       -3.234394   -1.091097    1.886039
     46          1           0        1.670316    1.791662    0.576693
     47          1           0        4.058727    1.518774    0.936935
     48          1           0        3.952352   -2.179518   -1.175912
     49          1           0        1.570087   -1.885268   -1.573802
     50          1           0        5.614067    0.003180    2.222431
     51          1           0        8.052787   -0.304011    2.518678
     52          1           0        9.406336   -1.041593    0.568347
     53          1           0        6.124529   -1.117531   -1.863532
 ---------------------------------------------------------------------
 Rotational constants (GHZ):      0.1269439      0.0639285      0.0470437
 Leave Link  202 at Sat Aug 27 03:21:55 2022, MaxMem=  209715200 cpu:       0.0
 (Enter /opt/gaussian/l601.exe)
 Copying SCF densities to generalized density rwf, IOpCl= 0 IROHF=0.

 **********************************************************************

            Population analysis using the SCF density.

 **********************************************************************

 Orbital symmetries:
       Occupied  (A) (A) (A) (A) (A) (A) (A) (A) (A) (A) (A) (A)
                 (A) (A) (A) (A) (A) (A) (A) (A) (A) (A) (A) (A)
                 (A) (A) (A) (A) (A) (A) (A) (A) (A) (A) (A) (A)
                 (A) (A) (A) (A) (A) (A) (A) (A) (A) (A) (A) (A)
                 (A) (A) (A) (A) (A) (A) (A) (A) (A) (A) (A) (A)
                 (A) (A) (A) (A) (A) (A) (A) (A) (A) (A) (A) (A)
                 (A) (A) (A) (A) (A) (A) (A) (A) (A) (A) (A) (A)
                 (A) (A) (A) (A) (A) (A) (A) (A) (A) (A) (A) (A)
                 (A) (A) (A) (A) (A) (A) (A) (A) (A) (A) (A) (A)
                 (A) (A) (A) (A) (A) (A) (A) (A) (A) (A)
       Virtual   (A) (A) (A) (A) (A) (A) (A) (A) (A) (A) (A) (A)
                 (A) (A) (A) (A) (A) (A) (A) (A) (A) (A) (A) (A)
                 (A) (A) (A) (A) (A) (A) (A) (A) (A) (A) (A) (A)
                 (A) (A) (A) (A) (A) (A) (A) (A) (A) (A) (A) (A)
                 (A) (A) (A) (A) (A) (A) (A) (A) (A) (A) (A) (A)
                 (A) (A) (A) (A) (A) (A) (A) (A) (A) (A) (A) (A)
                 (A) (A) (A) (A) (A) (A) (A) (A) (A) (A) (A) (A)
                 (A) (A) (A) (A) (A) (A) (A) (A) (A) (A) (A) (A)
                 (A) (A) (A) (A) (A) (A) (A) (A) (A) (A) (A) (A)
                 (A) (A) (A) (A) (A) (A) (A) (A) (A) (A) (A) (A)
                 (A) (A) (A) (A) (A) (A) (A) (A) (A) (A) (A) (A)
                 (A) (A) (A) (A) (A) (A) (A) (A) (A) (A) (A) (A)
                 (A) (A) (A) (A) (A) (A) (A) (A) (A) (A) (A) (A)
                 (A) (A) (A) (A) (A) (A) (A) (A) (A) (A) (A) (A)
                 (A) (A) (A) (A) (A) (A) (A) (A) (A) (A) (A) (A)
                 (A) (A) (A) (A) (A) (A) (A) (A) (A) (A) (A) (A)
                 (A) (A) (A) (A) (A) (A) (A) (A) (A) (A) (A) (A)
                 (A) (A) (A) (A) (A) (A) (A) (A) (A) (A) (A) (A)
                 (A) (A) (A) (A) (A) (A) (A)
 The electronic state is 1-A.
 Alpha  occ. eigenvalues -- -104.83482 -20.55650 -15.66691 -15.65805 -15.62907
 Alpha  occ. eigenvalues --  -15.61512 -15.57823 -11.39483 -11.33963 -11.31691
 Alpha  occ. eigenvalues --  -11.31560 -11.30391 -11.29811 -11.29161 -11.28164
 Alpha  occ. eigenvalues --  -11.28088 -11.27963 -11.27787 -11.27640 -11.27228
 Alpha  occ. eigenvalues --  -11.26836 -11.26665 -11.26601 -11.26526 -11.25752
 Alpha  occ. eigenvalues --  -11.25747 -11.25607 -11.25567 -11.25552 -11.25324
 Alpha  occ. eigenvalues --  -11.25267 -11.25113 -11.24387 -10.57405  -8.04254
 Alpha  occ. eigenvalues --   -8.03865  -8.03848  -1.47817  -1.42935  -1.29423
 Alpha  occ. eigenvalues --   -1.28261  -1.25307  -1.22035  -1.18325  -1.18059
 Alpha  occ. eigenvalues --   -1.13977  -1.11368  -1.08630  -1.07397  -1.06566
 Alpha  occ. eigenvalues --   -1.05454  -1.04265  -1.03123  -1.02848  -1.00965
 Alpha  occ. eigenvalues --   -0.98171  -0.89803  -0.89127  -0.87951  -0.87022
 Alpha  occ. eigenvalues --   -0.85710  -0.85415  -0.84678  -0.83411  -0.81646
 Alpha  occ. eigenvalues --   -0.78077  -0.74382  -0.74048  -0.73438  -0.72747
 Alpha  occ. eigenvalues --   -0.72409  -0.71395  -0.69053  -0.68354  -0.67870
 Alpha  occ. eigenvalues --   -0.66503  -0.65887  -0.65720  -0.64680  -0.64162
 Alpha  occ. eigenvalues --   -0.63982  -0.63078  -0.62744  -0.62235  -0.61561
 Alpha  occ. eigenvalues --   -0.61180  -0.60893  -0.60251  -0.59047  -0.57985
 Alpha  occ. eigenvalues --   -0.56480  -0.56010  -0.55739  -0.55124  -0.54024
 Alpha  occ. eigenvalues --   -0.53740  -0.53309  -0.52528  -0.51854  -0.51681
 Alpha  occ. eigenvalues --   -0.50925  -0.50885  -0.49783  -0.48094  -0.46941
 Alpha  occ. eigenvalues --   -0.45221  -0.43489  -0.42948  -0.42584  -0.40637
 Alpha  occ. eigenvalues --   -0.39015  -0.37389  -0.36928  -0.36397  -0.35508
 Alpha  occ. eigenvalues --   -0.34021  -0.32411  -0.31554
 Alpha virt. eigenvalues --    0.09228   0.09536   0.09939   0.10489   0.11810
 Alpha virt. eigenvalues --    0.12394   0.14776   0.15657   0.16498   0.17788
 Alpha virt. eigenvalues --    0.19903   0.20754   0.22941   0.23976   0.24442
 Alpha virt. eigenvalues --    0.24656   0.24952   0.25813   0.27222   0.27671
 Alpha virt. eigenvalues --    0.28588   0.29163   0.29500   0.30301   0.30661
 Alpha virt. eigenvalues --    0.31196   0.31553   0.32041   0.32585   0.32961
 Alpha virt. eigenvalues --    0.33240   0.33781   0.34546   0.36053   0.36427
 Alpha virt. eigenvalues --    0.37014   0.37615   0.39795   0.39864   0.40696
 Alpha virt. eigenvalues --    0.41134   0.41890   0.42542   0.42997   0.44098
 Alpha virt. eigenvalues --    0.44435   0.44892   0.46418   0.46943   0.48446
 Alpha virt. eigenvalues --    0.48689   0.49560   0.50848   0.51547   0.52026
 Alpha virt. eigenvalues --    0.52514   0.54021   0.54894   0.56576   0.57253
 Alpha virt. eigenvalues --    0.58426   0.58955   0.59835   0.60479   0.61746
 Alpha virt. eigenvalues --    0.62290   0.62722   0.64033   0.65442   0.70316
 Alpha virt. eigenvalues --    0.70783   0.71666   0.72052   0.72985   0.73439
 Alpha virt. eigenvalues --    0.74300   0.74387   0.75378   0.75514   0.75612
 Alpha virt. eigenvalues --    0.76249   0.77141   0.77447   0.78117   0.78454
 Alpha virt. eigenvalues --    0.79650   0.79859   0.80218   0.81484   0.82065
 Alpha virt. eigenvalues --    0.82334   0.82718   0.82925   0.83005   0.83691
 Alpha virt. eigenvalues --    0.84337   0.84728   0.84970   0.85042   0.85323
 Alpha virt. eigenvalues --    0.85510   0.85914   0.85994   0.86146   0.86547
 Alpha virt. eigenvalues --    0.87335   0.87474   0.88061   0.88382   0.89216
 Alpha virt. eigenvalues --    0.89657   0.90634   0.90767   0.90972   0.91590
 Alpha virt. eigenvalues --    0.92785   0.93575   0.93892   0.94810   0.95529
 Alpha virt. eigenvalues --    0.95573   0.96244   0.96680   0.97210   0.98693
 Alpha virt. eigenvalues --    0.99045   1.00139   1.00285   1.01011   1.01962
 Alpha virt. eigenvalues --    1.02641   1.03169   1.05491   1.07785   1.08841
 Alpha virt. eigenvalues --    1.10013   1.10406   1.11164   1.11485   1.11700
 Alpha virt. eigenvalues --    1.11924   1.12106   1.12534   1.13065   1.13615
 Alpha virt. eigenvalues --    1.13837   1.14635   1.14969   1.15082   1.15680
 Alpha virt. eigenvalues --    1.15905   1.16500   1.17031   1.17672   1.18280
 Alpha virt. eigenvalues --    1.18850   1.19499   1.20821   1.21338   1.21461
 Alpha virt. eigenvalues --    1.22802   1.23057   1.24388   1.25284   1.26308
 Alpha virt. eigenvalues --    1.26767   1.27328   1.27867   1.29225   1.29845
 Alpha virt. eigenvalues --    1.30208   1.30622   1.30880   1.31676   1.33616
 Alpha virt. eigenvalues --    1.34215   1.35275   1.35747   1.36966   1.38051
 Alpha virt. eigenvalues --    1.38339   1.39438   1.40145   1.41248   1.42259
 Alpha virt. eigenvalues --    1.43038   1.43753   1.44175   1.44993   1.47422
 Alpha virt. eigenvalues --    1.48330   1.48683   1.49433   1.50487   1.52479
 Alpha virt. eigenvalues --    1.53239   1.54735   1.56940   1.59978   1.60806
 Alpha virt. eigenvalues --    1.62219   1.63421   1.66919   1.67724   1.69510
 Alpha virt. eigenvalues --    1.71042   1.71964   1.74348   1.74627   1.75019
 Alpha virt. eigenvalues --    1.78950   1.80925   1.87482   1.89656   1.96150
 Alpha virt. eigenvalues --    2.03796   2.07229   2.10660   2.13153   2.16166
 Alpha virt. eigenvalues --    2.24866   2.25200   2.34335
          Condensed to atoms (all electrons):
 Mulliken atomic charges:
              1
     1  Cl   0.107857
     2  C   -0.315933
     3  C   -0.150579
     4  C   -0.192978
     5  C   -0.211187
     6  C   -0.031251
     7  C   -0.163470
     8  C   -0.081692
     9  N   -0.990685
    10  C    0.785759
    11  O   -0.567760
    12  C   -0.130493
    13  N   -0.884143
    14  N    0.095984
    15  N   -0.333357
    16  C   -0.020191
    17  C   -0.077766
    18  C   -0.233623
    19  C   -0.204521
    20  C   -0.065716
    21  C    0.488830
    22  C    0.327359
    23  C   -0.214010
    24  C   -0.202297
    25  C   -0.017225
    26  C   -0.207595
    27  C   -0.144421
    28  C   -0.089216
    29  C   -0.139459
    30  C   -0.245158
    31  C    0.058937
    32  N   -0.532304
    33  C    0.060486
    34  H    0.244042
    35  H    0.222392
    36  H    0.242235
    37  H    0.241971
    38  H    0.197245
    39  H    0.230480
    40  H    0.237474
    41  H    0.251089
    42  H    0.241733
    43  H    0.204918
    44  H    0.204444
    45  H    0.220536
    46  H    0.223220
    47  H    0.217515
    48  H    0.226395
    49  H    0.245434
    50  H    0.223880
    51  H    0.215201
    52  H    0.212039
    53  H    0.219575
 Sum of Mulliken atomic charges =   0.00000
 Mulliken charges with hydrogens summed into heavy atoms:
              1
     1  Cl   0.107857
     2  C   -0.315933
     3  C    0.093462
     4  C    0.029414
     5  C    0.031048
     6  C   -0.031251
     7  C    0.078502
     8  C    0.346033
     9  N   -0.990685
    10  C    0.785759
    11  O   -0.567760
    12  C    0.358071
    13  N   -0.884143
    14  N    0.095984
    15  N   -0.333357
    16  C   -0.020191
    17  C    0.163967
    18  C   -0.028705
    19  C   -0.000077
    20  C    0.154820
    21  C    0.488830
    22  C    0.327359
    23  C    0.009210
    24  C    0.015219
    25  C   -0.017225
    26  C    0.018800
    27  C    0.101013
    28  C   -0.089216
    29  C    0.084421
    30  C   -0.029956
    31  C    0.270976
    32  N   -0.532304
    33  C    0.280061
 Sum of Mulliken charges with hydrogens summed into heavy atoms =   0.00000
 Electronic spatial extent (au):  <R**2>=          21617.9535
 Charge=              0.0000 electrons
 Dipole moment (field-independent basis, Debye):
    X=              0.2566    Y=              4.8154    Z=              4.9625  Tot=              6.9196
 Quadrupole moment (field-independent basis, Debye-Ang):
   XX=           -215.6522   YY=           -223.7513   ZZ=           -190.4234
   XY=              5.5547   XZ=             -0.9276   YZ=             -7.7518
 Traceless Quadrupole moment (field-independent basis, Debye-Ang):
   XX=             -5.7099   YY=            -13.8090   ZZ=             19.5189
   XY=              5.5547   XZ=             -0.9276   YZ=             -7.7518
 Octapole moment (field-independent basis, Debye-Ang**2):
  XXX=            -81.9382  YYY=            -58.7834  ZZZ=             44.8300  XYY=             18.5955
  XXY=             15.0833  XXZ=            235.0518  XZZ=              1.2363  YZZ=             48.3584
  YYZ=             63.2014  XYZ=             43.7084
 Hexadecapole moment (field-independent basis, Debye-Ang**3):
 XXXX=         -20581.1203 YYYY=          -9408.1460 ZZZZ=          -1686.3714 XXXY=            506.3296
 XXXZ=           1068.8250 YYYX=            336.5764 YYYZ=            -62.6840 ZZZX=            -98.2909
 ZZZY=            -89.6658 XXYY=          -4899.4046 XXZZ=          -3507.3925 YYZZ=          -1750.7798
 XXYZ=           -317.9324 YYXZ=           -324.2044 ZZXY=           -118.7495
 N-N= 3.146390892145D+03 E-N=-1.051949412508D+04  KE= 1.803662404489D+03
 No NMR shielding tensors so no spin-rotation constants.
 Leave Link  601 at Sat Aug 27 03:21:55 2022, MaxMem=  209715200 cpu:       1.5
 (Enter /opt/gaussian/l9999.exe)
 1\1\GINC-LQCAPF-6\FOpt\RHF\6-31G\C26H20Cl1N5O1\LQCAPF-6\27-Aug-2022\0\
 \#p opt hf/6-31G\\Mol28.out\\0,1\Cl,24.9053484942,-14.5058116519,-2.70
 98602465\C,23.8990144823,-13.2379276599,-1.9054180303\C,23.9183330686,
 -13.1390518393,-0.5280336001\C,23.1435876463,-12.1596397919,0.07149131
 33\C,22.3663418417,-11.3021264594,-0.6975119102\C,22.3551734044,-11.41
 3768481,-2.0825539584\C,23.1387215663,-12.395632359,-2.6863913497\C,21
 .507099205,-10.5214044939,-2.9783469279\N,20.922071222,-9.3471750293,-
 2.3280491796\C,21.6664136717,-8.2344445389,-2.0209673526\O,21.21778094
 62,-7.297307115,-1.3802582426\C,23.1065064476,-8.20773138,-2.519725514
 4\N,23.7520559902,-6.9644186907,-2.2341024056\N,23.8669944372,-6.02639
 86912,-3.217744094\N,24.4287148858,-4.9906590757,-2.7509182119\C,24.70
 6993497,-5.1969621989,-1.4089566365\C,25.3165715848,-4.3657517498,-0.4
 701723359\C,25.4611541098,-4.8563442904,0.8042940386\C,25.0043581194,-
 6.1498415552,1.1424994617\C,24.4001306013,-6.9742282304,0.2236491073\C
 ,24.2614522462,-6.4686213596,-1.0713849934\C,19.5161581295,-9.37506362
 08,-2.0321768471\C,18.9518643142,-10.4892907217,-1.4265263429\C,17.586
 3434004,-10.5459047372,-1.1933629664\C,16.753809768,-9.4882660627,-1.5
 452100977\C,17.3345146257,-8.3718367465,-2.1471684711\C,18.6937162301,
 -8.3149986347,-2.395969616\C,15.2930479265,-9.5461930435,-1.2890513665
 \C,14.776913738,-10.0026488163,-0.0779227213\C,13.4051375554,-10.03934
 44667,0.1144800474\C,12.5770609872,-9.6139687918,-0.9110479698\N,13.06
 02280941,-9.1771856484,-2.0723545628\C,14.3761268653,-9.1444848629,-2.
 2587582724\H,24.520434435,-13.8043651143,0.0553740419\H,23.1434847116,
 -12.0650330102,1.1397117636\H,21.7698160379,-10.5529388213,-0.21572520
 9\H,23.1553823038,-12.5017856712,-3.7535444816\H,22.096882815,-10.2155
 544662,-3.8334766378\H,20.6855149993,-11.0982061398,-3.3776152049\H,23
 .6713622236,-9.0207603916,-2.0846887196\H,23.1265683757,-8.3237699993,
 -3.5931908901\H,25.6523171415,-3.3868489835,-0.7469048615\H,25.9225891
 351,-4.2542363638,1.5617350211\H,25.1299396365,-6.4930605631,2.1511293
 363\H,24.0428294745,-7.9470236277,0.4953398288\H,19.5662658435,-11.319
 0141729,-1.13895501\H,17.1697369548,-11.428194674,-0.7471916842\H,16.7
 226077191,-7.5317910329,-2.4117995652\H,19.1153795523,-7.4401117592,-2
 .8434516706\H,15.4406785847,-10.3057160499,0.7084895852\H,12.988448235
 4,-10.3808155772,1.0407641555\H,11.5116920935,-9.6195958504,-0.8084647
 569\H,14.7082306247,-8.8015449371,-3.2174047856\\Version=EM64L-G09RevC
 .01\State=1-A\HF=-1802.2020495\RMSD=8.893e-09\RMSF=3.611e-06\Dipole=0.
 198115,-2.1034546,1.7168326\Quadrupole=-5.5015834,-10.0099721,15.51155
 55,4.841392,0.7923554,2.8550644\PG=C01 [X(C26H20Cl1N5O1)]\\@


 THERE IS MORE TO LIFE THAN INCREASING ITS SPEED.

                                       -- GANDHI
 Job cpu time:  0 days  4 hours 31 minutes 24.0 seconds.
 File lengths (MBytes):  RWF=     79 Int=      0 D2E=      0 Chk=     11 Scr=      1
 Normal termination of Gaussian 09 at Sat Aug 27 03:21:55 2022.
