 Entering Gaussian System, Link 0=g09
 Input=Mol23.gjf
 Output=Mol23.log
 Initial command:
 /opt/gaussian/l1.exe /home/scr/lqcapf-6/Gau-268105.inp -scrdir=/home/scr/lqcapf-6/
 Entering Link 1 = /opt/gaussian/l1.exe PID=    268107.
  
 Copyright (c) 1988,1990,1992,1993,1995,1998,2003,2009,2011,
            Gaussian, Inc.  All Rights Reserved.
  
 This is part of the Gaussian(R) 09 program.  It is based on
 the Gaussian(R) 03 system (copyright 2003, Gaussian, Inc.),
 the Gaussian(R) 98 system (copyright 1998, Gaussian, Inc.),
 the Gaussian(R) 94 system (copyright 1995, Gaussian, Inc.),
 the Gaussian 92(TM) system (copyright 1992, Gaussian, Inc.),
 the Gaussian 90(TM) system (copyright 1990, Gaussian, Inc.),
 the Gaussian 88(TM) system (copyright 1988, Gaussian, Inc.),
 the Gaussian 86(TM) system (copyright 1986, Carnegie Mellon
 University), and the Gaussian 82(TM) system (copyright 1983,
 Carnegie Mellon University). Gaussian is a federally registered
 trademark of Gaussian, Inc.
  
 This software contains proprietary and confidential information,
 including trade secrets, belonging to Gaussian, Inc.
  
 This software is provided under written license and may be
 used, copied, transmitted, or stored only in accord with that
 written license.
  
 The following legend is applicable only to US Government
 contracts under FAR:
  
                    RESTRICTED RIGHTS LEGEND
  
 Use, reproduction and disclosure by the US Government is
 subject to restrictions as set forth in subparagraphs (a)
 and (c) of the Commercial Computer Software - Restricted
 Rights clause in FAR 52.227-19.
  
 Gaussian, Inc.
 340 Quinnipiac St., Bldg. 40, Wallingford CT 06492
  
  
 ---------------------------------------------------------------
 Warning -- This program may not be used in any manner that
 competes with the business of Gaussian, Inc. or will provide
 assistance to any competitor of Gaussian, Inc.  The licensee
 of this program is prohibited from giving any competitor of
 Gaussian, Inc. access to this program.  By using this program,
 the user acknowledges that Gaussian, Inc. is engaged in the
 business of creating and licensing software in the field of
 computational chemistry and represents and warrants to the
 licensee that it is not a competitor of Gaussian, Inc. and that
 it will not use this program in any manner prohibited above.
 ---------------------------------------------------------------
  

 Cite this work as:
 Gaussian 09, Revision C.01,
 M. J. Frisch, G. W. Trucks, H. B. Schlegel, G. E. Scuseria, 
 M. A. Robb, J. R. Cheeseman, G. Scalmani, V. Barone, B. Mennucci, 
 G. A. Petersson, H. Nakatsuji, M. Caricato, X. Li, H. P. Hratchian, 
 A. F. Izmaylov, J. Bloino, G. Zheng, J. L. Sonnenberg, M. Hada, 
 M. Ehara, K. Toyota, R. Fukuda, J. Hasegawa, M. Ishida, T. Nakajima, 
 Y. Honda, O. Kitao, H. Nakai, T. Vreven, J. A. Montgomery, Jr., 
 J. E. Peralta, F. Ogliaro, M. Bearpark, J. J. Heyd, E. Brothers, 
 K. N. Kudin, V. N. Staroverov, T. Keith, R. Kobayashi, J. Normand, 
 K. Raghavachari, A. Rendell, J. C. Burant, S. S. Iyengar, J. Tomasi, 
 M. Cossi, N. Rega, J. M. Millam, M. Klene, J. E. Knox, J. B. Cross, 
 V. Bakken, C. Adamo, J. Jaramillo, R. Gomperts, R. E. Stratmann, 
 O. Yazyev, A. J. Austin, R. Cammi, C. Pomelli, J. W. Ochterski, 
 R. L. Martin, K. Morokuma, V. G. Zakrzewski, G. A. Voth, 
 P. Salvador, J. J. Dannenberg, S. Dapprich, A. D. Daniels, 
 O. Farkas, J. B. Foresman, J. V. Ortiz, J. Cioslowski, 
 and D. J. Fox, Gaussian, Inc., Wallingford CT, 2010.
 
 ******************************************
 Gaussian 09:  EM64L-G09RevC.01 23-Sep-2011
                26-Aug-2022 
 ******************************************
 %nprocshared=8
 Will use up to    8 processors via shared memory.
 %mem=1600MB
 ---------------
 #p opt hf/6-31G
 ---------------
 1/18=20,19=15,38=1/1,3;
 2/9=110,12=2,17=6,18=5,40=1/2;
 3/5=1,6=6,11=9,16=1,25=1,30=1,71=1/1,2,3;
 4//1;
 5/5=2,38=5/2;
 6/7=2,8=2,9=2,10=2,28=1/1;
 7//1,2,3,16;
 1/18=20,19=15/3(2);
 2/9=110/2;
 99//99;
 2/9=110/2;
 3/5=1,6=6,11=9,16=1,25=1,30=1,71=1/1,2,3;
 4/5=5,16=3/1;
 5/5=2,38=5/2;
 7//1,2,3,16;
 1/18=20,19=15/3(-5);
 2/9=110/2;
 6/7=2,8=2,9=2,10=2,19=2,28=1/1;
 99/9=1/99;
 Leave Link    1 at Fri Aug 26 23:19:01 2022, MaxMem=  209715200 cpu:       0.1
 (Enter /opt/gaussian/l101.exe)
 ---------
 Mol23.out
 ---------
 Charge =  0 Multiplicity = 1
 Symbolic Z-Matrix:
 O                     21.1457  -6.8816    0.0504 
 C                     21.7584  -7.9078    0.3846 
 C                     23.2539  -7.8707    0.7534 
 N                     23.9043  -6.6042    0.5486 
 N                     23.7352  -5.5186    1.3759 
 N                     24.1402  -4.4532    0.8522 
 C                     24.5841  -4.718    -0.4848 
 C                     25.1252  -3.9177   -1.49 
 C                     25.4599  -4.5357   -2.6907 
 C                     25.2728  -5.9128   -2.8928 
 C                     24.7445  -6.7401   -1.9066 
 C                     24.3952  -6.1385   -0.6975 
 N                     21.1151  -9.1468    0.4877 
 C                     21.8641  -10.3504   0.774 
 C                     22.6469  -10.935   -0.3815 
 C                     23.7588  -11.9008  -0.0649 
 C                     22.495   -12.4008  -0.696 
 C                     19.7582  -9.2975    0.0934 
 C                     19.3458  -10.4268  -0.648 
 C                     18.0126  -10.5865  -1.0063 
 C                     17.0518  -9.6337   -0.6441 
 C                     17.4585  -8.5125    0.0913 
 C                     18.788   -8.3393    0.4585 
 C                     15.6559  -9.8      -1.026 
 C                     15.2899  -10.2358  -2.3079 
 C                     13.9371  -10.3707  -2.6191 
 C                     12.9845  -10.0654  -1.6305 
 N                     13.3112  -9.6451   -0.3923 
 C                     14.6185  -9.5171   -0.1058 
 H                     23.3476  -8.1378    1.8471 
 H                     23.8054  -8.6327    0.1304 
 H                     25.2798  -2.8404   -1.3346 
 H                     25.8833  -3.9306   -3.5069 
 H                     25.5521  -6.3505   -3.864 
 H                     24.6062  -7.8158   -2.0752 
 H                     22.5817  -10.1298   1.6183 
 H                     21.1374  -11.1266   1.1567 
 H                     22.7903  -10.2421  -1.2344 
 H                     24.6838  -11.8609  -0.6672 
 H                     23.9663  -12.1504   0.9912 
 H                     21.7972  -13.0082  -0.0915 
 H                     22.5104  -12.723   -1.7523 
 H                     20.0795  -11.1917  -0.9518 
 H                     17.7086  -11.4755  -1.5803 
 H                     16.7168  -7.7497    0.3761 
 H                     19.082   -7.435     1.0164 
 H                     16.0627  -10.4583  -3.0585 
 H                     13.6165  -10.7054  -3.614 
 H                     11.9034  -10.1608  -1.8353 
 H                     14.8584  -9.1748    0.9175 
 
 NAtoms=     50 NQM=        0 NQMF=       0 NMMI=     50 NMMIF=      0
                NMic=       0 NMicF=      0.
                    Isotopes and Nuclear Properties:
 (Nuclear quadrupole moments (NQMom) in fm**2, nuclear magnetic moments (NMagM)
  in nuclear magnetons)

  Atom         1           2           3           4           5           6           7           8           9          10
 IAtWgt=          16          12          12          14          14          14          12          12          12          12
 AtmWgt=  15.9949146  12.0000000  12.0000000  14.0030740  14.0030740  14.0030740  12.0000000  12.0000000  12.0000000  12.0000000
 NucSpn=           0           0           0           2           2           2           0           0           0           0
 AtZEff=   0.0000000   0.0000000   0.0000000   0.0000000   0.0000000   0.0000000   0.0000000   0.0000000   0.0000000   0.0000000
 NQMom=    0.0000000   0.0000000   0.0000000   2.0440000   2.0440000   2.0440000   0.0000000   0.0000000   0.0000000   0.0000000
 NMagM=    0.0000000   0.0000000   0.0000000   0.4037610   0.4037610   0.4037610   0.0000000   0.0000000   0.0000000   0.0000000

  Atom        11          12          13          14          15          16          17          18          19          20
 IAtWgt=          12          12          14          12          12          12          12          12          12          12
 AtmWgt=  12.0000000  12.0000000  14.0030740  12.0000000  12.0000000  12.0000000  12.0000000  12.0000000  12.0000000  12.0000000
 NucSpn=           0           0           2           0           0           0           0           0           0           0
 AtZEff=   0.0000000   0.0000000   0.0000000   0.0000000   0.0000000   0.0000000   0.0000000   0.0000000   0.0000000   0.0000000
 NQMom=    0.0000000   0.0000000   2.0440000   0.0000000   0.0000000   0.0000000   0.0000000   0.0000000   0.0000000   0.0000000
 NMagM=    0.0000000   0.0000000   0.4037610   0.0000000   0.0000000   0.0000000   0.0000000   0.0000000   0.0000000   0.0000000

  Atom        21          22          23          24          25          26          27          28          29          30
 IAtWgt=          12          12          12          12          12          12          12          14          12           1
 AtmWgt=  12.0000000  12.0000000  12.0000000  12.0000000  12.0000000  12.0000000  12.0000000  14.0030740  12.0000000   1.0078250
 NucSpn=           0           0           0           0           0           0           0           2           0           1
 AtZEff=   0.0000000   0.0000000   0.0000000   0.0000000   0.0000000   0.0000000   0.0000000   0.0000000   0.0000000   0.0000000
 NQMom=    0.0000000   0.0000000   0.0000000   0.0000000   0.0000000   0.0000000   0.0000000   2.0440000   0.0000000   0.0000000
 NMagM=    0.0000000   0.0000000   0.0000000   0.0000000   0.0000000   0.0000000   0.0000000   0.4037610   0.0000000   2.7928460

  Atom        31          32          33          34          35          36          37          38          39          40
 IAtWgt=           1           1           1           1           1           1           1           1           1           1
 AtmWgt=   1.0078250   1.0078250   1.0078250   1.0078250   1.0078250   1.0078250   1.0078250   1.0078250   1.0078250   1.0078250
 NucSpn=           1           1           1           1           1           1           1           1           1           1
 AtZEff=   0.0000000   0.0000000   0.0000000   0.0000000   0.0000000   0.0000000   0.0000000   0.0000000   0.0000000   0.0000000
 NQMom=    0.0000000   0.0000000   0.0000000   0.0000000   0.0000000   0.0000000   0.0000000   0.0000000   0.0000000   0.0000000
 NMagM=    2.7928460   2.7928460   2.7928460   2.7928460   2.7928460   2.7928460   2.7928460   2.7928460   2.7928460   2.7928460

  Atom        41          42          43          44          45          46          47          48          49          50
 IAtWgt=           1           1           1           1           1           1           1           1           1           1
 AtmWgt=   1.0078250   1.0078250   1.0078250   1.0078250   1.0078250   1.0078250   1.0078250   1.0078250   1.0078250   1.0078250
 NucSpn=           1           1           1           1           1           1           1           1           1           1
 AtZEff=   0.0000000   0.0000000   0.0000000   0.0000000   0.0000000   0.0000000   0.0000000   0.0000000   0.0000000   0.0000000
 NQMom=    0.0000000   0.0000000   0.0000000   0.0000000   0.0000000   0.0000000   0.0000000   0.0000000   0.0000000   0.0000000
 NMagM=    2.7928460   2.7928460   2.7928460   2.7928460   2.7928460   2.7928460   2.7928460   2.7928460   2.7928460   2.7928460
 Leave Link  101 at Fri Aug 26 23:19:01 2022, MaxMem=  209715200 cpu:       0.7
 (Enter /opt/gaussian/l103.exe)

 GradGradGradGradGradGradGradGradGradGradGradGradGradGradGradGradGradGrad
 Berny optimization.
 Initialization pass.
                           ----------------------------
                           !    Initial Parameters    !
                           ! (Angstroms and Degrees)  !
 --------------------------                            --------------------------
 ! Name  Definition              Value          Derivative Info.                !
 --------------------------------------------------------------------------------
 ! R1    R(1,2)                  1.241          estimate D2E/DX2                !
 ! R2    R(2,3)                  1.5407         estimate D2E/DX2                !
 ! R3    R(2,13)                 1.3999         estimate D2E/DX2                !
 ! R4    R(3,4)                  1.4384         estimate D2E/DX2                !
 ! R5    R(3,30)                 1.1297         estimate D2E/DX2                !
 ! R6    R(3,31)                 1.1282         estimate D2E/DX2                !
 ! R7    R(4,5)                  1.3753         estimate D2E/DX2                !
 ! R8    R(4,12)                 1.418          estimate D2E/DX2                !
 ! R9    R(5,6)                  1.2543         estimate D2E/DX2                !
 ! R10   R(6,7)                  1.4334         estimate D2E/DX2                !
 ! R11   R(7,8)                  1.3942         estimate D2E/DX2                !
 ! R12   R(7,12)                 1.4487         estimate D2E/DX2                !
 ! R13   R(8,9)                  1.3913         estimate D2E/DX2                !
 ! R14   R(8,32)                 1.0994         estimate D2E/DX2                !
 ! R15   R(9,10)                 1.4044         estimate D2E/DX2                !
 ! R16   R(9,33)                 1.1007         estimate D2E/DX2                !
 ! R17   R(10,11)                1.3914         estimate D2E/DX2                !
 ! R18   R(10,34)                1.1013         estimate D2E/DX2                !
 ! R19   R(11,12)                1.3949         estimate D2E/DX2                !
 ! R20   R(11,35)                1.0976         estimate D2E/DX2                !
 ! R21   R(13,14)                1.4462         estimate D2E/DX2                !
 ! R22   R(13,18)                1.421          estimate D2E/DX2                !
 ! R23   R(14,15)                1.5132         estimate D2E/DX2                !
 ! R24   R(14,36)                1.1298         estimate D2E/DX2                !
 ! R25   R(14,37)                1.1301         estimate D2E/DX2                !
 ! R26   R(15,16)                1.5064         estimate D2E/DX2                !
 ! R27   R(15,17)                1.5068         estimate D2E/DX2                !
 ! R28   R(15,38)                1.1082         estimate D2E/DX2                !
 ! R29   R(16,17)                1.4985         estimate D2E/DX2                !
 ! R30   R(16,39)                1.1045         estimate D2E/DX2                !
 ! R31   R(16,40)                1.1049         estimate D2E/DX2                !
 ! R32   R(17,41)                1.1051         estimate D2E/DX2                !
 ! R33   R(17,42)                1.1045         estimate D2E/DX2                !
 ! R34   R(18,19)                1.4125         estimate D2E/DX2                !
 ! R35   R(18,23)                1.4116         estimate D2E/DX2                !
 ! R36   R(19,20)                1.3897         estimate D2E/DX2                !
 ! R37   R(19,43)                1.1026         estimate D2E/DX2                !
 ! R38   R(20,21)                1.4008         estimate D2E/DX2                !
 ! R39   R(20,44)                1.101          estimate D2E/DX2                !
 ! R40   R(21,22)                1.4012         estimate D2E/DX2                !
 ! R41   R(21,24)                1.4567         estimate D2E/DX2                !
 ! R42   R(22,23)                1.3901         estimate D2E/DX2                !
 ! R43   R(22,45)                1.1014         estimate D2E/DX2                !
 ! R44   R(23,46)                1.1025         estimate D2E/DX2                !
 ! R45   R(24,25)                1.4025         estimate D2E/DX2                !
 ! R46   R(24,29)                1.4153         estimate D2E/DX2                !
 ! R47   R(25,26)                1.3947         estimate D2E/DX2                !
 ! R48   R(25,47)                1.1001         estimate D2E/DX2                !
 ! R49   R(26,27)                1.4064         estimate D2E/DX2                !
 ! R50   R(26,48)                1.0976         estimate D2E/DX2                !
 ! R51   R(27,28)                1.3478         estimate D2E/DX2                !
 ! R52   R(27,49)                1.1045         estimate D2E/DX2                !
 ! R53   R(28,29)                1.3444         estimate D2E/DX2                !
 ! R54   R(29,50)                1.1054         estimate D2E/DX2                !
 ! A1    A(1,2,3)              121.584          estimate D2E/DX2                !
 ! A2    A(1,2,13)             121.6567         estimate D2E/DX2                !
 ! A3    A(3,2,13)             116.7267         estimate D2E/DX2                !
 ! A4    A(2,3,4)              115.2147         estimate D2E/DX2                !
 ! A5    A(2,3,30)             107.8508         estimate D2E/DX2                !
 ! A6    A(2,3,31)             109.0275         estimate D2E/DX2                !
 ! A7    A(4,3,30)             107.9694         estimate D2E/DX2                !
 ! A8    A(4,3,31)             107.1592         estimate D2E/DX2                !
 ! A9    A(30,3,31)            109.5331         estimate D2E/DX2                !
 ! A10   A(3,4,5)              123.6256         estimate D2E/DX2                !
 ! A11   A(3,4,12)             124.8091         estimate D2E/DX2                !
 ! A12   A(5,4,12)             108.1764         estimate D2E/DX2                !
 ! A13   A(4,5,6)              112.3087         estimate D2E/DX2                !
 ! A14   A(5,6,7)              109.4209         estimate D2E/DX2                !
 ! A15   A(6,7,8)              133.3653         estimate D2E/DX2                !
 ! A16   A(6,7,12)             106.1229         estimate D2E/DX2                !
 ! A17   A(8,7,12)             120.5047         estimate D2E/DX2                !
 ! A18   A(7,8,9)              117.4278         estimate D2E/DX2                !
 ! A19   A(7,8,32)             121.0089         estimate D2E/DX2                !
 ! A20   A(9,8,32)             121.5633         estimate D2E/DX2                !
 ! A21   A(8,9,10)             121.8515         estimate D2E/DX2                !
 ! A22   A(8,9,33)             119.2283         estimate D2E/DX2                !
 ! A23   A(10,9,33)            118.9202         estimate D2E/DX2                !
 ! A24   A(9,10,11)            122.1139         estimate D2E/DX2                !
 ! A25   A(9,10,34)            118.8717         estimate D2E/DX2                !
 ! A26   A(11,10,34)           119.0143         estimate D2E/DX2                !
 ! A27   A(10,11,12)           116.9357         estimate D2E/DX2                !
 ! A28   A(10,11,35)           121.4448         estimate D2E/DX2                !
 ! A29   A(12,11,35)           121.6191         estimate D2E/DX2                !
 ! A30   A(4,12,7)             103.7774         estimate D2E/DX2                !
 ! A31   A(4,12,11)            134.9724         estimate D2E/DX2                !
 ! A32   A(7,12,11)            121.1638         estimate D2E/DX2                !
 ! A33   A(2,13,14)            120.8759         estimate D2E/DX2                !
 ! A34   A(2,13,18)            120.8127         estimate D2E/DX2                !
 ! A35   A(14,13,18)           117.4639         estimate D2E/DX2                !
 ! A36   A(13,14,15)           115.9936         estimate D2E/DX2                !
 ! A37   A(13,14,36)           108.3235         estimate D2E/DX2                !
 ! A38   A(13,14,37)           107.796          estimate D2E/DX2                !
 ! A39   A(15,14,36)           108.5124         estimate D2E/DX2                !
 ! A40   A(15,14,37)           109.0208         estimate D2E/DX2                !
 ! A41   A(36,14,37)           106.827          estimate D2E/DX2                !
 ! A42   A(14,15,16)           117.9719         estimate D2E/DX2                !
 ! A43   A(14,15,17)           118.8847         estimate D2E/DX2                !
 ! A44   A(14,15,38)           114.3989         estimate D2E/DX2                !
 ! A45   A(16,15,38)           117.846          estimate D2E/DX2                !
 ! A46   A(17,15,38)           117.4278         estimate D2E/DX2                !
 ! A47   A(15,16,39)           118.7096         estimate D2E/DX2                !
 ! A48   A(15,16,40)           118.9699         estimate D2E/DX2                !
 ! A49   A(17,16,39)           119.2549         estimate D2E/DX2                !
 ! A50   A(17,16,40)           119.0509         estimate D2E/DX2                !
 ! A51   A(39,16,40)           111.8462         estimate D2E/DX2                !
 ! A52   A(15,17,41)           118.9563         estimate D2E/DX2                !
 ! A53   A(15,17,42)           118.8156         estimate D2E/DX2                !
 ! A54   A(16,17,41)           119.0487         estimate D2E/DX2                !
 ! A55   A(16,17,42)           119.2338         estimate D2E/DX2                !
 ! A56   A(41,17,42)           111.8153         estimate D2E/DX2                !
 ! A57   A(13,18,19)           120.6122         estimate D2E/DX2                !
 ! A58   A(13,18,23)           120.8314         estimate D2E/DX2                !
 ! A59   A(19,18,23)           118.5413         estimate D2E/DX2                !
 ! A60   A(18,19,20)           120.4845         estimate D2E/DX2                !
 ! A61   A(18,19,43)           120.3311         estimate D2E/DX2                !
 ! A62   A(20,19,43)           119.1841         estimate D2E/DX2                !
 ! A63   A(19,20,21)           120.8762         estimate D2E/DX2                !
 ! A64   A(19,20,44)           119.4777         estimate D2E/DX2                !
 ! A65   A(21,20,44)           119.6459         estimate D2E/DX2                !
 ! A66   A(20,21,22)           118.7444         estimate D2E/DX2                !
 ! A67   A(20,21,24)           120.7858         estimate D2E/DX2                !
 ! A68   A(22,21,24)           120.4695         estimate D2E/DX2                !
 ! A69   A(21,22,23)           121.0601         estimate D2E/DX2                !
 ! A70   A(21,22,45)           119.6324         estimate D2E/DX2                !
 ! A71   A(23,22,45)           119.3049         estimate D2E/DX2                !
 ! A72   A(18,23,22)           120.2933         estimate D2E/DX2                !
 ! A73   A(18,23,46)           120.2896         estimate D2E/DX2                !
 ! A74   A(22,23,46)           119.4009         estimate D2E/DX2                !
 ! A75   A(21,24,25)           121.6778         estimate D2E/DX2                !
 ! A76   A(21,24,29)           120.6053         estimate D2E/DX2                !
 ! A77   A(25,24,29)           117.7162         estimate D2E/DX2                !
 ! A78   A(24,25,26)           119.151          estimate D2E/DX2                !
 ! A79   A(24,25,47)           120.2091         estimate D2E/DX2                !
 ! A80   A(26,25,47)           120.6373         estimate D2E/DX2                !
 ! A81   A(25,26,27)           118.6298         estimate D2E/DX2                !
 ! A82   A(25,26,48)           121.0037         estimate D2E/DX2                !
 ! A83   A(27,26,48)           120.3663         estimate D2E/DX2                !
 ! A84   A(26,27,28)           123.3179         estimate D2E/DX2                !
 ! A85   A(26,27,49)           120.9247         estimate D2E/DX2                !
 ! A86   A(28,27,49)           115.7574         estimate D2E/DX2                !
 ! A87   A(27,28,29)           117.4624         estimate D2E/DX2                !
 ! A88   A(24,29,28)           123.7224         estimate D2E/DX2                !
 ! A89   A(24,29,50)           120.3133         estimate D2E/DX2                !
 ! A90   A(28,29,50)           115.9633         estimate D2E/DX2                !
 ! D1    D(1,2,3,4)             -6.1302         estimate D2E/DX2                !
 ! D2    D(1,2,3,30)           114.5263         estimate D2E/DX2                !
 ! D3    D(1,2,3,31)          -126.6167         estimate D2E/DX2                !
 ! D4    D(13,2,3,4)           175.9164         estimate D2E/DX2                !
 ! D5    D(13,2,3,30)          -63.4271         estimate D2E/DX2                !
 ! D6    D(13,2,3,31)           55.4299         estimate D2E/DX2                !
 ! D7    D(1,2,13,14)          175.0199         estimate D2E/DX2                !
 ! D8    D(1,2,13,18)            5.8276         estimate D2E/DX2                !
 ! D9    D(3,2,13,14)           -7.0283         estimate D2E/DX2                !
 ! D10   D(3,2,13,18)         -176.2206         estimate D2E/DX2                !
 ! D11   D(2,3,4,5)             75.2138         estimate D2E/DX2                !
 ! D12   D(2,3,4,12)           -81.5156         estimate D2E/DX2                !
 ! D13   D(30,3,4,5)           -45.3779         estimate D2E/DX2                !
 ! D14   D(30,3,4,12)          157.8926         estimate D2E/DX2                !
 ! D15   D(31,3,4,5)          -163.2835         estimate D2E/DX2                !
 ! D16   D(31,3,4,12)           39.9871         estimate D2E/DX2                !
 ! D17   D(3,4,5,6)           -164.7157         estimate D2E/DX2                !
 ! D18   D(12,4,5,6)            -4.6788         estimate D2E/DX2                !
 ! D19   D(3,4,12,7)           163.7199         estimate D2E/DX2                !
 ! D20   D(3,4,12,11)          -19.7903         estimate D2E/DX2                !
 ! D21   D(5,4,12,7)             3.9777         estimate D2E/DX2                !
 ! D22   D(5,4,12,11)         -179.5325         estimate D2E/DX2                !
 ! D23   D(4,5,6,7)              3.1832         estimate D2E/DX2                !
 ! D24   D(5,6,7,8)           -179.4898         estimate D2E/DX2                !
 ! D25   D(5,6,7,12)            -0.4924         estimate D2E/DX2                !
 ! D26   D(6,7,8,9)            179.3625         estimate D2E/DX2                !
 ! D27   D(6,7,8,32)            -0.6122         estimate D2E/DX2                !
 ! D28   D(12,7,8,9)             0.4804         estimate D2E/DX2                !
 ! D29   D(12,7,8,32)         -179.4943         estimate D2E/DX2                !
 ! D30   D(6,7,12,4)            -2.19           estimate D2E/DX2                !
 ! D31   D(6,7,12,11)         -179.2885         estimate D2E/DX2                !
 ! D32   D(8,7,12,4)           176.964          estimate D2E/DX2                !
 ! D33   D(8,7,12,11)           -0.1344         estimate D2E/DX2                !
 ! D34   D(7,8,9,10)            -0.3809         estimate D2E/DX2                !
 ! D35   D(7,8,9,33)           179.6105         estimate D2E/DX2                !
 ! D36   D(32,8,9,10)          179.5936         estimate D2E/DX2                !
 ! D37   D(32,8,9,33)           -0.4149         estimate D2E/DX2                !
 ! D38   D(8,9,10,11)           -0.0835         estimate D2E/DX2                !
 ! D39   D(8,9,10,34)          179.8186         estimate D2E/DX2                !
 ! D40   D(33,9,10,11)         179.9251         estimate D2E/DX2                !
 ! D41   D(33,9,10,34)          -0.1729         estimate D2E/DX2                !
 ! D42   D(9,10,11,12)           0.4323         estimate D2E/DX2                !
 ! D43   D(9,10,11,35)        -179.7846         estimate D2E/DX2                !
 ! D44   D(34,10,11,12)       -179.4696         estimate D2E/DX2                !
 ! D45   D(34,10,11,35)          0.3135         estimate D2E/DX2                !
 ! D46   D(10,11,12,4)        -176.3372         estimate D2E/DX2                !
 ! D47   D(10,11,12,7)          -0.3221         estimate D2E/DX2                !
 ! D48   D(35,11,12,4)           3.8801         estimate D2E/DX2                !
 ! D49   D(35,11,12,7)         179.8952         estimate D2E/DX2                !
 ! D50   D(2,13,14,15)         -76.7407         estimate D2E/DX2                !
 ! D51   D(2,13,14,36)          45.5075         estimate D2E/DX2                !
 ! D52   D(2,13,14,37)         160.7577         estimate D2E/DX2                !
 ! D53   D(18,13,14,15)         92.8022         estimate D2E/DX2                !
 ! D54   D(18,13,14,36)       -144.9496         estimate D2E/DX2                !
 ! D55   D(18,13,14,37)        -29.6994         estimate D2E/DX2                !
 ! D56   D(2,13,18,19)         137.1987         estimate D2E/DX2                !
 ! D57   D(2,13,18,23)         -44.231          estimate D2E/DX2                !
 ! D58   D(14,13,18,19)        -32.3511         estimate D2E/DX2                !
 ! D59   D(14,13,18,23)        146.2192         estimate D2E/DX2                !
 ! D60   D(13,14,15,16)        161.2823         estimate D2E/DX2                !
 ! D61   D(13,14,15,17)       -129.8521         estimate D2E/DX2                !
 ! D62   D(13,14,15,38)         16.0325         estimate D2E/DX2                !
 ! D63   D(36,14,15,16)         39.1339         estimate D2E/DX2                !
 ! D64   D(36,14,15,17)        107.9995         estimate D2E/DX2                !
 ! D65   D(36,14,15,38)       -106.1158         estimate D2E/DX2                !
 ! D66   D(37,14,15,16)        -76.864          estimate D2E/DX2                !
 ! D67   D(37,14,15,17)         -7.9984         estimate D2E/DX2                !
 ! D68   D(37,14,15,38)        137.8862         estimate D2E/DX2                !
 ! D69   D(14,15,16,39)       -141.9971         estimate D2E/DX2                !
 ! D70   D(14,15,16,40)          0.0181         estimate D2E/DX2                !
 ! D71   D(38,15,16,39)          2.0532         estimate D2E/DX2                !
 ! D72   D(38,15,16,40)        144.0685         estimate D2E/DX2                !
 ! D73   D(14,15,17,41)          1.4884         estimate D2E/DX2                !
 ! D74   D(14,15,17,42)        143.5911         estimate D2E/DX2                !
 ! D75   D(38,15,17,41)       -143.38           estimate D2E/DX2                !
 ! D76   D(38,15,17,42)         -1.2772         estimate D2E/DX2                !
 ! D77   D(39,16,17,41)        143.0649         estimate D2E/DX2                !
 ! D78   D(39,16,17,42)          0.1274         estimate D2E/DX2                !
 ! D79   D(40,16,17,41)          0.0262         estimate D2E/DX2                !
 ! D80   D(40,16,17,42)       -142.9112         estimate D2E/DX2                !
 ! D81   D(13,18,19,20)        178.5427         estimate D2E/DX2                !
 ! D82   D(13,18,19,43)         -1.6125         estimate D2E/DX2                !
 ! D83   D(23,18,19,20)         -0.0599         estimate D2E/DX2                !
 ! D84   D(23,18,19,43)        179.7849         estimate D2E/DX2                !
 ! D85   D(13,18,23,22)       -178.6113         estimate D2E/DX2                !
 ! D86   D(13,18,23,46)          2.8627         estimate D2E/DX2                !
 ! D87   D(19,18,23,22)         -0.0119         estimate D2E/DX2                !
 ! D88   D(19,18,23,46)       -178.5379         estimate D2E/DX2                !
 ! D89   D(18,19,20,21)          0.1273         estimate D2E/DX2                !
 ! D90   D(18,19,20,44)       -179.7184         estimate D2E/DX2                !
 ! D91   D(43,19,20,21)       -179.7192         estimate D2E/DX2                !
 ! D92   D(43,19,20,44)          0.4351         estimate D2E/DX2                !
 ! D93   D(19,20,21,22)         -0.1198         estimate D2E/DX2                !
 ! D94   D(19,20,21,24)        179.716          estimate D2E/DX2                !
 ! D95   D(44,20,21,22)        179.7256         estimate D2E/DX2                !
 ! D96   D(44,20,21,24)         -0.4385         estimate D2E/DX2                !
 ! D97   D(20,21,22,23)          0.0473         estimate D2E/DX2                !
 ! D98   D(20,21,22,45)        179.4547         estimate D2E/DX2                !
 ! D99   D(24,21,22,23)       -179.7891         estimate D2E/DX2                !
 ! D100  D(24,21,22,45)         -0.3817         estimate D2E/DX2                !
 ! D101  D(20,21,24,25)        -42.6791         estimate D2E/DX2                !
 ! D102  D(20,21,24,29)        137.6292         estimate D2E/DX2                !
 ! D103  D(22,21,24,25)        137.1539         estimate D2E/DX2                !
 ! D104  D(22,21,24,29)        -42.5377         estimate D2E/DX2                !
 ! D105  D(21,22,23,18)          0.0176         estimate D2E/DX2                !
 ! D106  D(21,22,23,46)        178.5567         estimate D2E/DX2                !
 ! D107  D(45,22,23,18)       -179.3917         estimate D2E/DX2                !
 ! D108  D(45,22,23,46)         -0.8526         estimate D2E/DX2                !
 ! D109  D(21,24,25,26)       -179.7003         estimate D2E/DX2                !
 ! D110  D(21,24,25,47)         -0.269          estimate D2E/DX2                !
 ! D111  D(29,24,25,26)         -0.0001         estimate D2E/DX2                !
 ! D112  D(29,24,25,47)        179.4313         estimate D2E/DX2                !
 ! D113  D(21,24,29,28)        179.8195         estimate D2E/DX2                !
 ! D114  D(21,24,29,50)         -0.5459         estimate D2E/DX2                !
 ! D115  D(25,24,29,28)          0.1158         estimate D2E/DX2                !
 ! D116  D(25,24,29,50)        179.7505         estimate D2E/DX2                !
 ! D117  D(24,25,26,27)         -0.1037         estimate D2E/DX2                !
 ! D118  D(24,25,26,48)        179.7475         estimate D2E/DX2                !
 ! D119  D(47,25,26,27)       -179.5325         estimate D2E/DX2                !
 ! D120  D(47,25,26,48)          0.3186         estimate D2E/DX2                !
 ! D121  D(25,26,27,28)          0.1082         estimate D2E/DX2                !
 ! D122  D(25,26,27,49)       -179.877          estimate D2E/DX2                !
 ! D123  D(48,26,27,28)       -179.7439         estimate D2E/DX2                !
 ! D124  D(48,26,27,49)          0.2709         estimate D2E/DX2                !
 ! D125  D(26,27,28,29)          0.0009         estimate D2E/DX2                !
 ! D126  D(49,27,28,29)        179.9868         estimate D2E/DX2                !
 ! D127  D(27,28,29,24)         -0.1156         estimate D2E/DX2                !
 ! D128  D(27,28,29,50)       -179.7647         estimate D2E/DX2                !
 --------------------------------------------------------------------------------
 Trust Radius=3.00D-01 FncErr=1.00D-07 GrdErr=1.00D-07
 Number of steps in this run=    282 maximum allowed number of steps=    300.
 GradGradGradGradGradGradGradGradGradGradGradGradGradGradGradGradGradGrad

 Leave Link  103 at Fri Aug 26 23:19:01 2022, MaxMem=  209715200 cpu:       0.1
 (Enter /opt/gaussian/l202.exe)
                          Input orientation:                          
 ---------------------------------------------------------------------
 Center     Atomic      Atomic             Coordinates (Angstroms)
 Number     Number       Type             X           Y           Z
 ---------------------------------------------------------------------
      1          8           0       21.145700   -6.881600    0.050400
      2          6           0       21.758400   -7.907800    0.384600
      3          6           0       23.253900   -7.870700    0.753400
      4          7           0       23.904300   -6.604200    0.548600
      5          7           0       23.735200   -5.518600    1.375900
      6          7           0       24.140200   -4.453200    0.852200
      7          6           0       24.584100   -4.718000   -0.484800
      8          6           0       25.125200   -3.917700   -1.490000
      9          6           0       25.459900   -4.535700   -2.690700
     10          6           0       25.272800   -5.912800   -2.892800
     11          6           0       24.744500   -6.740100   -1.906600
     12          6           0       24.395200   -6.138500   -0.697500
     13          7           0       21.115100   -9.146800    0.487700
     14          6           0       21.864100  -10.350400    0.774000
     15          6           0       22.646900  -10.935000   -0.381500
     16          6           0       23.758800  -11.900800   -0.064900
     17          6           0       22.495000  -12.400800   -0.696000
     18          6           0       19.758200   -9.297500    0.093400
     19          6           0       19.345800  -10.426800   -0.648000
     20          6           0       18.012600  -10.586500   -1.006300
     21          6           0       17.051800   -9.633700   -0.644100
     22          6           0       17.458500   -8.512500    0.091300
     23          6           0       18.788000   -8.339300    0.458500
     24          6           0       15.655900   -9.800000   -1.026000
     25          6           0       15.289900  -10.235800   -2.307900
     26          6           0       13.937100  -10.370700   -2.619100
     27          6           0       12.984500  -10.065400   -1.630500
     28          7           0       13.311200   -9.645100   -0.392300
     29          6           0       14.618500   -9.517100   -0.105800
     30          1           0       23.347600   -8.137800    1.847100
     31          1           0       23.805400   -8.632700    0.130400
     32          1           0       25.279800   -2.840400   -1.334600
     33          1           0       25.883300   -3.930600   -3.506900
     34          1           0       25.552100   -6.350500   -3.864000
     35          1           0       24.606200   -7.815800   -2.075200
     36          1           0       22.581700  -10.129800    1.618300
     37          1           0       21.137400  -11.126600    1.156700
     38          1           0       22.790300  -10.242100   -1.234400
     39          1           0       24.683800  -11.860900   -0.667200
     40          1           0       23.966300  -12.150400    0.991200
     41          1           0       21.797200  -13.008200   -0.091500
     42          1           0       22.510400  -12.723000   -1.752300
     43          1           0       20.079500  -11.191700   -0.951800
     44          1           0       17.708600  -11.475500   -1.580300
     45          1           0       16.716800   -7.749700    0.376100
     46          1           0       19.082000   -7.435000    1.016400
     47          1           0       16.062700  -10.458300   -3.058500
     48          1           0       13.616500  -10.705400   -3.614000
     49          1           0       11.903400  -10.160800   -1.835300
     50          1           0       14.858400   -9.174800    0.917500
 ---------------------------------------------------------------------
                    Distance matrix (angstroms):
                    1          2          3          4          5
     1  O    0.000000
     2  C    1.241039   0.000000
     3  C    2.432496   1.540750   0.000000
     4  N    2.816918   2.516179   1.438397   0.000000
     5  N    3.212511   3.255563   2.480228   1.375335   0.000000
     6  N    3.937898   4.222071   3.531939   2.185091   1.254338
     7  C    4.097584   4.349168   3.638968   2.255614   2.196314
     8  C    5.195571   5.547104   4.915365   3.586610   3.564879
     9  C    5.623984   5.876192   5.277356   4.146281   4.525253
    10  C    5.160809   5.203113   4.604791   3.767501   4.554273
    11  C    4.098931   3.940801   3.252037   2.598540   3.644936
    12  C    3.416256   3.354710   2.531441   1.417965   2.262491
    13  N    2.307227   1.399852   2.504694   3.774674   4.562637
    14  C    3.615559   2.475702   2.842689   4.271678   5.216281
    15  C    4.343983   3.246580   3.323610   4.604560   5.797434
    16  C    5.659855   4.488619   4.143217   5.333997   6.542854
    17  C    5.730558   4.679458   4.816482   6.093909   7.293527
    18  C    2.786320   2.452930   3.832920   4.964999   5.633952
    19  C    4.036811   3.637618   4.875532   6.068282   6.888645
    20  C    4.965805   4.810515   6.159817   7.279324   8.006662
    21  C    4.981606   5.117523   6.597516   7.586644   8.104461
    22  C    4.031991   4.352106   5.868300   6.737883   7.071817
    23  C    2.801818   3.002487   4.500091   5.403260   5.768254
    24  C    6.309802   6.542990   8.038536   8.984910   9.453814
    25  C    7.148610   7.383132   8.853844   9.775275  10.351109
    26  C    8.441799   8.732744  10.218929  11.116021  11.640690
    27  C    8.920044   9.257278  10.768485  11.660635  12.053605
    28  N    8.319393   8.658924  10.164566  11.061019  11.349639
    29  C    7.040923   7.335428   8.832836   9.753938  10.064674
    30  H    3.107174   2.171949   1.129735   2.085173   2.689326
    31  H    3.185397   2.186391   1.128240   2.073520   3.354671
    32  H    5.944771   6.405814   5.811018   4.427712   4.111612
    33  H    6.618734   6.926521   6.370894   5.245156   5.565772
    34  H    5.917851   5.904909   5.377092   4.717059   5.608006
    35  H    4.167249   3.764179   3.135715   2.974049   4.236255
    36  H    3.882166   2.671539   2.510665   3.914509   4.759463
    37  H    4.386798   3.367856   3.904242   5.336443   6.184357
    38  H    3.955803   3.022406   3.128867   4.201714   5.478864
    39  H    6.150328   5.029040   4.470393   5.451485   6.730443
    40  H    6.049888   4.821041   4.345100   5.564178   6.646967
    41  H    6.162777   5.122720   5.406453   6.772061   7.874212
    42  H    6.263712   5.321466   5.511455   6.684071   7.949160
    43  H    4.551719   3.922839   4.900364   6.158364   7.139075
    44  H    5.964625   5.743709   7.013636   8.163852   8.974613
    45  H    4.524913   5.044085   6.549097   7.280253   7.432049
    46  H    2.344838   2.790310   4.202827   4.915653   5.045206
    47  H    6.949455   7.127481   8.540469   9.452828  10.145531
    48  H    9.205331   9.492413  10.953958  11.831564  12.417330
    49  H    9.986447  10.350120  11.865065  12.741820  13.109284
    50  H    6.748390   7.035572   8.497766   9.411290   9.611218
                    6          7          8          9         10
     6  N    0.000000
     7  C    1.433435   0.000000
     8  C    2.596707   1.394165   0.000000
     9  C    3.781607   2.380389   1.391269   0.000000
    10  C    4.175912   2.774945   2.443370   1.404370   0.000000
    11  C    3.634015   2.477122   2.878269   2.446628   1.391444
    12  C    2.303656   1.448705   2.468382   2.770451   2.374966
    13  N    5.595889   5.709114   6.880093   7.088142   6.258834
    14  C    6.321686   6.380196   7.559107   7.664506   6.690064
    15  C    6.765035   6.512642   7.524177   7.361821   6.198748
    16  C    7.513540   7.242241   8.223615   8.002079   6.793037
    17  C    8.262442   7.964569   8.916915   8.638823   7.391634
    18  C    6.576089   6.677982   7.762351   7.933179   7.126317
    19  C    7.805176   7.749633   8.745216   8.732692   7.781044
    20  C    8.866728   8.825864   9.761964   9.742262   8.838148
    21  C    8.906285   8.995834   9.928141  10.043621   9.299817
    22  C    7.855062   8.093472   9.076948   9.358251   8.759371
    23  C    6.625920   6.899160   7.969147   8.300547   7.692317
    24  C   10.202904  10.287486  11.157257  11.251777  10.539451
    25  C   11.034152  10.961385  11.718382  11.664758  10.894436
    26  C   12.295120  12.242012  12.964940  12.916163  12.183837
    27  C   12.732252  12.824119  13.609208  13.687118  13.032260
    28  N   12.073601  12.302973  13.174925  13.378323  12.777419
    29  C   10.826986  11.067438  11.985826  12.207867  11.587599
    30  H    3.897989   4.319922   5.666158   6.166730   5.578859
    31  H    4.254563   4.038530   5.157402   5.242269   4.323292
    32  H    2.946507   2.175210   1.099375   2.178413   3.444950
    33  H    4.723691   3.382456   2.154708   1.100725   2.163087
    34  H    5.275960   3.875703   3.425877   2.163015   1.101281
    35  H    4.482623   3.482273   3.975802   3.444808   2.175830
    36  H    5.936297   6.141678   7.397372   7.625318   6.736107
    37  H    7.324192   7.459519   8.653081   8.770773   7.789974
    38  H    6.299801   5.856219   6.746490   6.466110   5.258891
    39  H    7.581431   7.145924   7.997891   7.639073   6.378096
    40  H    7.700419   7.602685   8.676218   8.588998   7.463247
    41  H    8.920103   8.754936   9.781031   9.589289   8.382826
    42  H    8.822089   8.365812   9.189085   8.752830   7.437097
    43  H    8.071622   7.900525   8.869037   8.733545   7.655366
    44  H    9.828287   9.702393  10.589356  10.463100   9.480686
    45  H    8.136366   8.475067   9.426969   9.806980   9.341576
    46  H    5.873966   6.317341   7.427901   7.926294   7.478298
    47  H   10.798185  10.591942  11.285767  11.113948  10.272048
    48  H   13.030165  12.881347  13.529022  13.385955  12.623727
    49  H   13.767303  13.865355  14.625715  14.702114  14.067859
    50  H   10.413913  10.789752  11.783053  12.121558  11.559358
                   11         12         13         14         15
    11  C    0.000000
    12  C    1.394939   0.000000
    13  N    4.969650   4.605825   0.000000
    14  C    5.340092   5.129511   1.446244   0.000000
    15  C    4.931840   5.114961   2.509896   1.513180   0.000000
    16  C    5.567431   5.831748   3.857335   2.587930   1.506428
    17  C    6.210421   6.544247   3.727437   2.600591   1.506836
    18  C    5.950083   5.666266   1.421042   2.450843   3.354329
    19  C    6.657461   6.624833   2.461430   2.893053   3.350605
    20  C    7.805371   7.785733   3.732329   4.249619   4.689196
    21  C    8.315315   8.132945   4.245992   5.067830   5.750433
    22  C    7.760077   7.374001   3.732317   4.822164   5.745567
    23  C    6.605379   6.133559   2.463393   3.688693   4.725925
    24  C    9.630218   9.481026   5.702703   6.487271   7.111799
    25  C   10.088133  10.113740   6.552424   7.261635   7.637103
    26  C   11.423170  11.444471   7.916680   8.622695   9.010322
    27  C   12.224216  12.103516   8.452056   9.203811   9.781522
    28  N   11.893380  11.629465   7.869152   8.660820   9.424397
    29  C   10.653191  10.360932   6.534155   7.346234   8.157307
    30  H    4.242070   3.401420   2.801804   2.871918   3.644443
    31  H    2.934828   2.693384   2.762187   2.670835   2.627689
    32  H    3.977611   3.473597   7.774071   8.515474   8.565227
    33  H    3.427990   3.870658   8.117962   8.700224   8.324904
    34  H    2.153003   3.377882   6.814951   7.149237   6.448692
    35  H    1.097581   2.180806   4.530761   4.696941   4.054243
    36  H    5.347213   4.958043   2.096535   1.129804   2.156803
    37  H    6.452624   6.239588   2.089896   1.130061   2.163645
    38  H    4.066295   4.438862   2.640380   2.214327   1.108202
    39  H    5.269003   5.729753   4.629876   3.508472   2.255632
    40  H    6.186613   6.259281   4.171866   2.776044   2.258831
    41  H    7.160324   7.369506   3.963728   2.795973   2.259258
    42  H    6.388279   6.929698   4.444510   3.525497   2.257137
    43  H    6.518482   6.650170   2.706703   2.621253   2.642476
    44  H    8.487307   8.600786   4.615594   4.906807   5.110388
    45  H    8.406782   7.918738   4.616209   5.780715   6.773934
    46  H    6.410204   5.731358   2.709848   4.037127   5.187739
    47  H    9.514491   9.678096   6.310492   6.953844   7.123571
    48  H   11.936130  12.064117   8.688048   9.348983   9.594264
    49  H   13.289098  13.172644   9.554054  10.298541  10.869025
    50  H   10.565902  10.137943   6.271508   7.105101   8.089897
                   16         17         18         19         20
    16  C    0.000000
    17  C    1.498492   0.000000
    18  C    4.775671   4.212327   0.000000
    19  C    4.689056   3.717047   1.412468   0.000000
    20  C    5.969291   4.845604   2.432690   1.389714   0.000000
    21  C    7.103454   6.106387   2.825162   2.427233   1.400769
    22  C    7.155331   6.411322   2.429990   2.788012   2.411064
    23  C    6.137351   5.618763   1.411642   2.427579   2.792274
    24  C    8.425797   7.324367   4.281872   3.761798   2.484553
    25  C    8.917709   7.694083   5.158716   4.386579   3.038132
    26  C   10.263086   9.003181   6.511115   5.756945   4.388325
    27  C   11.041075   9.837530   7.031679   6.446864   5.093423
    28  N   10.693349   9.593138   6.474607   6.090389   4.833880
    29  C    9.446099   8.408526   5.148244   4.844471   3.670754
    30  H    4.240872   5.036611   4.159827   5.242084   6.526887
    31  H    3.274262   4.074146   4.101604   4.869572   6.218195
    32  H    9.274504   9.978185   8.615184   9.655943  10.626478
    33  H    8.937838   9.545995   8.904079   9.649499  10.606692
    34  H    6.960957   7.482527   7.610197   8.091788   9.107920
    35  H    4.631049   5.232741   5.513743   6.043677   7.231520
    36  H    2.712041   3.243600   3.315146   3.961739   5.289024
    37  H    2.993899   2.626625   2.525551   2.637516   3.838574
    38  H    2.248779   2.244340   3.442231   3.498937   4.795525
    39  H    1.104528   2.254588   5.604558   5.527319   6.800294
    40  H    1.104855   2.252569   5.162673   5.196806   6.471656
    41  H    2.252758   1.105115   4.238042   3.603149   4.585268
    42  H    2.254292   1.104454   4.766053   4.062845   5.035013
    43  H    3.850541   2.713300   2.187160   1.102580   2.154371
    44  H    6.251579   4.954573   3.427217   2.156242   1.101005
    45  H    8.186323   7.494646   3.424284   3.889381   3.411387
    46  H    6.556298   6.264188   2.185882   3.433757   3.894468
    47  H    8.382864   7.122443   4.993861   4.073113   2.833738
    48  H   10.811630   9.498256   7.310778   6.457527   5.112723
    49  H   12.112490  10.885660   8.134067   7.541204   6.179869
    50  H    9.360198   8.445598   4.970134   4.914779   3.955108
                   21         22         23         24         25
    21  C    0.000000
    22  C    1.401181   0.000000
    23  C    2.430142   1.390109   0.000000
    24  C    1.456722   2.481004   3.761308   0.000000
    25  C    2.497008   3.664526   4.846275   1.402550   0.000000
    26  C    3.761004   4.816579   6.093393   2.412041   1.394672
    27  C    4.207408   5.039124   6.404994   2.751769   2.408895
    28  N    3.749083   4.326286   5.694235   2.433760   2.816683
    29  C    2.494857   3.018885   4.369254   1.415274   2.411753
    30  H    6.934039   6.156682   4.770615   8.377342   9.305491
    31  H    6.871169   6.348159   5.036669   8.313495   9.001610
    32  H   10.692320   9.766199   8.694629  11.880687  12.467452
    33  H   10.895704  10.242954   9.246854  12.050080  12.386011
    34  H    9.664484   9.264178   8.269969  10.857627  11.082858
    35  H    7.900745   7.501248   6.367507   9.227445   9.628291
    36  H    5.995362   5.585210   4.352377   7.420768   8.282308
    37  H    4.707840   4.637122   3.711631   6.047387   6.854942
    38  H    5.800775   5.759956   4.743940   7.151122   7.576836
    39  H    7.950370   7.999504   6.959118   9.267094   9.673583
    40  H    7.537791   7.509700   6.451592   8.868834   9.477852
    41  H    5.849054   6.250524   5.581793   6.991524   7.412394
    42  H    6.369317   6.829997   6.161227   7.487030   7.657054
    43  H    3.418920   3.890477   3.434109   4.637949   5.068828
    44  H    2.167968   3.411182   3.893271   2.707051   2.813604
    45  H    2.168522   1.101405   2.155061   2.700949   3.926906
    46  H    3.422463   2.156981   1.102473   4.637109   5.768490
    47  H    2.736350   3.956720   4.928155   2.174834   1.100057
    48  H    4.665848   5.770531   6.994862   3.417111   2.174095
    49  H    5.310632   6.106375   7.481784   3.855697   3.420140
    50  H    2.731334   2.807449   4.043575   2.191820   3.422736
                   26         27         28         29         30
    26  C    0.000000
    27  C    1.406408   0.000000
    28  N    2.424229   1.347785   0.000000
    29  C    2.740368   2.301152   1.344433   0.000000
    30  H   10.653182  11.099693  10.393084   9.050606   0.000000
    31  H   10.390560  11.056459  10.555871   9.232393   1.844333
    32  H   13.675240  14.264031  13.799973  12.639288   6.474493
    33  H   13.600543  14.406099  14.156763  13.025828   7.266060
    34  H   12.353947  13.294118  13.143315  11.987286   6.377376
    35  H   10.984218  11.845774  11.565272  10.321197   4.131851
    36  H    9.630301  10.132379   9.498401   8.170708   2.146396
    37  H    8.165315   8.681268   8.114410   6.832310   3.780815
    38  H    8.961757   9.815387   9.535139   8.281164   3.772838
    39  H   11.023709  11.875411  11.589710  10.349823   4.687068
    40  H   10.806778  11.481309  11.032758   9.773384   4.149255
    41  H    8.667545   9.417658   9.133078   7.982588   5.466508
    42  H    8.932308   9.890422   9.795323   8.675877   5.889027
    43  H    6.417399   7.215831   6.965264   5.774298   5.276422
    44  H    4.064960   4.930317   4.909056   3.944388   7.394973
    45  H    4.854647   4.828972   3.972542   2.785461   6.803085
    46  H    6.950194   7.148747   6.338068   5.051466   4.402196
    47  H    2.172308   3.415973   3.916717   3.419065   9.084019
    48  H    1.097558   2.177911   3.405407   3.837125  11.450349
    49  H    2.189597   1.104455   2.080888   3.282878  12.191075
    50  H    3.845323   3.285875   2.081006   1.105380   8.602676
                   31         32         33         34         35
    31  H    0.000000
    32  H    6.153927   0.000000
    33  H    6.297409   2.504323   0.000000
    34  H    4.920836   4.335068   2.468427   0.000000
    35  H    2.484608   5.075119   4.333074   2.498327   0.000000
    36  H    2.439794   8.314729   8.694729   7.291227   4.805740
    37  H    3.793554   9.593079   9.800773   8.216333   5.782659
    38  H    2.341639   7.809790   7.386876   5.448567   3.145055
    39  H    3.439335   9.064770   8.508370   6.429462   4.283844
    40  H    3.625063   9.685594   9.564147   7.728297   5.347994
    41  H    4.819451  10.819333  10.524447   8.523849   6.227886
    42  H    4.685311  10.271798   9.579216   7.370208   5.345770
    43  H    4.647792   9.845500   9.640343   7.865588   5.757581
    44  H    6.941108  11.486879  11.289952   9.643723   7.824015
    45  H    7.147609  10.017619  10.662455   9.899431   8.261711
    46  H    4.952776   8.065375   8.888124   8.176591   6.341907
    47  H    8.570373  12.081356  11.800683  10.371671   8.996726
    48  H   11.051258  14.250841  14.013699  12.707722  11.466961
    49  H   12.159633  15.256705  15.396339  14.315063  12.919663
    50  H    8.997900  12.401700  12.985583  12.049674  10.287018
                   36         37         38         39         40
    36  H    0.000000
    37  H    1.814576   0.000000
    38  H    2.862520   3.038384   0.000000
    39  H    3.555143   4.054967   2.554911   0.000000
    40  H    2.528477   3.013010   3.158778   1.830002   0.000000
    41  H    3.438611   2.352394   3.153376   3.159143   2.571586
    42  H    4.253318   3.591087   2.549790   2.577659   3.158213
    43  H    3.740862   2.359907   2.886181   4.661374   4.449895
    44  H    5.982395   4.401087   5.240668   7.045261   6.799038
    45  H    6.450193   5.617339   6.759672   9.025715   8.502926
    46  H    4.457817   4.227560   5.166953   7.335071   6.789110
    47  H    8.029803   6.630770   6.973857   9.055880   9.040474
    48  H   10.396302   8.916329   9.488717  11.511036  11.419906
    49  H   11.222941   9.754568  10.903774  12.945788  12.548353
    50  H    7.813610   6.579710   8.287632  10.308486   9.581935
                   41         42         43         44         45
    41  H    0.000000
    42  H    1.829822   0.000000
    43  H    2.643914   2.982441   0.000000
    44  H    4.613279   4.964184   2.469154   0.000000
    45  H    7.326728   7.926512   4.991837   4.323512   0.000000
    46  H    6.297643   6.883500   4.356789   4.995470   2.470464
    47  H    6.941871   6.957576   4.594643   2.434904   4.422764
    48  H    9.199714   9.307959   7.006723   4.634034   5.853966
    49  H   10.442021  10.912388   8.288060   5.957668   5.820010
    50  H    7.991244   8.847071   5.901021   4.433494   2.403679
                   46         47         48         49         50
    46  H    0.000000
    47  H    5.904348   0.000000
    48  H    7.874504   2.520622   0.000000
    49  H    8.191122   4.345630   2.528848   0.000000
    50  H    4.568969   4.348136   4.941614   4.157178   0.000000
 Stoichiometry    C23H21N5O
 Framework group  C1[X(C23H21N5O)]
 Deg. of freedom   144
 Full point group                 C1      NOp   1
 Largest Abelian subgroup         C1      NOp   1
 Largest concise Abelian subgroup C1      NOp   1
                         Standard orientation:                         
 ---------------------------------------------------------------------
 Center     Atomic      Atomic             Coordinates (Angstroms)
 Number     Number       Type             X           Y           Z
 ---------------------------------------------------------------------
      1          8           0        1.129591   -1.113939   -0.707470
      2          6           0        1.304077    0.103577   -0.872955
      3          6           0        2.707477    0.692350   -1.113218
      4          7           0        3.793316   -0.243360   -0.993280
      5          7           0        4.092735   -1.188810   -1.946180
      6          7           0        4.862528   -2.077714   -1.509566
      7          6           0        5.118035   -1.845652   -0.118309
      8          6           0        5.891620   -2.504980    0.835919
      9          6           0        5.913604   -1.973649    2.121544
     10          6           0        5.195620   -0.814133    2.456622
     11          6           0        4.422551   -0.127785    1.525275
     12          6           0        4.381036   -0.648593    0.231872
     13          7           0        0.231779    1.003185   -0.894593
     14          6           0        0.460482    2.428589   -0.981426
     15          6           0        0.909282    3.107180    0.294429
     16          6           0        1.565824    4.458409    0.182805
     17          6           0        0.184851    4.346107    0.753575
     18          6           0       -1.089516    0.567896   -0.604661
     19          6           0       -1.937636    1.342034    0.217817
     20          6           0       -3.239331    0.928897    0.475133
     21          6           0       -3.737031   -0.261168   -0.070939
     22          6           0       -2.897541   -1.030897   -0.887078
     23          6           0       -1.593642   -0.630315   -1.155008
     24          6           0       -5.099837   -0.695476    0.205063
     25          6           0       -5.653988   -0.610058    1.490662
     26          6           0       -6.962278   -1.047028    1.696928
     27          6           0       -7.682586   -1.557921    0.602337
     28          7           0       -7.172245   -1.650117   -0.641679
     29          6           0       -5.909405   -1.227602   -0.826654
     30          1           0        2.729433    1.119580   -2.158825
     31          1           0        2.893781    1.516117   -0.365138
     32          1           0        6.460767   -3.409274    0.577175
     33          1           0        6.509570   -2.474253    2.899886
     34          1           0        5.245600   -0.437892    3.490433
     35          1           0        3.868534    0.779516    1.798321
     36          1           0        1.237735    2.615631   -1.779768
     37          1           0       -0.497262    2.910971   -1.337900
     38          1           0        1.280729    2.414116    1.075327
     39          1           0        2.409942    4.695287    0.854621
     40          1           0        1.697896    4.908189   -0.817674
     41          1           0       -0.672151    4.715171    0.161445
     42          1           0        0.034171    4.504227    1.836217
     43          1           0       -1.573165    2.281239    0.665855
     44          1           0       -3.887640    1.547518    1.114834
     45          1           0       -3.270889   -1.973805   -1.316761
     46          1           0       -0.949139   -1.268917   -1.781307
     47          1           0       -5.057901   -0.211679    2.324988
     48          1           0       -7.424589   -0.997961    2.691159
     49          1           0       -8.721650   -1.912555    0.722347
     50          1           0       -5.517294   -1.310711   -1.856803
 ---------------------------------------------------------------------
 Rotational constants (GHZ):      0.2863056      0.0686301      0.0621992
 Leave Link  202 at Fri Aug 26 23:19:01 2022, MaxMem=  209715200 cpu:       0.0
 (Enter /opt/gaussian/l301.exe)
 Standard basis: 6-31G (6D, 7F)
 Ernie: Thresh=  0.10000D-02 Tol=  0.10000D-05 Strict=F.
 There are   303 symmetry adapted basis functions of A   symmetry.
 Integral buffers will be    131072 words long.
 Raffenetti 1 integral format.
 Two-electron integral symmetry is turned on.
   303 basis functions,   722 primitive gaussians,   303 cartesian basis functions
   101 alpha electrons      101 beta electrons
       nuclear repulsion energy      2473.1493640392 Hartrees.
 IExCor=    0 DFT=F Ex=HF Corr=None ExCW=0 ScaHFX=  1.000000
 ScaDFX=  1.000000  1.000000  1.000000  1.000000 ScalE2=  1.000000  1.000000
 IRadAn=      0 IRanWt=     -1 IRanGd=            0 ICorTp=0
 NAtoms=   50 NActive=   50 NUniq=   50 SFac= 1.00D+00 NAtFMM=   60 NAOKFM=F Big=F
 Leave Link  301 at Fri Aug 26 23:19:01 2022, MaxMem=  209715200 cpu:       0.2
 (Enter /opt/gaussian/l302.exe)
 NPDir=0 NMtPBC=     1 NCelOv=     1 NCel=       1 NClECP=     1 NCelD=      1
         NCelK=      1 NCelE2=     1 NClLst=     1 CellRange=     0.0.
 One-electron integrals computed using PRISM.
 NBasis=   303 RedAO= T  NBF=   303
 NBsUse=   303 1.00D-06 NBFU=   303
 Leave Link  302 at Fri Aug 26 23:19:01 2022, MaxMem=  209715200 cpu:       1.7
 (Enter /opt/gaussian/l303.exe)
 DipDrv:  MaxL=1.
 Leave Link  303 at Fri Aug 26 23:19:01 2022, MaxMem=  209715200 cpu:       0.4
 (Enter /opt/gaussian/l401.exe)
 Harris functional with IExCor=  205 diagonalized for initial guess.
 ExpMin= 1.61D-01 ExpMax= 5.48D+03 ExpMxC= 8.25D+02 IAcc=1 IRadAn=         1 AccDes= 0.00D+00
 HarFok:  IExCor=  205 AccDes= 0.00D+00 IRadAn=         1 IDoV= 1
 ScaDFX=  1.000000  1.000000  1.000000  1.000000
 FoFCou: FMM=F IPFlag=           0 FMFlag=      100000 FMFlg1=           0
         NFxFlg=           0 DoJE=T BraDBF=F KetDBF=T FulRan=T
         Omega=  0.000000  0.000000  1.000000  0.000000  0.000000 ICntrl=     500 IOpCl=  0
         NMat0=    1 NMatS0=    1 NMatT0=    0 NMatD0=    1 NMtDS0=    0 NMtDT0=    0
         I1Cent=           4 NGrid=           0.
 Petite list used in FoFCou.
 Harris En= -1231.22419445475    
 Initial guess orbital symmetries:
       Occupied  (A) (A) (A) (A) (A) (A) (A) (A) (A) (A) (A) (A)
                 (A) (A) (A) (A) (A) (A) (A) (A) (A) (A) (A) (A)
                 (A) (A) (A) (A) (A) (A) (A) (A) (A) (A) (A) (A)
                 (A) (A) (A) (A) (A) (A) (A) (A) (A) (A) (A) (A)
                 (A) (A) (A) (A) (A) (A) (A) (A) (A) (A) (A) (A)
                 (A) (A) (A) (A) (A) (A) (A) (A) (A) (A) (A) (A)
                 (A) (A) (A) (A) (A) (A) (A) (A) (A) (A) (A) (A)
                 (A) (A) (A) (A) (A) (A) (A) (A) (A) (A) (A) (A)
                 (A) (A) (A) (A) (A)
       Virtual   (A) (A) (A) (A) (A) (A) (A) (A) (A) (A) (A) (A)
                 (A) (A) (A) (A) (A) (A) (A) (A) (A) (A) (A) (A)
                 (A) (A) (A) (A) (A) (A) (A) (A) (A) (A) (A) (A)
                 (A) (A) (A) (A) (A) (A) (A) (A) (A) (A) (A) (A)
                 (A) (A) (A) (A) (A) (A) (A) (A) (A) (A) (A) (A)
                 (A) (A) (A) (A) (A) (A) (A) (A) (A) (A) (A) (A)
                 (A) (A) (A) (A) (A) (A) (A) (A) (A) (A) (A) (A)
                 (A) (A) (A) (A) (A) (A) (A) (A) (A) (A) (A) (A)
                 (A) (A) (A) (A) (A) (A) (A) (A) (A) (A) (A) (A)
                 (A) (A) (A) (A) (A) (A) (A) (A) (A) (A) (A) (A)
                 (A) (A) (A) (A) (A) (A) (A) (A) (A) (A) (A) (A)
                 (A) (A) (A) (A) (A) (A) (A) (A) (A) (A) (A) (A)
                 (A) (A) (A) (A) (A) (A) (A) (A) (A) (A) (A) (A)
                 (A) (A) (A) (A) (A) (A) (A) (A) (A) (A) (A) (A)
                 (A) (A) (A) (A) (A) (A) (A) (A) (A) (A) (A) (A)
                 (A) (A) (A) (A) (A) (A) (A) (A) (A) (A) (A) (A)
                 (A) (A) (A) (A) (A) (A) (A) (A) (A) (A)
 The electronic state of the initial guess is 1-A.
 Leave Link  401 at Fri Aug 26 23:19:02 2022, MaxMem=  209715200 cpu:       3.9
 (Enter /opt/gaussian/l502.exe)
 Closed shell SCF:
 Requested convergence on RMS density matrix=1.00D-08 within 128 cycles.
 Requested convergence on MAX density matrix=1.00D-06.
 Requested convergence on             energy=1.00D-06.
 No special actions if energy rises.
 Using DIIS extrapolation, IDIIS=  1040.
 Integral symmetry usage will be decided dynamically.
 IEnd=      298347 IEndB=      298347 NGot=   209715200 MDV=   209525606
 LenX=   209525606 LenY=   209433356
 Fock matrices will be formed incrementally for  20 cycles.
 Integral accuracy reduced to 1.0D-05 until final iterations.

 Cycle   1  Pass 0  IDiag  1:
 FoFCou: FMM=F IPFlag=           0 FMFlag=      100000 FMFlg1=           0
         NFxFlg=           0 DoJE=F BraDBF=F KetDBF=F FulRan=T
         Omega=  0.000000  0.000000  1.000000  0.000000  0.000000 ICntrl=       0 IOpCl=  0
         NMat0=    1 NMatS0=    1 NMatT0=    0 NMatD0=    1 NMtDS0=    0 NMtDT0=    0
         I1Cent=           0 NGrid=           0.
 Symmetry not used in FoFCou.
 E= -1228.83636611733    
 DIIS: error= 3.88D-02 at cycle   1 NSaved=   1.
 NSaved= 1 IEnMin= 1 EnMin= -1228.83636611733     IErMin= 1 ErrMin= 3.88D-02
 ErrMax= 3.88D-02 EMaxC= 1.00D-01 BMatC= 9.68D-01 BMatP= 9.68D-01
 IDIUse=3 WtCom= 6.12D-01 WtEn= 3.88D-01
 Coeff-Com:  0.100D+01
 Coeff-En:   0.100D+01
 Coeff:      0.100D+01
 Gap=     0.520 Goal=   None    Shift=    0.000
 GapD=    0.520 DampG=2.000 DampE=0.500 DampFc=1.0000 IDamp=-1.
 RMSDP=5.84D-03 MaxDP=1.69D-01              OVMax= 1.66D-01

 Cycle   2  Pass 0  IDiag  1:
 RMSU=  4.09D-03    CP:  9.67D-01
 E= -1229.50099739261     Delta-E=       -0.664631275275 Rises=F Damp=F
 DIIS: error= 1.75D-02 at cycle   2 NSaved=   2.
 NSaved= 2 IEnMin= 2 EnMin= -1229.50099739261     IErMin= 2 ErrMin= 1.75D-02
 ErrMax= 1.75D-02 EMaxC= 1.00D-01 BMatC= 1.77D-01 BMatP= 9.68D-01
 IDIUse=3 WtCom= 8.25D-01 WtEn= 1.75D-01
 Coeff-Com:  0.249D+00 0.751D+00
 Coeff-En:   0.000D+00 0.100D+01
 Coeff:      0.205D+00 0.795D+00
 Gap=     0.433 Goal=   None    Shift=    0.000
 RMSDP=2.45D-03 MaxDP=8.74D-02 DE=-6.65D-01 OVMax= 1.02D-01

 Cycle   3  Pass 0  IDiag  1:
 RMSU=  1.48D-03    CP:  9.67D-01  7.83D-01
 E= -1229.64239399900     Delta-E=       -0.141396606388 Rises=F Damp=F
 DIIS: error= 8.52D-03 at cycle   3 NSaved=   3.
 NSaved= 3 IEnMin= 3 EnMin= -1229.64239399900     IErMin= 3 ErrMin= 8.52D-03
 ErrMax= 8.52D-03 EMaxC= 1.00D-01 BMatC= 2.83D-02 BMatP= 1.77D-01
 IDIUse=3 WtCom= 9.15D-01 WtEn= 8.52D-02
 Coeff-Com:  0.876D-02 0.273D+00 0.719D+00
 Coeff-En:   0.000D+00 0.000D+00 0.100D+01
 Coeff:      0.802D-02 0.249D+00 0.743D+00
 Gap=     0.396 Goal=   None    Shift=    0.000
 RMSDP=8.19D-04 MaxDP=3.35D-02 DE=-1.41D-01 OVMax= 3.61D-02

 Cycle   4  Pass 0  IDiag  1:
 RMSU=  3.48D-04    CP:  9.68D-01  8.76D-01  8.23D-01
 E= -1229.66727462111     Delta-E=       -0.024880622111 Rises=F Damp=F
 DIIS: error= 2.48D-03 at cycle   4 NSaved=   4.
 NSaved= 4 IEnMin= 4 EnMin= -1229.66727462111     IErMin= 4 ErrMin= 2.48D-03
 ErrMax= 2.48D-03 EMaxC= 1.00D-01 BMatC= 2.41D-03 BMatP= 2.83D-02
 IDIUse=3 WtCom= 9.75D-01 WtEn= 2.48D-02
 Coeff-Com: -0.134D-01 0.248D-01 0.263D+00 0.725D+00
 Coeff-En:   0.000D+00 0.000D+00 0.000D+00 0.100D+01
 Coeff:     -0.131D-01 0.242D-01 0.257D+00 0.732D+00
 Gap=     0.389 Goal=   None    Shift=    0.000
 RMSDP=2.54D-04 MaxDP=9.11D-03 DE=-2.49D-02 OVMax= 8.79D-03

 Cycle   5  Pass 0  IDiag  1:
 RMSU=  1.12D-04    CP:  9.67D-01  8.70D-01  9.03D-01  8.03D-01
 E= -1229.66957645723     Delta-E=       -0.002301836124 Rises=F Damp=F
 DIIS: error= 9.21D-04 at cycle   5 NSaved=   5.
 NSaved= 5 IEnMin= 5 EnMin= -1229.66957645723     IErMin= 5 ErrMin= 9.21D-04
 ErrMax= 9.21D-04 EMaxC= 1.00D-01 BMatC= 7.93D-05 BMatP= 2.41D-03
 IDIUse=3 WtCom= 9.91D-01 WtEn= 9.21D-03
 Coeff-Com: -0.137D-02-0.129D-01-0.134D-01 0.545D-01 0.973D+00
 Coeff-En:   0.000D+00 0.000D+00 0.000D+00 0.000D+00 0.100D+01
 Coeff:     -0.135D-02-0.127D-01-0.133D-01 0.540D-01 0.973D+00
 Gap=     0.389 Goal=   None    Shift=    0.000
 RMSDP=7.59D-05 MaxDP=2.06D-03 DE=-2.30D-03 OVMax= 5.30D-03

 Cycle   6  Pass 0  IDiag  1:
 RMSU=  3.99D-05    CP:  9.67D-01  8.70D-01  9.19D-01  8.52D-01  1.18D+00
 E= -1229.66978594731     Delta-E=       -0.000209490080 Rises=F Damp=F
 DIIS: error= 3.27D-04 at cycle   6 NSaved=   6.
 NSaved= 6 IEnMin= 6 EnMin= -1229.66978594731     IErMin= 6 ErrMin= 3.27D-04
 ErrMax= 3.27D-04 EMaxC= 1.00D-01 BMatC= 2.15D-05 BMatP= 7.93D-05
 IDIUse=3 WtCom= 9.97D-01 WtEn= 3.27D-03
 Coeff-Com:  0.232D-02-0.684D-02-0.485D-01-0.146D+00 0.145D+00 0.105D+01
 Coeff-En:   0.000D+00 0.000D+00 0.000D+00 0.000D+00 0.000D+00 0.100D+01
 Coeff:      0.231D-02-0.681D-02-0.484D-01-0.146D+00 0.144D+00 0.105D+01
 Gap=     0.390 Goal=   None    Shift=    0.000
 RMSDP=5.06D-05 MaxDP=1.62D-03 DE=-2.09D-04 OVMax= 3.04D-03

 Cycle   7  Pass 0  IDiag  1:
 RMSU=  1.54D-05    CP:  9.66D-01  8.69D-01  9.30D-01  8.63D-01  1.41D+00
                    CP:  1.19D+00
 E= -1229.66985189710     Delta-E=       -0.000065949789 Rises=F Damp=F
 DIIS: error= 1.91D-04 at cycle   7 NSaved=   7.
 NSaved= 7 IEnMin= 7 EnMin= -1229.66985189710     IErMin= 7 ErrMin= 1.91D-04
 ErrMax= 1.91D-04 EMaxC= 1.00D-01 BMatC= 2.69D-06 BMatP= 2.15D-05
 IDIUse=3 WtCom= 9.98D-01 WtEn= 1.91D-03
 Coeff-Com:  0.290D-04 0.175D-02 0.620D-02-0.438D-02-0.109D+00-0.751D-01
 Coeff-Com:  0.118D+01
 Coeff-En:   0.000D+00 0.000D+00 0.000D+00 0.000D+00 0.000D+00 0.000D+00
 Coeff-En:   0.100D+01
 Coeff:      0.290D-04 0.174D-02 0.619D-02-0.437D-02-0.109D+00-0.749D-01
 Coeff:      0.118D+01
 Gap=     0.390 Goal=   None    Shift=    0.000
 RMSDP=1.90D-05 MaxDP=6.61D-04 DE=-6.59D-05 OVMax= 1.62D-03

 Cycle   8  Pass 0  IDiag  1:
 RMSU=  5.78D-06    CP:  9.66D-01  8.68D-01  9.31D-01  8.62D-01  1.47D+00
                    CP:  1.36D+00  1.40D+00
 E= -1229.66986201719     Delta-E=       -0.000010120086 Rises=F Damp=F
 DIIS: error= 6.75D-05 at cycle   8 NSaved=   8.
 NSaved= 8 IEnMin= 8 EnMin= -1229.66986201719     IErMin= 8 ErrMin= 6.75D-05
 ErrMax= 6.75D-05 EMaxC= 1.00D-01 BMatC= 6.08D-07 BMatP= 2.69D-06
 IDIUse=1 WtCom= 1.00D+00 WtEn= 0.00D+00
 Coeff-Com: -0.521D-03 0.204D-02 0.136D-01 0.305D-01-0.530D-01-0.266D+00
 Coeff-Com:  0.284D+00 0.990D+00
 Coeff:     -0.521D-03 0.204D-02 0.136D-01 0.305D-01-0.530D-01-0.266D+00
 Coeff:      0.284D+00 0.990D+00
 Gap=     0.390 Goal=   None    Shift=    0.000
 RMSDP=8.40D-06 MaxDP=2.12D-04 DE=-1.01D-05 OVMax= 6.80D-04

 Initial convergence to 1.0D-05 achieved.  Increase integral accuracy.
 Cycle   9  Pass 1  IDiag  1:
 E= -1229.66986502001     Delta-E=       -0.000003002821 Rises=F Damp=F
 DIIS: error= 7.20D-05 at cycle   1 NSaved=   1.
 NSaved= 1 IEnMin= 1 EnMin= -1229.66986502001     IErMin= 1 ErrMin= 7.20D-05
 ErrMax= 7.20D-05 EMaxC= 1.00D-01 BMatC= 1.21D-06 BMatP= 1.21D-06
 IDIUse=1 WtCom= 1.00D+00 WtEn= 0.00D+00
 Coeff-Com:  0.100D+01
 Coeff:      0.100D+01
 Gap=     0.390 Goal=   None    Shift=    0.000
 RMSDP=8.40D-06 MaxDP=2.12D-04 DE=-3.00D-06 OVMax= 1.93D-04

 Cycle  10  Pass 1  IDiag  1:
 RMSU=  3.61D-05    CP:  1.00D+00
 E= -1229.66986633311     Delta-E=       -0.000001313104 Rises=F Damp=F
 DIIS: error= 1.52D-05 at cycle   2 NSaved=   2.
 NSaved= 2 IEnMin= 2 EnMin= -1229.66986633311     IErMin= 2 ErrMin= 1.52D-05
 ErrMax= 1.52D-05 EMaxC= 1.00D-01 BMatC= 3.38D-08 BMatP= 1.21D-06
 IDIUse=1 WtCom= 1.00D+00 WtEn= 0.00D+00
 Coeff-Com: -0.238D-01 0.102D+01
 Coeff:     -0.238D-01 0.102D+01
 Gap=     0.390 Goal=   None    Shift=    0.000
 RMSDP=3.12D-06 MaxDP=5.22D-05 DE=-1.31D-06 OVMax= 1.21D-04

 Cycle  11  Pass 1  IDiag  1:
 RMSU=  1.07D-06    CP:  1.00D+00  1.05D+00
 E= -1229.66986641531     Delta-E=       -0.000000082192 Rises=F Damp=F
 DIIS: error= 1.27D-05 at cycle   3 NSaved=   3.
 NSaved= 3 IEnMin= 3 EnMin= -1229.66986641531     IErMin= 3 ErrMin= 1.27D-05
 ErrMax= 1.27D-05 EMaxC= 1.00D-01 BMatC= 1.81D-08 BMatP= 3.38D-08
 IDIUse=1 WtCom= 1.00D+00 WtEn= 0.00D+00
 Coeff-Com: -0.285D-01 0.381D+00 0.648D+00
 Coeff:     -0.285D-01 0.381D+00 0.648D+00
 Gap=     0.390 Goal=   None    Shift=    0.000
 RMSDP=6.16D-07 MaxDP=2.22D-05 DE=-8.22D-08 OVMax= 5.65D-05

 Cycle  12  Pass 1  IDiag  1:
 RMSU=  4.21D-07    CP:  1.00D+00  1.06D+00  9.92D-01
 E= -1229.66986644649     Delta-E=       -0.000000031187 Rises=F Damp=F
 DIIS: error= 7.16D-06 at cycle   4 NSaved=   4.
 NSaved= 4 IEnMin= 4 EnMin= -1229.66986644649     IErMin= 4 ErrMin= 7.16D-06
 ErrMax= 7.16D-06 EMaxC= 1.00D-01 BMatC= 4.42D-09 BMatP= 1.81D-08
 IDIUse=1 WtCom= 1.00D+00 WtEn= 0.00D+00
 Coeff-Com:  0.281D-01-0.665D+00-0.399D+00 0.204D+01
 Coeff:      0.281D-01-0.665D+00-0.399D+00 0.204D+01
 Gap=     0.390 Goal=   None    Shift=    0.000
 RMSDP=1.11D-06 MaxDP=2.63D-05 DE=-3.12D-08 OVMax= 1.41D-04

 Cycle  13  Pass 1  IDiag  1:
 RMSU=  3.16D-07    CP:  1.00D+00  1.06D+00  1.50D+00  2.13D+00
 E= -1229.66986647673     Delta-E=       -0.000000030238 Rises=F Damp=F
 DIIS: error= 1.69D-06 at cycle   5 NSaved=   5.
 NSaved= 5 IEnMin= 5 EnMin= -1229.66986647673     IErMin= 5 ErrMin= 1.69D-06
 ErrMax= 1.69D-06 EMaxC= 1.00D-01 BMatC= 3.07D-10 BMatP= 4.42D-09
 IDIUse=1 WtCom= 1.00D+00 WtEn= 0.00D+00
 Coeff-Com:  0.946D-02-0.196D+00-0.141D+00 0.476D+00 0.851D+00
 Coeff:      0.946D-02-0.196D+00-0.141D+00 0.476D+00 0.851D+00
 Gap=     0.390 Goal=   None    Shift=    0.000
 RMSDP=1.82D-07 MaxDP=4.94D-06 DE=-3.02D-08 OVMax= 2.29D-05

 Cycle  14  Pass 1  IDiag  1:
 RMSU=  6.99D-08    CP:  1.00D+00  1.06D+00  1.55D+00  2.30D+00  1.18D+00
 E= -1229.66986647785     Delta-E=       -0.000000001115 Rises=F Damp=F
 DIIS: error= 5.38D-07 at cycle   6 NSaved=   6.
 NSaved= 6 IEnMin= 6 EnMin= -1229.66986647785     IErMin= 6 ErrMin= 5.38D-07
 ErrMax= 5.38D-07 EMaxC= 1.00D-01 BMatC= 5.13D-11 BMatP= 3.07D-10
 IDIUse=1 WtCom= 1.00D+00 WtEn= 0.00D+00
 Coeff-Com: -0.406D-02 0.976D-01 0.683D-01-0.330D+00 0.575D-01 0.111D+01
 Coeff:     -0.406D-02 0.976D-01 0.683D-01-0.330D+00 0.575D-01 0.111D+01
 Gap=     0.390 Goal=   None    Shift=    0.000
 RMSDP=8.57D-08 MaxDP=1.75D-06 DE=-1.11D-09 OVMax= 9.68D-06

 Cycle  15  Pass 1  IDiag  1:
 RMSU=  3.16D-08    CP:  1.00D+00  1.06D+00  1.56D+00  2.35D+00  1.31D+00
                    CP:  1.18D+00
 E= -1229.66986647804     Delta-E=       -0.000000000196 Rises=F Damp=F
 DIIS: error= 1.93D-07 at cycle   7 NSaved=   7.
 NSaved= 7 IEnMin= 7 EnMin= -1229.66986647804     IErMin= 7 ErrMin= 1.93D-07
 ErrMax= 1.93D-07 EMaxC= 1.00D-01 BMatC= 7.72D-12 BMatP= 5.13D-11
 IDIUse=1 WtCom= 1.00D+00 WtEn= 0.00D+00
 Coeff-Com: -0.134D-02 0.283D-01 0.260D-01-0.795D-01-0.106D+00 0.662D-01
 Coeff-Com:  0.107D+01
 Coeff:     -0.134D-02 0.283D-01 0.260D-01-0.795D-01-0.106D+00 0.662D-01
 Coeff:      0.107D+01
 Gap=     0.390 Goal=   None    Shift=    0.000
 RMSDP=2.64D-08 MaxDP=8.30D-07 DE=-1.96D-10 OVMax= 2.65D-06

 Cycle  16  Pass 1  IDiag  1:
 RMSU=  1.15D-08    CP:  1.00D+00  1.06D+00  1.56D+00  2.36D+00  1.32D+00
                    CP:  1.32D+00  1.27D+00
 E= -1229.66986647808     Delta-E=       -0.000000000035 Rises=F Damp=F
 DIIS: error= 1.03D-07 at cycle   8 NSaved=   8.
 NSaved= 8 IEnMin= 8 EnMin= -1229.66986647808     IErMin= 8 ErrMin= 1.03D-07
 ErrMax= 1.03D-07 EMaxC= 1.00D-01 BMatC= 1.83D-12 BMatP= 7.72D-12
 IDIUse=1 WtCom= 1.00D+00 WtEn= 0.00D+00
 Coeff-Com:  0.516D-03-0.137D-01-0.544D-02 0.480D-01-0.468D-01-0.230D+00
 Coeff-Com:  0.329D+00 0.919D+00
 Coeff:      0.516D-03-0.137D-01-0.544D-02 0.480D-01-0.468D-01-0.230D+00
 Coeff:      0.329D+00 0.919D+00
 Gap=     0.390 Goal=   None    Shift=    0.000
 RMSDP=1.24D-08 MaxDP=3.26D-07 DE=-3.46D-11 OVMax= 1.16D-06

 Cycle  17  Pass 1  IDiag  1:
 RMSU=  4.96D-09    CP:  1.00D+00  1.06D+00  1.56D+00  2.36D+00  1.32D+00
                    CP:  1.36D+00  1.47D+00  1.06D+00
 E= -1229.66986647811     Delta-E=       -0.000000000035 Rises=F Damp=F
 DIIS: error= 5.21D-08 at cycle   9 NSaved=   9.
 NSaved= 9 IEnMin= 9 EnMin= -1229.66986647811     IErMin= 9 ErrMin= 5.21D-08
 ErrMax= 5.21D-08 EMaxC= 1.00D-01 BMatC= 1.75D-13 BMatP= 1.83D-12
 IDIUse=1 WtCom= 1.00D+00 WtEn= 0.00D+00
 Coeff-Com:  0.616D-04-0.981D-03-0.820D-03 0.543D-03 0.160D-01 0.210D-01
 Coeff-Com: -0.141D+00-0.109D+00 0.121D+01
 Coeff:      0.616D-04-0.981D-03-0.820D-03 0.543D-03 0.160D-01 0.210D-01
 Coeff:     -0.141D+00-0.109D+00 0.121D+01
 Gap=     0.390 Goal=   None    Shift=    0.000
 RMSDP=5.32D-09 MaxDP=1.77D-07 DE=-3.50D-11 OVMax= 5.43D-07

 SCF Done:  E(RHF) =  -1229.66986648     A.U. after   17 cycles
             Convg  =    0.5323D-08             -V/T =  2.0005
 KE= 1.229114672226D+03 PE=-7.814605556512D+03 EE= 2.882671653769D+03
 Leave Link  502 at Fri Aug 26 23:20:04 2022, MaxMem=  209715200 cpu:     499.1
 (Enter /opt/gaussian/l601.exe)
 Copying SCF densities to generalized density rwf, IOpCl= 0 IROHF=0.

 **********************************************************************

            Population analysis using the SCF density.

 **********************************************************************

 Orbital symmetries:
       Occupied  (A) (A) (A) (A) (A) (A) (A) (A) (A) (A) (A) (A)
                 (A) (A) (A) (A) (A) (A) (A) (A) (A) (A) (A) (A)
                 (A) (A) (A) (A) (A) (A) (A) (A) (A) (A) (A) (A)
                 (A) (A) (A) (A) (A) (A) (A) (A) (A) (A) (A) (A)
                 (A) (A) (A) (A) (A) (A) (A) (A) (A) (A) (A) (A)
                 (A) (A) (A) (A) (A) (A) (A) (A) (A) (A) (A) (A)
                 (A) (A) (A) (A) (A) (A) (A) (A) (A) (A) (A) (A)
                 (A) (A) (A) (A) (A) (A) (A) (A) (A) (A) (A) (A)
                 (A) (A) (A) (A) (A)
       Virtual   (A) (A) (A) (A) (A) (A) (A) (A) (A) (A) (A) (A)
                 (A) (A) (A) (A) (A) (A) (A) (A) (A) (A) (A) (A)
                 (A) (A) (A) (A) (A) (A) (A) (A) (A) (A) (A) (A)
                 (A) (A) (A) (A) (A) (A) (A) (A) (A) (A) (A) (A)
                 (A) (A) (A) (A) (A) (A) (A) (A) (A) (A) (A) (A)
                 (A) (A) (A) (A) (A) (A) (A) (A) (A) (A) (A) (A)
                 (A) (A) (A) (A) (A) (A) (A) (A) (A) (A) (A) (A)
                 (A) (A) (A) (A) (A) (A) (A) (A) (A) (A) (A) (A)
                 (A) (A) (A) (A) (A) (A) (A) (A) (A) (A) (A) (A)
                 (A) (A) (A) (A) (A) (A) (A) (A) (A) (A) (A) (A)
                 (A) (A) (A) (A) (A) (A) (A) (A) (A) (A) (A) (A)
                 (A) (A) (A) (A) (A) (A) (A) (A) (A) (A) (A) (A)
                 (A) (A) (A) (A) (A) (A) (A) (A) (A) (A) (A) (A)
                 (A) (A) (A) (A) (A) (A) (A) (A) (A) (A) (A) (A)
                 (A) (A) (A) (A) (A) (A) (A) (A) (A) (A) (A) (A)
                 (A) (A) (A) (A) (A) (A) (A) (A) (A) (A) (A) (A)
                 (A) (A) (A) (A) (A) (A) (A) (A) (A) (A)
 The electronic state is 1-A.
 Alpha  occ. eigenvalues --  -20.55469 -15.67409 -15.65961 -15.62532 -15.62409
 Alpha  occ. eigenvalues --  -15.58110 -11.39659 -11.33134 -11.31056 -11.30681
 Alpha  occ. eigenvalues --  -11.30148 -11.28526 -11.28468 -11.28454 -11.27064
[...]
     1  O    0.001508   0.000000   0.000000  -0.000001   0.001143   0.000096
     2  C   -0.054186   0.000000   0.000000  -0.000001   0.000414  -0.000658
     3  C    0.402613   0.000001   0.000000   0.000001   0.000102  -0.000983
     4  N   -0.049033  -0.000108  -0.000006  -0.000101  -0.002968  -0.000003
     5  N    0.001195  -0.000084   0.000002   0.000001   0.000000  -0.000036
     6  N   -0.000112   0.001113  -0.000066  -0.000004  -0.000106   0.000000
     7  C    0.000083  -0.020335   0.002806   0.000468   0.000886   0.000000
     8  C   -0.000005   0.361841  -0.020020   0.002355   0.000181   0.000000
     9  C   -0.000002  -0.020618   0.374823  -0.024490   0.002007   0.000000
    10  C   -0.000014   0.002058  -0.026332   0.373847  -0.016261   0.000000
    11  C    0.000000   0.000027   0.002580  -0.022882   0.371736   0.000001
    12  C    0.000892   0.003132   0.000372   0.002801  -0.030734  -0.000008
    13  N    0.005511   0.000000   0.000000   0.000000  -0.000024  -0.054232
    14  C   -0.002158   0.000000   0.000000   0.000000  -0.000001   0.412996
    15  C    0.001054   0.000000   0.000000   0.000000   0.000005  -0.053844
    16  C    0.000027   0.000000   0.000000   0.000000   0.000000  -0.003545
    17  C   -0.000018   0.000000   0.000000   0.000000   0.000000   0.004257
    18  C   -0.000323   0.000000   0.000000   0.000000   0.000001   0.004228
    19  C    0.000039   0.000000   0.000000   0.000000   0.000003  -0.000108
    20  C    0.000000   0.000000   0.000000   0.000000   0.000000   0.000000
    21  C    0.000000   0.000000   0.000000   0.000000   0.000000   0.000000
    22  C    0.000000   0.000000   0.000000   0.000000   0.000000  -0.000005
    23  C   -0.000007   0.000000   0.000000   0.000000   0.000000   0.000157
    24  C    0.000000   0.000000   0.000000   0.000000   0.000000   0.000000
    25  C    0.000000   0.000000   0.000000   0.000000   0.000000   0.000000
    26  C    0.000000   0.000000   0.000000   0.000000   0.000000   0.000000
    27  C    0.000000   0.000000   0.000000   0.000000   0.000000   0.000000
    28  N    0.000000   0.000000   0.000000   0.000000   0.000000   0.000000
    29  C    0.000000   0.000000   0.000000   0.000000   0.000000   0.000000
    30  H   -0.018134   0.000000   0.000000   0.000000   0.000016   0.001138
    31  H    0.492024   0.000000   0.000000   0.000000   0.000053  -0.002157
    32  H    0.000000   0.432876  -0.000104  -0.000089   0.000009   0.000000
    33  H    0.000000  -0.000104   0.462712  -0.000272  -0.000099   0.000000
    34  H    0.000000  -0.000089  -0.000272   0.465040  -0.000172   0.000000
    35  H    0.000053   0.000009  -0.000099  -0.000172   0.452890   0.000000
    36  H   -0.002157   0.000000   0.000000   0.000000   0.000000   0.538560
    37  H    0.000097   0.000000   0.000000   0.000000   0.000000  -0.025088
    38  H    0.001791   0.000000   0.000000   0.000000   0.000019  -0.001816
    39  H   -0.000003   0.000000   0.000000   0.000000   0.000000   0.000087
    40  H   -0.000001   0.000000   0.000000   0.000000   0.000000   0.000911
    41  H    0.000001   0.000000   0.000000   0.000000   0.000000   0.000025
    42  H    0.000000   0.000000   0.000000   0.000000   0.000000  -0.000073
    43  H   -0.000005   0.000000   0.000000   0.000000   0.000028   0.000008
    44  H    0.000000   0.000000   0.000000   0.000000   0.000000   0.000000
    45  H    0.000000   0.000000   0.000000   0.000000   0.000000   0.000000
    46  H    0.000000   0.000000   0.000000   0.000000   0.000000  -0.000007
    47  H    0.000000   0.000000   0.000000   0.000000   0.000000   0.000000
    48  H    0.000000   0.000000   0.000000   0.000000   0.000000   0.000000
    49  H    0.000000   0.000000   0.000000   0.000000   0.000000   0.000000
    50  H    0.000000   0.000000   0.000000   0.000000   0.000000   0.000000
             37         38         39         40         41         42
     1  O   -0.000043  -0.000030   0.000000   0.000000   0.000000   0.000000
     2  C    0.001564   0.000557   0.000000   0.000000   0.000013   0.000003
     3  C    0.000096   0.000002   0.000000   0.000000   0.000001   0.000000
     4  N   -0.000006  -0.000029   0.000000   0.000000   0.000000   0.000000
     5  N    0.000000   0.000000   0.000000   0.000000   0.000000   0.000000
     6  N    0.000000   0.000000   0.000000   0.000000   0.000000   0.000000
     7  C    0.000000   0.000000   0.000000   0.000000   0.000000   0.000000
     8  C    0.000000   0.000000   0.000000   0.000000   0.000000   0.000000
     9  C    0.000000   0.000000   0.000000   0.000000   0.000000   0.000000
    10  C    0.000000   0.000000   0.000000   0.000000   0.000000   0.000000
    11  C    0.000000  -0.000001   0.000000   0.000000   0.000000   0.000000
    12  C    0.000000   0.000002   0.000000   0.000000   0.000000   0.000000
    13  N   -0.045894  -0.001368  -0.000080   0.000016   0.000495   0.000107
    14  C    0.423685  -0.025282   0.001526  -0.003751  -0.003351   0.001551
    15  C   -0.059442   0.392248  -0.023263  -0.029725  -0.029614  -0.025665
    16  C    0.005265  -0.019760   0.391216   0.393198  -0.024105  -0.023740
    17  C   -0.001193  -0.021112  -0.022049  -0.024819   0.394961   0.394104
    18  C   -0.000174  -0.000258  -0.000002   0.000009   0.000761  -0.000008
    19  C    0.000304   0.000102   0.000000   0.000001   0.000176   0.000035
    20  C   -0.000006   0.000004   0.000000   0.000000   0.000049  -0.000008
    21  C   -0.000003   0.000000   0.000000   0.000000   0.000012   0.000000
    22  C   -0.000181   0.000000   0.000000   0.000000   0.000015   0.000000
    23  C    0.000573  -0.000009   0.000000  -0.000004   0.000276   0.000000
    24  C    0.000000   0.000000   0.000000   0.000000  -0.000001   0.000000
    25  C    0.000000   0.000000   0.000000   0.000000   0.000000   0.000000
    26  C    0.000000   0.000000   0.000000   0.000000   0.000000   0.000000
    27  C    0.000000   0.000000   0.000000   0.000000   0.000000   0.000000
    28  N    0.000000   0.000000   0.000000   0.000000   0.000000   0.000000
    29  C    0.000000   0.000000   0.000000   0.000000   0.000000   0.000000
    30  H    0.000079   0.000030   0.000000   0.000001   0.000000   0.000000
    31  H    0.000097   0.001791  -0.000003  -0.000001   0.000001   0.000000
    32  H    0.000000   0.000000   0.000000   0.000000   0.000000   0.000000
    33  H    0.000000   0.000000   0.000000   0.000000   0.000000   0.000000
    34  H    0.000000   0.000000   0.000000   0.000000   0.000000   0.000000
    35  H    0.000000   0.000019   0.000000   0.000000   0.000000   0.000000
    36  H   -0.025088  -0.001816   0.000087   0.000911   0.000025  -0.000073
    37  H    0.504079   0.002736  -0.000048   0.000849   0.001222   0.000010
    38  H    0.002736   0.497610  -0.003363   0.001566   0.001453  -0.003308
    39  H   -0.000048  -0.003363   0.489612  -0.016718   0.001178  -0.003284
    40  H    0.000849   0.001566  -0.016718   0.501604  -0.003474   0.001256
    41  H    0.001222   0.001453   0.001178  -0.003474   0.486055  -0.015238
    42  H    0.000010  -0.003308  -0.003284   0.001256  -0.015238   0.491259
    43  H    0.000004   0.000030   0.000000   0.000001  -0.000011   0.000030
    44  H    0.000000   0.000000   0.000000   0.000000   0.000001   0.000001
    45  H    0.000005   0.000000   0.000000   0.000000   0.000000   0.000000
    46  H    0.000188   0.000000   0.000000   0.000000   0.000005   0.000000
    47  H    0.000000   0.000000   0.000000   0.000000   0.000000   0.000000
    48  H    0.000000   0.000000   0.000000   0.000000   0.000000   0.000000
    49  H    0.000000   0.000000   0.000000   0.000000   0.000000   0.000000
    50  H    0.000000   0.000000   0.000000   0.000000   0.000000   0.000000
             43         44         45         46         47         48
     1  O    0.000099  -0.000002   0.000000  -0.000035   0.000000   0.000000
     2  C    0.000602  -0.000001  -0.000001   0.000271   0.000000   0.000000
     3  C   -0.000064   0.000000   0.000000  -0.000020   0.000000   0.000000
     4  N   -0.000001   0.000000   0.000000   0.000000   0.000000   0.000000
     5  N    0.000000   0.000000   0.000000   0.000000   0.000000   0.000000
     6  N    0.000000   0.000000   0.000000   0.000000   0.000000   0.000000
     7  C    0.000000   0.000000   0.000000   0.000000   0.000000   0.000000
     8  C    0.000000   0.000000   0.000000   0.000000   0.000000   0.000000
     9  C    0.000000   0.000000   0.000000   0.000000   0.000000   0.000000
    10  C    0.000000   0.000000   0.000000   0.000000   0.000000   0.000000
    11  C    0.000001   0.000000   0.000000   0.000000   0.000000   0.000000
    12  C    0.000000   0.000000   0.000000   0.000000   0.000000   0.000000
    13  N   -0.002227  -0.000122  -0.000127  -0.001419   0.000000   0.000000
    14  C   -0.000166   0.000002   0.000002   0.000120   0.000000   0.000000
    15  C    0.000250  -0.000001   0.000000   0.000018   0.000000   0.000000
    16  C   -0.000015   0.000000   0.000000  -0.000001   0.000000   0.000000
    17  C    0.000375  -0.000004   0.000000   0.000000   0.000000   0.000000
    18  C   -0.026401   0.001381   0.001366  -0.028682  -0.000005   0.000000
    19  C    0.371711  -0.015020   0.000416   0.002244   0.000026   0.000000
    20  C   -0.017801   0.369271   0.002048   0.000249   0.001876  -0.000002
    21  C    0.001849  -0.031081  -0.029877   0.001672   0.000673  -0.000091
    22  C    0.000194   0.002174   0.368720  -0.015944   0.000135   0.000001
    23  C    0.002491   0.000387  -0.014885   0.371626  -0.000005   0.000000
    24  C   -0.000143   0.001384   0.001497  -0.000144  -0.029036   0.002212
    25  C    0.000001   0.001436   0.000186   0.000001   0.376795  -0.021394
    26  C    0.000000   0.000010  -0.000014   0.000000  -0.019477   0.365512
    27  C    0.000000   0.000005   0.000003   0.000000   0.001577  -0.015570
    28  N    0.000000   0.000000  -0.000031   0.000000  -0.000105   0.003254
    29  C    0.000001   0.000212   0.001592   0.000000   0.001759   0.000223
    30  H    0.000000   0.000000   0.000000   0.000002   0.000000   0.000000
    31  H   -0.000005   0.000000   0.000000   0.000000   0.000000   0.000000
    32  H    0.000000   0.000000   0.000000   0.000000   0.000000   0.000000
    33  H    0.000000   0.000000   0.000000   0.000000   0.000000   0.000000
    34  H    0.000000   0.000000   0.000000   0.000000   0.000000   0.000000
    35  H    0.000028   0.000000   0.000000   0.000000   0.000000   0.000000
    36  H    0.000008   0.000000   0.000000  -0.000007   0.000000   0.000000
    37  H    0.000004   0.000000   0.000005   0.000188   0.000000   0.000000
    38  H    0.000030   0.000000   0.000000   0.000000   0.000000   0.000000
    39  H    0.000000   0.000000   0.000000   0.000000   0.000000   0.000000
    40  H    0.000001   0.000000   0.000000   0.000000   0.000000   0.000000
    41  H   -0.000011   0.000001   0.000000   0.000005   0.000000   0.000000
    42  H    0.000030   0.000001   0.000000   0.000000   0.000000   0.000000
    43  H    0.451243   0.000050   0.000009  -0.000120   0.000001   0.000000
    44  H    0.000050   0.452994  -0.000130   0.000009   0.000672   0.000002
    45  H    0.000009  -0.000130   0.445039   0.000144   0.000000   0.000000
    46  H   -0.000120   0.000009   0.000144   0.449225   0.000000   0.000000
    47  H    0.000001   0.000672   0.000000   0.000000   0.436621  -0.000507
    48  H    0.000000   0.000002   0.000000   0.000000  -0.000507   0.448754
    49  H    0.000000   0.000000   0.000000   0.000000  -0.000088   0.001654
    50  H    0.000000   0.000008   0.000947   0.000000  -0.000107   0.000012
             49         50
     1  O    0.000000   0.000000
     2  C    0.000000   0.000000
     3  C    0.000000   0.000000
     4  N    0.000000   0.000000
     5  N    0.000000   0.000000
     6  N    0.000000   0.000000
     7  C    0.000000   0.000000
     8  C    0.000000   0.000000
     9  C    0.000000   0.000000
    10  C    0.000000   0.000000
    11  C    0.000000   0.000000
    12  C    0.000000   0.000000
    13  N    0.000000   0.000000
    14  C    0.000000   0.000000
    15  C    0.000000   0.000000
    16  C    0.000000   0.000000
    17  C    0.000000   0.000000
    18  C    0.000000   0.000002
    19  C    0.000000  -0.000018
    20  C    0.000000   0.000198
    21  C    0.000009   0.007442
    22  C    0.000000   0.001501
    23  C    0.000000  -0.000059
    24  C   -0.000817  -0.068315
    25  C    0.002934   0.001999
    26  C   -0.052503  -0.000766
    27  C    0.401270   0.003656
    28  N   -0.041790  -0.036324
    29  C    0.004130   0.406518
    30  H    0.000000   0.000000
    31  H    0.000000   0.000000
    32  H    0.000000   0.000000
    33  H    0.000000   0.000000
    34  H    0.000000   0.000000
    35  H    0.000000   0.000000
    36  H    0.000000   0.000000
    37  H    0.000000   0.000000
    38  H    0.000000   0.000000
    39  H    0.000000   0.000000
    40  H    0.000000   0.000000
    41  H    0.000000   0.000000
    42  H    0.000000   0.000000
    43  H    0.000000   0.000000
    44  H    0.000000   0.000008
    45  H    0.000000   0.000947
    46  H    0.000000   0.000000
    47  H   -0.000088  -0.000107
    48  H    0.001654   0.000012
    49  H    0.473571   0.000037
    50  H    0.000037   0.466588
 Mulliken atomic charges:
              1
     1  O   -0.576378
     2  C    0.793572
     3  C   -0.122454
     4  N   -0.888692
     5  N    0.092424
     6  N   -0.334934
     7  C   -0.022401
     8  C   -0.078956
     9  C   -0.233481
    10  C   -0.207135
    11  C   -0.058836
    12  C    0.493100
    13  N   -0.967189
    14  C   -0.056506
    15  C   -0.200911
    16  C   -0.350590
    17  C   -0.324429
    18  C    0.295199
    19  C   -0.138283
    20  C   -0.211453
    21  C   -0.013068
    22  C   -0.202263
    23  C   -0.172914
    24  C   -0.093383
    25  C   -0.138730
    26  C   -0.245474
    27  C    0.058680
    28  N   -0.533273
    29  C    0.059685
    30  H    0.254180
    31  H    0.219269
    32  H    0.240281
    33  H    0.203604
    34  H    0.203499
    35  H    0.220871
    36  H    0.180097
    37  H    0.191319
    38  H    0.178186
    39  H    0.185189
    40  H    0.179081
    41  H    0.189094
    42  H    0.182969
    43  H    0.217973
    44  H    0.216362
    45  H    0.223093
    46  H    0.220598
    47  H    0.229196
    48  H    0.215940
    49  H    0.211594
    50  H    0.216681
 Sum of Mulliken atomic charges =   0.00000
 Mulliken charges with hydrogens summed into heavy atoms:
              1
     1  O   -0.576378
     2  C    0.793572
     3  C    0.350996
     4  N   -0.888692
     5  N    0.092424
     6  N   -0.334934
     7  C   -0.022401
     8  C    0.161325
     9  C   -0.029877
    10  C   -0.003636
    11  C    0.162035
    12  C    0.493100
    13  N   -0.967189
    14  C    0.314909
    15  C   -0.022725
    16  C    0.013680
    17  C    0.047634
    18  C    0.295199
    19  C    0.079690
    20  C    0.004909
    21  C   -0.013068
    22  C    0.020830
    23  C    0.047683
    24  C   -0.093383
    25  C    0.090465
    26  C   -0.029534
    27  C    0.270274
    28  N   -0.533273
    29  C    0.276367
 Sum of Mulliken charges with hydrogens summed into heavy atoms =   0.00000
 Electronic spatial extent (au):  <R**2>=          16603.1243
 Charge=              0.0000 electrons
 Dipole moment (field-independent basis, Debye):
    X=             -1.0790    Y=              3.2516    Z=              5.2403  Tot=              6.2608
 Quadrupole moment (field-independent basis, Debye-Ang):
   XX=           -201.0118   YY=           -154.3435   ZZ=           -169.9554
   XY=             11.1958   XZ=             14.2429   YZ=            -11.0538
 Traceless Quadrupole moment (field-independent basis, Debye-Ang):
   XX=            -25.9082   YY=             20.7600   ZZ=              5.1482
   XY=             11.1958   XZ=             14.2429   YZ=            -11.0538
 Octapole moment (field-independent basis, Debye-Ang**2):
  XXX=            119.2464  YYY=              6.7120  ZZZ=             32.5489  XYY=             -3.6803
  XXY=           -124.0072  XXZ=            158.4483  XZZ=            -31.8422  YZZ=              8.1460
  YYZ=             14.9390  XYZ=              5.1493
 Hexadecapole moment (field-independent basis, Debye-Ang**3):
 XXXX=         -19941.6435 YYYY=          -3834.1560 ZZZZ=          -1333.1992 XXXY=            250.7172
 XXXZ=             28.6261 YYYX=             99.1860 YYYZ=            -68.8035 ZZZX=            183.0716
 ZZZY=            -39.0529 XXYY=          -3130.3113 XXZZ=          -3508.3073 YYZZ=           -839.4616
 XXYZ=           -261.7484 YYXZ=             -6.2367 ZZXY=            -23.0999
 N-N= 2.489577768369D+03 E-N=-7.849393202669D+03  KE= 1.231055893980D+03
 No NMR shielding tensors so no spin-rotation constants.
 Leave Link  601 at Fri Aug 26 23:46:58 2022, MaxMem=  209715200 cpu:       1.3
 (Enter /opt/gaussian/l9999.exe)
 1\1\GINC-LQCAPF-6\FOpt\RHF\6-31G\C23H21N5O1\LQCAPF-6\26-Aug-2022\0\\#p
  opt hf/6-31G\\Mol23.out\\0,1\O,21.4380937011,-7.058566284,-0.60208592
 24\C,21.9828899912,-7.918394585,0.0757661361\C,23.4235863943,-7.737979
 5773,0.5367220718\N,23.9641922347,-6.4639511368,0.1709716083\N,24.2005
 191576,-5.5383339811,1.1451244197\N,24.6792024947,-4.486994593,0.62353
 90969\C,24.778127904,-4.670896379,-0.7460529256\C,25.2478665916,-3.817
 0499659,-1.7435854603\C,25.231337612,-4.2876444422,-3.0331341225\C,24.
 7490701017,-5.5827011566,-3.3287500964\C,24.280126586,-6.4278975946,-2
 .3522709431\C,24.3079277701,-5.9444964932,-1.0413290557\N,21.354368913
 2,-9.075511472,0.4373879471\C,21.9912379389,-10.1678961225,1.191469216
 2\C,22.5566123258,-11.2625939653,0.3169853252\C,22.7900082668,-12.6315
 60737,0.9050981687\C,21.7035497745,-12.4272597316,-0.1146797948\C,19.9
 90922251,-9.2731801467,0.029371836\C,19.6813260002,-9.5977490268,-1.28
 22685008\C,18.3648173045,-9.8092147906,-1.6541212939\C,17.3307353119,-
 9.7034385422,-0.7244039403\C,17.6552063074,-9.3732919082,0.5899043396\
 C,18.9722297444,-9.1557648128,0.9620292784\C,15.9198820104,-9.93047508
 66,-1.1264776859\C,15.3923638216,-9.3828494383,-2.2942474883\C,14.0687
 145893,-9.621569363,-2.6274767256\C,13.2987912191,-10.4026122451,-1.78
 14021264\N,13.7938686389,-10.9314438859,-0.6642264063\C,15.0645850361,
 -10.7049444591,-0.3452627597\H,23.4823783659,-7.7870179495,1.613134577
 1\H,24.0420743851,-8.5300842067,0.131722861\H,25.6033715737,-2.8369457
 ,-1.4973603717\H,25.5813871336,-3.6682408891,-3.8350696671\H,24.742224
 8179,-5.9089218876,-4.350751899\H,23.8899004296,-7.3958431664,-2.59190
 9169\H,22.7685793132,-9.7639030552,1.823429878\H,21.2442749567,-10.580
 6883254,1.856895606\H,23.2875158696,-10.9216923343,-0.3944485793\H,23.
 6741438217,-13.166085804,0.6177093955\H,22.4989652526,-12.8011710676,1
 .9249635318\H,20.6841621394,-12.4582343281,0.2179876324\H,21.846081181
 4,-12.8238338886,-1.101035672\H,20.4667480803,-9.6797232798,-2.0063887
 148\H,18.1418496695,-10.0761798481,-2.668908624\H,16.8761545504,-9.255
 4615272,1.3176546018\H,19.2068985764,-8.8751866351,1.9706394753\H,16.0
 041963915,-8.7630629577,-2.9205676827\H,13.6417974818,-9.2041344207,-3
 .5172402362\H,12.2708039527,-10.6113393453,-1.9942257418\H,15.41503206
 43,-11.1690874611,0.5540746025\\Version=EM64L-G09RevC.01\State=1-A\HF=
 -1229.7118394\RMSD=4.529e-09\RMSF=4.505e-06\Dipole=0.6243103,-2.096688
 9,-1.1320302\Quadrupole=-3.8342205,-10.0373875,13.8716081,-17.1230393,
 -0.5103458,-10.6543187\PG=C01 [X(C23H21N5O1)]\\@


 Not by the face shall a man be known, but by the mask.
                               -- Karen Blixen
 Job cpu time:  0 days  3 hours 42 minutes 13.5 seconds.
 File lengths (MBytes):  RWF=     64 Int=      0 D2E=      0 Chk=     10 Scr=      1
 Normal termination of Gaussian 09 at Fri Aug 26 23:46:58 2022.
