 Entering Gaussian System, Link 0=g09
 Input=Mol38.gjf
 Output=Mol38.log
 Initial command:
 /opt/gaussian/l1.exe /home/scr/lqcapf-6/Gau-320496.inp -scrdir=/home/scr/lqcapf-6/
 Entering Link 1 = /opt/gaussian/l1.exe PID=    320498.
  
 Copyright (c) 1988,1990,1992,1993,1995,1998,2003,2009,2011,
            Gaussian, Inc.  All Rights Reserved.
  
 This is part of the Gaussian(R) 09 program.  It is based on
 the Gaussian(R) 03 system (copyright 2003, Gaussian, Inc.),
 the Gaussian(R) 98 system (copyright 1998, Gaussian, Inc.),
 the Gaussian(R) 94 system (copyright 1995, Gaussian, Inc.),
 the Gaussian 92(TM) system (copyright 1992, Gaussian, Inc.),
 the Gaussian 90(TM) system (copyright 1990, Gaussian, Inc.),
 the Gaussian 88(TM) system (copyright 1988, Gaussian, Inc.),
 the Gaussian 86(TM) system (copyright 1986, Carnegie Mellon
 University), and the Gaussian 82(TM) system (copyright 1983,
 Carnegie Mellon University). Gaussian is a federally registered
 trademark of Gaussian, Inc.
  
 This software contains proprietary and confidential information,
 including trade secrets, belonging to Gaussian, Inc.
  
 This software is provided under written license and may be
 used, copied, transmitted, or stored only in accord with that
 written license.
  
 The following legend is applicable only to US Government
 contracts under FAR:
  
                    RESTRICTED RIGHTS LEGEND
  
 Use, reproduction and disclosure by the US Government is
 subject to restrictions as set forth in subparagraphs (a)
 and (c) of the Commercial Computer Software - Restricted
 Rights clause in FAR 52.227-19.
  
 Gaussian, Inc.
 340 Quinnipiac St., Bldg. 40, Wallingford CT 06492
  
  
 ---------------------------------------------------------------
 Warning -- This program may not be used in any manner that
 competes with the business of Gaussian, Inc. or will provide
 assistance to any competitor of Gaussian, Inc.  The licensee
 of this program is prohibited from giving any competitor of
 Gaussian, Inc. access to this program.  By using this program,
 the user acknowledges that Gaussian, Inc. is engaged in the
 business of creating and licensing software in the field of
 computational chemistry and represents and warrants to the
 licensee that it is not a competitor of Gaussian, Inc. and that
 it will not use this program in any manner prohibited above.
 ---------------------------------------------------------------
  

 Cite this work as:
 Gaussian 09, Revision C.01,
 M. J. Frisch, G. W. Trucks, H. B. Schlegel, G. E. Scuseria, 
 M. A. Robb, J. R. Cheeseman, G. Scalmani, V. Barone, B. Mennucci, 
 G. A. Petersson, H. Nakatsuji, M. Caricato, X. Li, H. P. Hratchian, 
 A. F. Izmaylov, J. Bloino, G. Zheng, J. L. Sonnenberg, M. Hada, 
 M. Ehara, K. Toyota, R. Fukuda, J. Hasegawa, M. Ishida, T. Nakajima, 
 Y. Honda, O. Kitao, H. Nakai, T. Vreven, J. A. Montgomery, Jr., 
 J. E. Peralta, F. Ogliaro, M. Bearpark, J. J. Heyd, E. Brothers, 
 K. N. Kudin, V. N. Staroverov, T. Keith, R. Kobayashi, J. Normand, 
 K. Raghavachari, A. Rendell, J. C. Burant, S. S. Iyengar, J. Tomasi, 
 M. Cossi, N. Rega, J. M. Millam, M. Klene, J. E. Knox, J. B. Cross, 
 V. Bakken, C. Adamo, J. Jaramillo, R. Gomperts, R. E. Stratmann, 
 O. Yazyev, A. J. Austin, R. Cammi, C. Pomelli, J. W. Ochterski, 
 R. L. Martin, K. Morokuma, V. G. Zakrzewski, G. A. Voth, 
 P. Salvador, J. J. Dannenberg, S. Dapprich, A. D. Daniels, 
 O. Farkas, J. B. Foresman, J. V. Ortiz, J. Cioslowski, 
 and D. J. Fox, Gaussian, Inc., Wallingford CT, 2010.
 
 ******************************************
 Gaussian 09:  EM64L-G09RevC.01 23-Sep-2011
                27-Aug-2022 
 ******************************************
 %nprocshared=8
 Will use up to    8 processors via shared memory.
 %mem=1600MB
 ---------------
 #p opt hf/6-31G
 ---------------
 1/18=20,19=15,38=1/1,3;
 2/9=110,12=2,17=6,18=5,40=1/2;
 3/5=1,6=6,11=9,16=1,25=1,30=1,71=1/1,2,3;
 4//1;
 5/5=2,38=5/2;
 6/7=2,8=2,9=2,10=2,28=1/1;
 7//1,2,3,16;
 1/18=20,19=15/3(2);
 2/9=110/2;
 99//99;
 2/9=110/2;
 3/5=1,6=6,11=9,16=1,25=1,30=1,71=1/1,2,3;
 4/5=5,16=3/1;
 5/5=2,38=5/2;
 7//1,2,3,16;
 1/18=20,19=15/3(-5);
 2/9=110/2;
 6/7=2,8=2,9=2,10=2,19=2,28=1/1;
 99/9=1/99;
 Leave Link    1 at Sat Aug 27 10:32:25 2022, MaxMem=  209715200 cpu:       0.1
 (Enter /opt/gaussian/l101.exe)
 ---------
 Mol38.out
 ---------
 Charge =  0 Multiplicity = 1
 Symbolic Z-Matrix:
 C                     18.1633  -6.4838   -0.6496 
 O                     18.4312  -7.8127   -0.1958 
 C                     18.0111  -8.8083   -1.0631 
 C                     16.6552  -8.9389   -1.381 
 C                     16.2021  -10.0204  -2.1458 
 C                     17.1347  -10.9725  -2.5881 
 C                     18.4835  -10.8422  -2.2901 
 C                     18.9611  -9.7517   -1.5331 
 N                     20.3439  -9.6437   -1.2281 
 C                     20.9522  -10.758   -0.5435 
 C                     21.8992  -11.6194  -1.337 
 C                     22.7887  -12.4293  -0.6167 
 C                     23.6637  -13.2812  -1.285 
 C                     23.6653  -13.3394  -2.6786 
 C                     22.7744  -12.5359  -3.3949 
 C                     21.8907  -11.6763  -2.7322 
 Cl                    22.7574  -12.603   -5.093 
 C                     21.0646  -8.4954   -1.5666 
 O                     20.5596  -7.5983   -2.2588 
 C                     22.4986  -8.4013   -1.0153 
 N                     23.289   -7.3228   -1.5423 
 N                     23.132   -6.0029   -1.2072 
 N                     23.806   -5.2435   -1.9473 
 C                     24.4787  -6.0222   -2.9428 
 C                     25.3523  -5.7041   -3.9833 
 C                     25.8361  -6.7523   -4.7581 
 C                     25.4703  -8.087    -4.5129 
 C                     24.6067  -8.4388   -3.482 
 C                     24.1102  -7.4003   -2.6916 
 C                     14.8079  -10.1568  -2.4628 
 C                     13.7696  -9.1476   -2.3363 
 N                     12.5761  -9.6532   -2.734 
 N                     12.7963  -10.9175  -3.1017 
 C                     14.1321  -11.2889  -2.9637 
 H                     18.5804  -5.8424    0.1664 
 H                     18.6908  -6.2936   -1.6161 
 H                     17.0643  -6.3212   -0.7573 
 H                     15.9417  -8.1889   -1.0076 
 H                     16.7951  -11.8303  -3.1875 
 H                     19.19    -11.6066  -2.653 
 H                     21.5035  -10.3654   0.363 
 H                     20.1266  -11.4339  -0.1665 
 H                     22.79    -12.3952   0.4835 
 H                     24.3585  -13.914   -0.7122 
 H                     24.3589  -14.0118  -3.2055 
 H                     21.1964  -11.0534  -3.3196 
 H                     22.4167  -8.2712    0.1041 
 H                     23.0517  -9.358    -1.2463 
 H                     25.6447  -4.6624   -4.1773 
 H                     26.5239  -6.535    -5.5894 
 H                     25.8798  -8.8789   -5.1595 
 H                     24.3245  -9.4843   -3.3024 
 H                     13.8807  -8.1208   -1.9877 
 H                     14.4917  -12.2855  -3.2149 
 H                     12.0483  -11.4824  -3.4276 
 
 NAtoms=     55 NQM=        0 NQMF=       0 NMMI=     55 NMMIF=      0
                NMic=       0 NMicF=      0.
                    Isotopes and Nuclear Properties:
 (Nuclear quadrupole moments (NQMom) in fm**2, nuclear magnetic moments (NMagM)
  in nuclear magnetons)

  Atom         1           2           3           4           5           6           7           8           9          10
 IAtWgt=          12          16          12          12          12          12          12          12          14          12
 AtmWgt=  12.0000000  15.9949146  12.0000000  12.0000000  12.0000000  12.0000000  12.0000000  12.0000000  14.0030740  12.0000000
 NucSpn=           0           0           0           0           0           0           0           0           2           0
 AtZEff=   0.0000000   0.0000000   0.0000000   0.0000000   0.0000000   0.0000000   0.0000000   0.0000000   0.0000000   0.0000000
 NQMom=    0.0000000   0.0000000   0.0000000   0.0000000   0.0000000   0.0000000   0.0000000   0.0000000   2.0440000   0.0000000
 NMagM=    0.0000000   0.0000000   0.0000000   0.0000000   0.0000000   0.0000000   0.0000000   0.0000000   0.4037610   0.0000000

  Atom        11          12          13          14          15          16          17          18          19          20
 IAtWgt=          12          12          12          12          12          12          35          12          16          12
 AtmWgt=  12.0000000  12.0000000  12.0000000  12.0000000  12.0000000  12.0000000  34.9688527  12.0000000  15.9949146  12.0000000
 NucSpn=           0           0           0           0           0           0           3           0           0           0
 AtZEff=   0.0000000   0.0000000   0.0000000   0.0000000   0.0000000   0.0000000   0.0000000   0.0000000   0.0000000   0.0000000
 NQMom=    0.0000000   0.0000000   0.0000000   0.0000000   0.0000000   0.0000000  -8.1650000   0.0000000   0.0000000   0.0000000
 NMagM=    0.0000000   0.0000000   0.0000000   0.0000000   0.0000000   0.0000000   0.8218740   0.0000000   0.0000000   0.0000000

  Atom        21          22          23          24          25          26          27          28          29          30
 IAtWgt=          14          14          14          12          12          12          12          12          12          12
 AtmWgt=  14.0030740  14.0030740  14.0030740  12.0000000  12.0000000  12.0000000  12.0000000  12.0000000  12.0000000  12.0000000
 NucSpn=           2           2           2           0           0           0           0           0           0           0
 AtZEff=   0.0000000   0.0000000   0.0000000   0.0000000   0.0000000   0.0000000   0.0000000   0.0000000   0.0000000   0.0000000
 NQMom=    2.0440000   2.0440000   2.0440000   0.0000000   0.0000000   0.0000000   0.0000000   0.0000000   0.0000000   0.0000000
 NMagM=    0.4037610   0.4037610   0.4037610   0.0000000   0.0000000   0.0000000   0.0000000   0.0000000   0.0000000   0.0000000

  Atom        31          32          33          34          35          36          37          38          39          40
 IAtWgt=          12          14          14          12           1           1           1           1           1           1
 AtmWgt=  12.0000000  14.0030740  14.0030740  12.0000000   1.0078250   1.0078250   1.0078250   1.0078250   1.0078250   1.0078250
 NucSpn=           0           2           2           0           1           1           1           1           1           1
 AtZEff=   0.0000000   0.0000000   0.0000000   0.0000000   0.0000000   0.0000000   0.0000000   0.0000000   0.0000000   0.0000000
 NQMom=    0.0000000   2.0440000   2.0440000   0.0000000   0.0000000   0.0000000   0.0000000   0.0000000   0.0000000   0.0000000
 NMagM=    0.0000000   0.4037610   0.4037610   0.0000000   2.7928460   2.7928460   2.7928460   2.7928460   2.7928460   2.7928460

  Atom        41          42          43          44          45          46          47          48          49          50
 IAtWgt=           1           1           1           1           1           1           1           1           1           1
 AtmWgt=   1.0078250   1.0078250   1.0078250   1.0078250   1.0078250   1.0078250   1.0078250   1.0078250   1.0078250   1.0078250
 NucSpn=           1           1           1           1           1           1           1           1           1           1
 AtZEff=   0.0000000   0.0000000   0.0000000   0.0000000   0.0000000   0.0000000   0.0000000   0.0000000   0.0000000   0.0000000
 NQMom=    0.0000000   0.0000000   0.0000000   0.0000000   0.0000000   0.0000000   0.0000000   0.0000000   0.0000000   0.0000000
 NMagM=    2.7928460   2.7928460   2.7928460   2.7928460   2.7928460   2.7928460   2.7928460   2.7928460   2.7928460   2.7928460

  Atom        51          52          53          54          55
 IAtWgt=           1           1           1           1           1
 AtmWgt=   1.0078250   1.0078250   1.0078250   1.0078250   1.0078250
 NucSpn=           1           1           1           1           1
 AtZEff=   0.0000000   0.0000000   0.0000000   0.0000000   0.0000000
 NQMom=    0.0000000   0.0000000   0.0000000   0.0000000   0.0000000
 NMagM=    2.7928460   2.7928460   2.7928460   2.7928460   2.7928460
 Leave Link  101 at Sat Aug 27 10:32:25 2022, MaxMem=  209715200 cpu:       0.8
 (Enter /opt/gaussian/l103.exe)

 GradGradGradGradGradGradGradGradGradGradGradGradGradGradGradGradGradGrad
 Berny optimization.
 Initialization pass.
                           ----------------------------
                           !    Initial Parameters    !
                           ! (Angstroms and Degrees)  !
 --------------------------                            --------------------------
 ! Name  Definition              Value          Derivative Info.                !
 --------------------------------------------------------------------------------
 ! R1    R(1,2)                  1.4296         estimate D2E/DX2                !
 ! R2    R(1,35)                 1.1186         estimate D2E/DX2                !
 ! R3    R(1,36)                 1.1174         estimate D2E/DX2                !
 ! R4    R(1,37)                 1.1162         estimate D2E/DX2                !
 ! R5    R(2,3)                  1.3856         estimate D2E/DX2                !
 ! R6    R(3,4)                  1.3988         estimate D2E/DX2                !
 ! R7    R(3,8)                  1.4189         estimate D2E/DX2                !
 ! R8    R(4,5)                  1.4            estimate D2E/DX2                !
 ! R9    R(4,38)                 1.1005         estimate D2E/DX2                !
 ! R10   R(5,6)                  1.4042         estimate D2E/DX2                !
 ! R11   R(5,30)                 1.4363         estimate D2E/DX2                !
 ! R12   R(6,7)                  1.3875         estimate D2E/DX2                !
 ! R13   R(6,39)                 1.1002         estimate D2E/DX2                !
 ! R14   R(7,8)                  1.4108         estimate D2E/DX2                !
 ! R15   R(7,40)                 1.1023         estimate D2E/DX2                !
 ! R16   R(8,9)                  1.4201         estimate D2E/DX2                !
 ! R17   R(9,10)                 1.4423         estimate D2E/DX2                !
 ! R18   R(9,18)                 1.3973         estimate D2E/DX2                !
 ! R19   R(10,11)                1.5061         estimate D2E/DX2                !
 ! R20   R(10,41)                1.1313         estimate D2E/DX2                !
 ! R21   R(10,42)                1.1316         estimate D2E/DX2                !
 ! R22   R(11,12)                1.4021         estimate D2E/DX2                !
 ! R23   R(11,16)                1.3964         estimate D2E/DX2                !
 ! R24   R(12,13)                1.3921         estimate D2E/DX2                !
 ! R25   R(12,43)                1.1007         estimate D2E/DX2                !
 ! R26   R(13,14)                1.3948         estimate D2E/DX2                !
 ! R27   R(13,44)                1.1006         estimate D2E/DX2                !
 ! R28   R(14,15)                1.3973         estimate D2E/DX2                !
 ! R29   R(14,45)                1.1004         estimate D2E/DX2                !
 ! R30   R(15,16)                1.3996         estimate D2E/DX2                !
 ! R31   R(15,17)                1.6995         estimate D2E/DX2                !
 ! R32   R(16,46)                1.1023         estimate D2E/DX2                !
 ! R33   R(18,19)                1.2405         estimate D2E/DX2                !
 ! R34   R(18,20)                1.5392         estimate D2E/DX2                !
 ! R35   R(20,21)                1.4372         estimate D2E/DX2                !
 ! R36   R(20,47)                1.1299         estimate D2E/DX2                !
 ! R37   R(20,48)                1.129          estimate D2E/DX2                !
 ! R38   R(21,22)                1.3708         estimate D2E/DX2                !
 ! R39   R(21,29)                1.4147         estimate D2E/DX2                !
 ! R40   R(22,23)                1.2565         estimate D2E/DX2                !
 ! R41   R(23,24)                1.4318         estimate D2E/DX2                !
 ! R42   R(24,25)                1.3954         estimate D2E/DX2                !
 ! R43   R(24,29)                1.4485         estimate D2E/DX2                !
 ! R44   R(25,26)                1.3904         estimate D2E/DX2                !
 ! R45   R(25,49)                1.0992         estimate D2E/DX2                !
 ! R46   R(26,27)                1.4055         estimate D2E/DX2                !
 ! R47   R(26,50)                1.1006         estimate D2E/DX2                !
 ! R48   R(27,28)                1.3901         estimate D2E/DX2                !
 ! R49   R(27,51)                1.1013         estimate D2E/DX2                !
 ! R50   R(28,29)                1.3963         estimate D2E/DX2                !
 ! R51   R(28,52)                1.0977         estimate D2E/DX2                !
 ! R52   R(30,31)                1.4535         estimate D2E/DX2                !
 ! R53   R(30,34)                1.4104         estimate D2E/DX2                !
 ! R54   R(31,32)                1.3558         estimate D2E/DX2                !
 ! R55   R(31,53)                1.09           estimate D2E/DX2                !
 ! R56   R(32,33)                1.335          estimate D2E/DX2                !
 ! R57   R(33,34)                1.3933         estimate D2E/DX2                !
 ! R58   R(33,55)                0.9924         estimate D2E/DX2                !
 ! R59   R(34,54)                1.0889         estimate D2E/DX2                !
 ! A1    A(2,1,35)             103.39           estimate D2E/DX2                !
 ! A2    A(2,1,36)             110.1412         estimate D2E/DX2                !
 ! A3    A(2,1,37)             110.5218         estimate D2E/DX2                !
 ! A4    A(35,1,36)            110.9376         estimate D2E/DX2                !
 ! A5    A(35,1,37)            110.7324         estimate D2E/DX2                !
 ! A6    A(36,1,37)            110.8893         estimate D2E/DX2                !
 ! A7    A(1,2,3)              114.3567         estimate D2E/DX2                !
 ! A8    A(2,3,4)              120.2144         estimate D2E/DX2                !
 ! A9    A(2,3,8)              118.8202         estimate D2E/DX2                !
 ! A10   A(4,3,8)              120.7727         estimate D2E/DX2                !
 ! A11   A(3,4,5)              120.6652         estimate D2E/DX2                !
 ! A12   A(3,4,38)             119.1923         estimate D2E/DX2                !
 ! A13   A(5,4,38)             120.1341         estimate D2E/DX2                !
 ! A14   A(4,5,6)              118.7451         estimate D2E/DX2                !
 ! A15   A(4,5,30)             120.5382         estimate D2E/DX2                !
 ! A16   A(6,5,30)             120.7152         estimate D2E/DX2                !
 ! A17   A(5,6,7)              120.951          estimate D2E/DX2                !
 ! A18   A(5,6,39)             119.6858         estimate D2E/DX2                !
 ! A19   A(7,6,39)             119.3609         estimate D2E/DX2                !
 ! A20   A(6,7,8)              121.1271         estimate D2E/DX2                !
 ! A21   A(6,7,40)             119.1582         estimate D2E/DX2                !
 ! A22   A(8,7,40)             119.7147         estimate D2E/DX2                !
 ! A23   A(3,8,7)              117.71           estimate D2E/DX2                !
 ! A24   A(3,8,9)              122.0193         estimate D2E/DX2                !
 ! A25   A(7,8,9)              120.2418         estimate D2E/DX2                !
 ! A26   A(8,9,10)             116.9901         estimate D2E/DX2                !
 ! A27   A(8,9,18)             120.8416         estimate D2E/DX2                !
 ! A28   A(10,9,18)            122.1628         estimate D2E/DX2                !
 ! A29   A(9,10,11)            117.191          estimate D2E/DX2                !
 ! A30   A(9,10,41)            108.5268         estimate D2E/DX2                !
 ! A31   A(9,10,42)            108.172          estimate D2E/DX2                !
 ! A32   A(11,10,41)           108.3144         estimate D2E/DX2                !
 ! A33   A(11,10,42)           107.016          estimate D2E/DX2                !
 ! A34   A(41,10,42)           107.2092         estimate D2E/DX2                !
 ! A35   A(10,11,12)           117.2959         estimate D2E/DX2                !
 ! A36   A(10,11,16)           123.0844         estimate D2E/DX2                !
 ! A37   A(12,11,16)           119.5778         estimate D2E/DX2                !
 ! A38   A(11,12,13)           120.371          estimate D2E/DX2                !
 ! A39   A(11,12,43)           119.7571         estimate D2E/DX2                !
 ! A40   A(13,12,43)           119.8708         estimate D2E/DX2                !
 ! A41   A(12,13,14)           120.391          estimate D2E/DX2                !
 ! A42   A(12,13,44)           119.9206         estimate D2E/DX2                !
 ! A43   A(14,13,44)           119.6884         estimate D2E/DX2                !
 ! A44   A(13,14,15)           119.1741         estimate D2E/DX2                !
 ! A45   A(13,14,45)           120.3074         estimate D2E/DX2                !
 ! A46   A(15,14,45)           120.5184         estimate D2E/DX2                !
 ! A47   A(14,15,16)           120.8642         estimate D2E/DX2                !
 ! A48   A(14,15,17)           119.7282         estimate D2E/DX2                !
 ! A49   A(16,15,17)           119.4074         estimate D2E/DX2                !
 ! A50   A(11,16,15)           119.6208         estimate D2E/DX2                !
 ! A51   A(11,16,46)           120.8795         estimate D2E/DX2                !
 ! A52   A(15,16,46)           119.4997         estimate D2E/DX2                !
 ! A53   A(9,18,19)            121.297          estimate D2E/DX2                !
 ! A54   A(9,18,20)            116.3584         estimate D2E/DX2                !
 ! A55   A(19,18,20)           122.337          estimate D2E/DX2                !
 ! A56   A(18,20,21)           115.2711         estimate D2E/DX2                !
 ! A57   A(18,20,47)           107.1187         estimate D2E/DX2                !
 ! A58   A(18,20,48)           109.3501         estimate D2E/DX2                !
 ! A59   A(21,20,47)           108.4651         estimate D2E/DX2                !
 ! A60   A(21,20,48)           106.9446         estimate D2E/DX2                !
 ! A61   A(47,20,48)           109.6209         estimate D2E/DX2                !
 ! A62   A(20,21,22)           124.7446         estimate D2E/DX2                !
 ! A63   A(20,21,29)           125.1716         estimate D2E/DX2                !
 ! A64   A(22,21,29)           108.5321         estimate D2E/DX2                !
 ! A65   A(21,22,23)           112.1184         estimate D2E/DX2                !
 ! A66   A(22,23,24)           109.4433         estimate D2E/DX2                !
 ! A67   A(23,24,25)           133.5233         estimate D2E/DX2                !
 ! A68   A(23,24,29)           106.1017         estimate D2E/DX2                !
 ! A69   A(25,24,29)           120.3643         estimate D2E/DX2                !
 ! A70   A(24,25,26)           117.4861         estimate D2E/DX2                !
 ! A71   A(24,25,49)           120.9434         estimate D2E/DX2                !
 ! A72   A(26,25,49)           121.5703         estimate D2E/DX2                !
 ! A73   A(25,26,27)           121.881          estimate D2E/DX2                !
 ! A74   A(25,26,50)           119.3085         estimate D2E/DX2                !
 ! A75   A(27,26,50)           118.8104         estimate D2E/DX2                !
 ! A76   A(26,27,28)           122.1008         estimate D2E/DX2                !
 ! A77   A(26,27,51)           118.9233         estimate D2E/DX2                !
 ! A78   A(28,27,51)           118.9757         estimate D2E/DX2                !
 ! A79   A(27,28,29)           116.9026         estimate D2E/DX2                !
 ! A80   A(27,28,52)           121.4728         estimate D2E/DX2                !
 ! A81   A(29,28,52)           121.6237         estimate D2E/DX2                !
 ! A82   A(21,29,24)           103.6773         estimate D2E/DX2                !
 ! A83   A(21,29,28)           134.9938         estimate D2E/DX2                !
 ! A84   A(24,29,28)           121.2637         estimate D2E/DX2                !
 ! A85   A(5,30,31)            127.4657         estimate D2E/DX2                !
 ! A86   A(5,30,34)            128.2962         estimate D2E/DX2                !
 ! A87   A(31,30,34)           104.2381         estimate D2E/DX2                !
 ! A88   A(30,31,32)           110.1441         estimate D2E/DX2                !
 ! A89   A(30,31,53)           127.5233         estimate D2E/DX2                !
 ! A90   A(32,31,53)           122.3308         estimate D2E/DX2                !
 ! A91   A(31,32,33)           106.784          estimate D2E/DX2                !
 ! A92   A(32,33,34)           112.5385         estimate D2E/DX2                !
 ! A93   A(32,33,55)           120.3464         estimate D2E/DX2                !
 ! A94   A(34,33,55)           127.1149         estimate D2E/DX2                !
 ! A95   A(30,34,33)           106.2952         estimate D2E/DX2                !
 ! A96   A(30,34,54)           131.1742         estimate D2E/DX2                !
 ! A97   A(33,34,54)           122.5299         estimate D2E/DX2                !
 ! D1    D(35,1,2,3)          -179.3366         estimate D2E/DX2                !
 ! D2    D(36,1,2,3)           -60.7444         estimate D2E/DX2                !
 ! D3    D(37,1,2,3)            62.1307         estimate D2E/DX2                !
 ! D4    D(1,2,3,4)            -61.59           estimate D2E/DX2                !
 ! D5    D(1,2,3,8)            123.4154         estimate D2E/DX2                !
 ! D6    D(2,3,4,5)           -173.4805         estimate D2E/DX2                !
 ! D7    D(2,3,4,38)             5.4648         estimate D2E/DX2                !
 ! D8    D(8,3,4,5)              1.4152         estimate D2E/DX2                !
 ! D9    D(8,3,4,38)          -179.6396         estimate D2E/DX2                !
 ! D10   D(2,3,8,7)            172.922          estimate D2E/DX2                !
 ! D11   D(2,3,8,9)             -5.1261         estimate D2E/DX2                !
 ! D12   D(4,3,8,7)             -2.0438         estimate D2E/DX2                !
 ! D13   D(4,3,8,9)            179.9082         estimate D2E/DX2                !
 ! D14   D(3,4,5,6)              0.0076         estimate D2E/DX2                !
 ! D15   D(3,4,5,30)           179.5659         estimate D2E/DX2                !
 ! D16   D(38,4,5,6)          -178.9277         estimate D2E/DX2                !
 ! D17   D(38,4,5,30)            0.6306         estimate D2E/DX2                !
 ! D18   D(4,5,6,7)             -0.7511         estimate D2E/DX2                !
 ! D19   D(4,5,6,39)           179.8109         estimate D2E/DX2                !
 ! D20   D(30,5,6,7)           179.6915         estimate D2E/DX2                !
 ! D21   D(30,5,6,39)            0.2535         estimate D2E/DX2                !
 ! D22   D(4,5,30,31)           14.51           estimate D2E/DX2                !
 ! D23   D(4,5,30,34)         -165.4555         estimate D2E/DX2                !
 ! D24   D(6,5,30,31)         -165.9406         estimate D2E/DX2                !
 ! D25   D(6,5,30,34)           14.0939         estimate D2E/DX2                !
 ! D26   D(5,6,7,8)              0.0713         estimate D2E/DX2                !
 ! D27   D(5,6,7,40)          -179.9498         estimate D2E/DX2                !
 ! D28   D(39,6,7,8)           179.5111         estimate D2E/DX2                !
 ! D29   D(39,6,7,40)           -0.51           estimate D2E/DX2                !
 ! D30   D(6,7,8,3)              1.3092         estimate D2E/DX2                !
 ! D31   D(6,7,8,9)            179.3935         estimate D2E/DX2                !
 ! D32   D(40,7,8,3)          -178.6696         estimate D2E/DX2                !
 ! D33   D(40,7,8,9)            -0.5853         estimate D2E/DX2                !
 ! D34   D(3,8,9,10)           121.8031         estimate D2E/DX2                !
 ! D35   D(3,8,9,18)           -57.3604         estimate D2E/DX2                !
 ! D36   D(7,8,9,10)           -56.1965         estimate D2E/DX2                !
 ! D37   D(7,8,9,18)           124.6399         estimate D2E/DX2                !
 ! D38   D(8,9,10,11)          108.2485         estimate D2E/DX2                !
 ! D39   D(8,9,10,41)         -128.7446         estimate D2E/DX2                !
 ! D40   D(8,9,10,42)          -12.742          estimate D2E/DX2                !
 ! D41   D(18,9,10,11)         -72.5999         estimate D2E/DX2                !
 ! D42   D(18,9,10,41)          50.4071         estimate D2E/DX2                !
 ! D43   D(18,9,10,42)         166.4096         estimate D2E/DX2                !
 ! D44   D(8,9,18,19)           -7.4061         estimate D2E/DX2                !
 ! D45   D(8,9,18,20)          171.6177         estimate D2E/DX2                !
 ! D46   D(10,9,18,19)         173.4743         estimate D2E/DX2                !
 ! D47   D(10,9,18,20)          -7.5018         estimate D2E/DX2                !
 ! D48   D(9,10,11,12)         161.1548         estimate D2E/DX2                !
 ! D49   D(9,10,11,16)         -21.2145         estimate D2E/DX2                !
 ! D50   D(41,10,11,12)         38.0392         estimate D2E/DX2                !
 ! D51   D(41,10,11,16)       -144.3301         estimate D2E/DX2                !
 ! D52   D(42,10,11,12)        -77.2516         estimate D2E/DX2                !
 ! D53   D(42,10,11,16)        100.3791         estimate D2E/DX2                !
 ! D54   D(10,11,12,13)        178.0254         estimate D2E/DX2                !
 ! D55   D(10,11,12,43)         -1.5915         estimate D2E/DX2                !
 ! D56   D(16,11,12,13)          0.308          estimate D2E/DX2                !
 ! D57   D(16,11,12,43)       -179.3089         estimate D2E/DX2                !
 ! D58   D(10,11,16,15)       -177.8929         estimate D2E/DX2                !
 ! D59   D(10,11,16,46)          2.0654         estimate D2E/DX2                !
 ! D60   D(12,11,16,15)         -0.3139         estimate D2E/DX2                !
 ! D61   D(12,11,16,46)        179.6444         estimate D2E/DX2                !
 ! D62   D(11,12,13,14)         -0.0283         estimate D2E/DX2                !
 ! D63   D(11,12,13,44)       -179.9745         estimate D2E/DX2                !
 ! D64   D(43,12,13,14)        179.5882         estimate D2E/DX2                !
 ! D65   D(43,12,13,44)         -0.358          estimate D2E/DX2                !
 ! D66   D(12,13,14,15)         -0.2412         estimate D2E/DX2                !
 ! D67   D(12,13,14,45)        179.8783         estimate D2E/DX2                !
 ! D68   D(44,13,14,15)        179.7051         estimate D2E/DX2                !
 ! D69   D(44,13,14,45)         -0.1754         estimate D2E/DX2                !
 ! D70   D(13,14,15,16)          0.234          estimate D2E/DX2                !
 ! D71   D(13,14,15,17)       -179.6061         estimate D2E/DX2                !
 ! D72   D(45,14,15,16)       -179.8858         estimate D2E/DX2                !
 ! D73   D(45,14,15,17)          0.2741         estimate D2E/DX2                !
 ! D74   D(14,15,16,11)          0.0441         estimate D2E/DX2                !
 ! D75   D(14,15,16,46)       -179.9148         estimate D2E/DX2                !
 ! D76   D(17,15,16,11)        179.8847         estimate D2E/DX2                !
 ! D77   D(17,15,16,46)         -0.0742         estimate D2E/DX2                !
 ! D78   D(9,18,20,21)         170.6815         estimate D2E/DX2                !
 ! D79   D(9,18,20,47)         -68.5291         estimate D2E/DX2                !
 ! D80   D(9,18,20,48)          50.1927         estimate D2E/DX2                !
 ! D81   D(19,18,20,21)        -10.3056         estimate D2E/DX2                !
 ! D82   D(19,18,20,47)        110.4837         estimate D2E/DX2                !
 ! D83   D(19,18,20,48)       -130.7944         estimate D2E/DX2                !
 ! D84   D(18,20,21,22)         74.0991         estimate D2E/DX2                !
 ! D85   D(18,20,21,29)        -90.0444         estimate D2E/DX2                !
 ! D86   D(47,20,21,22)        -45.9543         estimate D2E/DX2                !
 ! D87   D(47,20,21,29)        149.9021         estimate D2E/DX2                !
 ! D88   D(48,20,21,22)       -164.107          estimate D2E/DX2                !
 ! D89   D(48,20,21,29)         31.7494         estimate D2E/DX2                !
 ! D90   D(20,21,22,23)       -170.1204         estimate D2E/DX2                !
 ! D91   D(29,21,22,23)         -3.745          estimate D2E/DX2                !
 ! D92   D(20,21,29,24)        169.618          estimate D2E/DX2                !
 ! D93   D(20,21,29,28)        -13.4312         estimate D2E/DX2                !
 ! D94   D(22,21,29,24)          3.3152         estimate D2E/DX2                !
 ! D95   D(22,21,29,28)       -179.734          estimate D2E/DX2                !
 ! D96   D(21,22,23,24)          2.41           estimate D2E/DX2                !
 ! D97   D(22,23,24,25)       -178.9586         estimate D2E/DX2                !
 ! D98   D(22,23,24,29)         -0.1885         estimate D2E/DX2                !
 ! D99   D(23,24,25,26)        179.0305         estimate D2E/DX2                !
 ! D100  D(23,24,25,49)         -0.8719         estimate D2E/DX2                !
 ! D101  D(29,24,25,26)          0.4001         estimate D2E/DX2                !
 ! D102  D(29,24,25,49)       -179.5023         estimate D2E/DX2                !
 ! D103  D(23,24,29,21)         -1.9392         estimate D2E/DX2                !
 ! D104  D(23,24,29,28)       -179.4169         estimate D2E/DX2                !
 ! D105  D(25,24,29,21)        177.0273         estimate D2E/DX2                !
 ! D106  D(25,24,29,28)         -0.4505         estimate D2E/DX2                !
 ! D107  D(24,25,26,27)         -0.1306         estimate D2E/DX2                !
 ! D108  D(24,25,26,50)        179.7506         estimate D2E/DX2                !
 ! D109  D(49,25,26,27)        179.7711         estimate D2E/DX2                !
 ! D110  D(49,25,26,50)         -0.3476         estimate D2E/DX2                !
 ! D111  D(25,26,27,28)         -0.1144         estimate D2E/DX2                !
 ! D112  D(25,26,27,51)        179.7768         estimate D2E/DX2                !
 ! D113  D(50,26,27,28)       -179.9963         estimate D2E/DX2                !
 ! D114  D(50,26,27,51)         -0.105          estimate D2E/DX2                !
 ! D115  D(26,27,28,29)          0.0752         estimate D2E/DX2                !
 ! D116  D(26,27,28,52)        179.7348         estimate D2E/DX2                !
 ! D117  D(51,27,28,29)       -179.816          estimate D2E/DX2                !
 ! D118  D(51,27,28,52)         -0.1565         estimate D2E/DX2                !
 ! D119  D(27,28,29,21)       -176.3332         estimate D2E/DX2                !
 ! D120  D(27,28,29,24)          0.2003         estimate D2E/DX2                !
 ! D121  D(52,28,29,21)          4.0078         estimate D2E/DX2                !
 ! D122  D(52,28,29,24)       -179.4587         estimate D2E/DX2                !
 ! D123  D(5,30,31,32)        -179.9752         estimate D2E/DX2                !
 ! D124  D(5,30,31,53)           0.5128         estimate D2E/DX2                !
 ! D125  D(34,30,31,32)         -0.0031         estimate D2E/DX2                !
 ! D126  D(34,30,31,53)       -179.5151         estimate D2E/DX2                !
 ! D127  D(5,30,34,33)         179.9132         estimate D2E/DX2                !
 ! D128  D(5,30,34,54)           0.2051         estimate D2E/DX2                !
 ! D129  D(31,30,34,33)         -0.0586         estimate D2E/DX2                !
 ! D130  D(31,30,34,54)       -179.7666         estimate D2E/DX2                !
 ! D131  D(30,31,32,33)          0.0664         estimate D2E/DX2                !
 ! D132  D(53,31,32,33)        179.6083         estimate D2E/DX2                !
 ! D133  D(31,32,33,34)         -0.1081         estimate D2E/DX2                !
 ! D134  D(31,32,33,55)        179.754          estimate D2E/DX2                !
 ! D135  D(32,33,34,30)          0.1065         estimate D2E/DX2                !
 ! D136  D(32,33,34,54)        179.8459         estimate D2E/DX2                !
 ! D137  D(55,33,34,30)       -179.7442         estimate D2E/DX2                !
 ! D138  D(55,33,34,54)         -0.0049         estimate D2E/DX2                !
 --------------------------------------------------------------------------------
 Trust Radius=3.00D-01 FncErr=1.00D-07 GrdErr=1.00D-07
 Number of steps in this run=    304 maximum allowed number of steps=    330.
 GradGradGradGradGradGradGradGradGradGradGradGradGradGradGradGradGradGrad

 Leave Link  103 at Sat Aug 27 10:32:25 2022, MaxMem=  209715200 cpu:       0.1
 (Enter /opt/gaussian/l202.exe)
 Stoichiometry    C25H21ClN6O2
 Framework group  C1[X(C25H21ClN6O2)]
 Deg. of freedom   159
 Full point group                 C1      NOp   1
 Largest Abelian subgroup         C1      NOp   1
 Largest concise Abelian subgroup C1      NOp   1
                         Standard orientation:                         
 ---------------------------------------------------------------------
 Center     Atomic      Atomic             Coordinates (Angstroms)
 Number     Number       Type             X           Y           Z
 ---------------------------------------------------------------------
      1          6           0        1.983251   -3.537184    0.878501
      2          8           0        1.965498   -2.290559    1.577994
      3          6           0        2.458463   -1.219684    0.849896
      4          6           0        3.785467   -1.220488    0.407583
      5          6           0        4.333139   -0.089421   -0.209349
      6          6           0        3.525068    1.046867   -0.375894
      7          6           0        2.203372    1.050649    0.046184
      8          6           0        1.629516   -0.084371    0.656723
      9          7           0        0.278436   -0.055499    1.093270
     10          6           0       -0.087634    0.986581    2.020865
     11          6           0       -0.954410    2.101236    1.496743
     12          6           0       -1.641408    2.879155    2.439536
     13          6           0       -2.427959    3.951613    2.028253
     14          6           0       -2.541271    4.265054    0.673843
     15          6           0       -1.851553    3.492436   -0.264108
     16          6           0       -1.058123    2.412318    0.139406
     17         17           0       -1.971569    3.868043   -1.917241
     18          6           0       -0.638570   -1.011652    0.648910
     19          8           0       -0.341052   -1.826741   -0.237694
     20          6           0       -2.016526   -1.007558    1.334740
     21          7           0       -3.007607   -1.851490    0.725512
     22          7           0       -3.029212   -3.219353    0.812463
     23          7           0       -3.874626   -3.729495    0.035454
     24          6           0       -4.501841   -2.695852   -0.731425
     25          6           0       -5.501117   -2.693751   -1.705308
     26          6           0       -5.881433   -1.464427   -2.231830
     27          6           0       -5.292778   -0.260886   -1.807177
     28          6           0       -4.298937   -0.227047   -0.835859
     29          6           0       -3.903264   -1.451548   -0.293857
     30          6           0        5.698811   -0.090011   -0.654126
     31          6           0        6.574650   -1.238263   -0.818378
     32          7           0        7.793214   -0.837079   -1.257005
     33          7           0        7.741160    0.491365   -1.378146
     34          6           0        6.496365    1.011092   -1.029272
     35          1           0        1.543843   -4.254304    1.615985
     36          1           0        1.350843   -3.471818   -0.040380
     37          1           0        3.030103   -3.826717    0.621385
     38          1           0        4.403374   -2.117272    0.565627
     39          1           0        3.940619    1.945374   -0.855928
     40          1           0        1.595501    1.958553   -0.099933
     41          1           0       -0.612587    0.513394    2.904226
     42          1           0        0.862513    1.461463    2.411113
     43          1           0       -1.552634    2.643586    3.511091
     44          1           0       -2.963674    4.557556    2.774662
     45          1           0       -3.164960    5.111840    0.350128
     46          1           0       -0.522627    1.818767   -0.619565
     47          1           0       -1.859135   -1.351533    2.399447
     48          1           0       -2.432126    0.042122    1.332982
     49          1           0       -5.967567   -3.631652   -2.038533
     50          1           0       -6.664076   -1.428287   -3.004818
     51          1           0       -5.628703    0.685176   -2.259954
     52          1           0       -3.843181    0.718606   -0.514938
     53          1           0        6.335949   -2.286491   -0.638314
     54          1           0        6.275627    2.076718   -1.065913
     55          1           0        8.536774    0.998299   -1.686112
 ---------------------------------------------------------------------
 Rotational constants (GHZ):      0.1558911      0.0655775      0.0535248
 Leave Link  202 at Sat Aug 27 10:32:25 2022, MaxMem=  209715200 cpu:       0.0
 (Enter /opt/gaussian/l301.exe)
 Standard basis: 6-31G (6D, 7F)
 Ernie: Thresh=  0.10000D-02 Tol=  0.10000D-05 Strict=F.
 There are   352 symmetry adapted basis functions of A   symmetry.
 Integral buffers will be    131072 words long.
 Raffenetti 1 integral format.
 Two-electron integral symmetry is turned on.
   352 basis functions,   856 primitive gaussians,   352 cartesian basis functions
   123 alpha electrons      123 beta electrons
       nuclear repulsion energy      3488.1163228441 Hartrees.
 IExCor=    0 DFT=F Ex=HF Corr=None ExCW=0 ScaHFX=  1.000000
 ScaDFX=  1.000000  1.000000  1.000000  1.000000 ScalE2=  1.000000  1.000000
 IRadAn=      0 IRanWt=     -1 IRanGd=            0 ICorTp=0
 NAtoms=   55 NActive=   55 NUniq=   55 SFac= 1.00D+00 NAtFMM=   60 NAOKFM=F Big=F
 Leave Link  301 at Sat Aug 27 10:32:25 2022, MaxMem=  209715200 cpu:       0.2
 (Enter /opt/gaussian/l302.exe)
 NPDir=0 NMtPBC=     1 NCelOv=     1 NCel=       1 NClECP=     1 NCelD=      1
         NCelK=      1 NCelE2=     1 NClLst=     1 CellRange=     0.0.
 One-electron integrals computed using PRISM.
 NBasis=   352 RedAO= T  NBF=   352
 NBsUse=   352 1.00D-06 NBFU=   352
 Leave Link  302 at Sat Aug 27 10:32:26 2022, MaxMem=  209715200 cpu:       2.2
 (Enter /opt/gaussian/l303.exe)
 DipDrv:  MaxL=1.
 Leave Link  303 at Sat Aug 27 10:32:26 2022, MaxMem=  209715200 cpu:       0.5
 (Enter /opt/gaussian/l401.exe)
 Harris functional with IExCor=  205 diagonalized for initial guess.
 ExpMin= 1.43D-01 ExpMax= 2.52D+04 ExpMxC= 3.78D+03 IAcc=1 IRadAn=         1 AccDes= 0.00D+00
 HarFok:  IExCor=  205 AccDes= 0.00D+00 IRadAn=         1 IDoV= 1
 ScaDFX=  1.000000  1.000000  1.000000  1.000000
 FoFCou: FMM=F IPFlag=           0 FMFlag=      100000 FMFlg1=           0
         NFxFlg=           0 DoJE=T BraDBF=F KetDBF=T FulRan=T
         Omega=  0.000000  0.000000  1.000000  0.000000  0.000000 ICntrl=     500 IOpCl=  0
         NMat0=    1 NMatS0=    1 NMatT0=    0 NMatD0=    1 NMtDS0=    0 NMtDT0=    0
         I1Cent=           4 NGrid=           0.
 Petite list used in FoFCou.
 Harris En= -1895.26505418481    
 Initial guess orbital symmetries:
       Occupied  (A) (A) (A) (A) (A) (A) (A) (A) (A) (A) (A) (A)
                 (A) (A) (A) (A) (A) (A) (A) (A) (A) (A) (A) (A)
                 (A) (A) (A) (A) (A) (A) (A) (A) (A) (A) (A) (A)
                 (A) (A) (A) (A) (A) (A) (A) (A) (A) (A) (A) (A)
                 (A) (A) (A) (A) (A) (A) (A) (A) (A) (A) (A) (A)
                 (A) (A) (A) (A) (A) (A) (A) (A) (A) (A) (A) (A)
                 (A) (A) (A) (A) (A) (A) (A) (A) (A) (A) (A) (A)
                 (A) (A) (A) (A) (A) (A) (A) (A) (A) (A) (A) (A)
                 (A) (A) (A) (A) (A) (A) (A) (A) (A) (A) (A) (A)
                 (A) (A) (A) (A) (A) (A) (A) (A) (A) (A) (A) (A)
                 (A) (A) (A)
       Virtual   (A) (A) (A) (A) (A) (A) (A) (A) (A) (A) (A) (A)
                 (A) (A) (A) (A) (A) (A) (A) (A) (A) (A) (A) (A)
                 (A) (A) (A) (A) (A) (A) (A) (A) (A) (A) (A) (A)
                 (A) (A) (A) (A) (A) (A) (A) (A) (A) (A) (A) (A)
                 (A) (A) (A) (A) (A) (A) (A) (A) (A) (A) (A) (A)
                 (A) (A) (A) (A) (A) (A) (A) (A) (A) (A) (A) (A)
                 (A) (A) (A) (A) (A) (A) (A) (A) (A) (A) (A) (A)
                 (A) (A) (A) (A) (A) (A) (A) (A) (A) (A) (A) (A)
                 (A) (A) (A) (A) (A) (A) (A) (A) (A) (A) (A) (A)
                 (A) (A) (A) (A) (A) (A) (A) (A) (A) (A) (A) (A)
                 (A) (A) (A) (A) (A) (A) (A) (A) (A) (A) (A) (A)
                 (A) (A) (A) (A) (A) (A) (A) (A) (A) (A) (A) (A)
                 (A) (A) (A) (A) (A) (A) (A) (A) (A) (A) (A) (A)
                 (A) (A) (A) (A) (A) (A) (A) (A) (A) (A) (A) (A)
                 (A) (A) (A) (A) (A) (A) (A) (A) (A) (A) (A) (A)
                 (A) (A) (A) (A) (A) (A) (A) (A) (A) (A) (A) (A)
                 (A) (A) (A) (A) (A) (A) (A) (A) (A) (A) (A) (A)
                 (A) (A) (A) (A) (A) (A) (A) (A) (A) (A) (A) (A)
                 (A) (A) (A) (A) (A) (A) (A) (A) (A) (A) (A) (A)
                 (A)
 The electronic state of the initial guess is 1-A.
 Leave Link  401 at Sat Aug 27 10:32:26 2022, MaxMem=  209715200 cpu:       5.3
 (Enter /opt/gaussian/l502.exe)
 Closed shell SCF:
 Requested convergence on RMS density matrix=1.00D-08 within 128 cycles.
 Requested convergence on MAX density matrix=1.00D-06.
 Requested convergence on             energy=1.00D-06.
 No special actions if energy rises.
 Using DIIS extrapolation, IDIIS=  1040.
 Integral symmetry usage will be decided dynamically.
 IEnd=      395393 IEndB=      395393 NGot=   209715200 MDV=   209460704
 LenX=   209460704 LenY=   209336359
 Fock matrices will be formed incrementally for  20 cycles.
 Integral accuracy reduced to 1.0D-05 until final iterations.

 Cycle   1  Pass 0  IDiag  1:
 FoFCou: FMM=F IPFlag=           0 FMFlag=      100000 FMFlg1=           0
         NFxFlg=           0 DoJE=F BraDBF=F KetDBF=F FulRan=T
         Omega=  0.000000  0.000000  1.000000  0.000000  0.000000 ICntrl=       0 IOpCl=  0
         NMat0=    1 NMatS0=    1 NMatT0=    0 NMatD0=    1 NMtDS0=    0 NMtDT0=    0
         I1Cent=           0 NGrid=           0.
 Symmetry not used in FoFCou.
 E= -1893.14272815740    
 DIIS: error= 4.13D-02 at cycle   1 NSaved=   1.
 NSaved= 1 IEnMin= 1 EnMin= -1893.14272815740     IErMin= 1 ErrMin= 4.13D-02
 ErrMax= 4.13D-02 EMaxC= 1.00D-01 BMatC= 1.12D+00 BMatP= 1.12D+00
 IDIUse=3 WtCom= 5.87D-01 WtEn= 4.13D-01
 Coeff-Com:  0.100D+01
 Coeff-En:   0.100D+01
 Coeff:      0.100D+01
 Gap=     0.579 Goal=   None    Shift=    0.000
 GapD=    0.579 DampG=2.000 DampE=0.500 DampFc=1.0000 IDamp=-1.
 RMSDP=5.55D-03 MaxDP=1.53D-01              OVMax= 1.62D-01

 Cycle   2  Pass 0  IDiag  1:
 RMSU=  3.89D-03    CP:  9.70D-01
 E= -1893.89008597535     Delta-E=       -0.747357817948 Rises=F Damp=F
 DIIS: error= 2.25D-02 at cycle   2 NSaved=   2.
 NSaved= 2 IEnMin= 2 EnMin= -1893.89008597535     IErMin= 2 ErrMin= 2.25D-02
 ErrMax= 2.25D-02 EMaxC= 1.00D-01 BMatC= 1.90D-01 BMatP= 1.12D+00
 IDIUse=3 WtCom= 7.75D-01 WtEn= 2.25D-01
 Coeff-Com:  0.236D+00 0.764D+00
 Coeff-En:   0.000D+00 0.100D+01
 Coeff:      0.183D+00 0.817D+00
 Gap=     0.443 Goal=   None    Shift=    0.000
 RMSDP=2.33D-03 MaxDP=8.56D-02 DE=-7.47D-01 OVMax= 9.86D-02

 Cycle   3  Pass 0  IDiag  1:
 RMSU=  1.48D-03    CP:  9.69D-01  8.16D-01
 E= -1894.04112863660     Delta-E=       -0.151042661251 Rises=F Damp=F
 DIIS: error= 1.14D-02 at cycle   3 NSaved=   3.
 NSaved= 3 IEnMin= 3 EnMin= -1894.04112863660     IErMin= 3 ErrMin= 1.14D-02
 ErrMax= 1.14D-02 EMaxC= 1.00D-01 BMatC= 3.47D-02 BMatP= 1.90D-01
 IDIUse=3 WtCom= 8.86D-01 WtEn= 1.14D-01
 Coeff-Com:  0.510D-02 0.285D+00 0.709D+00
 Coeff-En:   0.000D+00 0.000D+00 0.100D+01
 Coeff:      0.452D-02 0.253D+00 0.742D+00
 Gap=     0.395 Goal=   None    Shift=    0.000
 RMSDP=8.19D-04 MaxDP=2.96D-02 DE=-1.51D-01 OVMax= 3.83D-02

 Cycle   4  Pass 0  IDiag  1:
 RMSU=  3.55D-04    CP:  9.70D-01  9.09D-01  8.11D-01
 E= -1894.07277293208     Delta-E=       -0.031644295478 Rises=F Damp=F
 DIIS: error= 3.05D-03 at cycle   4 NSaved=   4.
 NSaved= 4 IEnMin= 4 EnMin= -1894.07277293208     IErMin= 4 ErrMin= 3.05D-03
 ErrMax= 3.05D-03 EMaxC= 1.00D-01 BMatC= 3.20D-03 BMatP= 3.47D-02
 IDIUse=3 WtCom= 9.70D-01 WtEn= 3.05D-02
 Coeff-Com: -0.134D-01 0.259D-01 0.271D+00 0.717D+00
 Coeff-En:   0.000D+00 0.000D+00 0.000D+00 0.100D+01
 Coeff:     -0.130D-01 0.251D-01 0.263D+00 0.725D+00
 Gap=     0.389 Goal=   None    Shift=    0.000
 RMSDP=2.60D-04 MaxDP=9.63D-03 DE=-3.16D-02 OVMax= 9.03D-03

 Cycle   5  Pass 0  IDiag  1:
 RMSU=  1.12D-04    CP:  9.69D-01  9.04D-01  8.91D-01  7.72D-01
 E= -1894.07593824354     Delta-E=       -0.003165311458 Rises=F Damp=F
 DIIS: error= 9.41D-04 at cycle   5 NSaved=   5.
 NSaved= 5 IEnMin= 5 EnMin= -1894.07593824354     IErMin= 5 ErrMin= 9.41D-04
 ErrMax= 9.41D-04 EMaxC= 1.00D-01 BMatC= 1.09D-04 BMatP= 3.20D-03
 IDIUse=3 WtCom= 9.91D-01 WtEn= 9.41D-03
 Coeff-Com: -0.120D-02-0.156D-01-0.158D-01 0.604D-01 0.972D+00
 Coeff-En:   0.000D+00 0.000D+00 0.000D+00 0.000D+00 0.100D+01
 Coeff:     -0.119D-02-0.154D-01-0.157D-01 0.598D-01 0.972D+00
 Gap=     0.389 Goal=   None    Shift=    0.000
 RMSDP=7.70D-05 MaxDP=1.83D-03 DE=-3.17D-03 OVMax= 5.40D-03

 Cycle   6  Pass 0  IDiag  1:
 RMSU=  4.01D-05    CP:  9.69D-01  9.05D-01  9.06D-01  8.31D-01  1.17D+00
 E= -1894.07623046864     Delta-E=       -0.000292225105 Rises=F Damp=F
 DIIS: error= 4.43D-04 at cycle   6 NSaved=   6.
 NSaved= 6 IEnMin= 6 EnMin= -1894.07623046864     IErMin= 6 ErrMin= 4.43D-04
 ErrMax= 4.43D-04 EMaxC= 1.00D-01 BMatC= 2.98D-05 BMatP= 1.09D-04
 IDIUse=3 WtCom= 9.96D-01 WtEn= 4.43D-03
 Coeff-Com:  0.246D-02-0.877D-02-0.538D-01-0.147D+00 0.166D+00 0.104D+01
 Coeff-En:   0.000D+00 0.000D+00 0.000D+00 0.000D+00 0.000D+00 0.100D+01
 Coeff:      0.245D-02-0.873D-02-0.535D-01-0.147D+00 0.166D+00 0.104D+01
 Gap=     0.389 Goal=   None    Shift=    0.000
 RMSDP=5.06D-05 MaxDP=1.81D-03 DE=-2.92D-04 OVMax= 3.04D-03

 Cycle   7  Pass 0  IDiag  1:
 RMSU=  1.64D-05    CP:  9.69D-01  9.04D-01  9.16D-01  8.42D-01  1.41D+00
                    CP:  1.19D+00
 E= -1894.07632508164     Delta-E=       -0.000094613001 Rises=F Damp=F
 DIIS: error= 1.84D-04 at cycle   7 NSaved=   7.
 NSaved= 7 IEnMin= 7 EnMin= -1894.07632508164     IErMin= 7 ErrMin= 1.84D-04
 ErrMax= 1.84D-04 EMaxC= 1.00D-01 BMatC= 3.81D-06 BMatP= 2.98D-05
 IDIUse=3 WtCom= 9.98D-01 WtEn= 1.84D-03
 Coeff-Com: -0.108D-03 0.272D-02 0.101D-01 0.304D-02-0.135D+00-0.117D+00
 Coeff-Com:  0.124D+01
 Coeff-En:   0.000D+00 0.000D+00 0.000D+00 0.000D+00 0.000D+00 0.000D+00
 Coeff-En:   0.100D+01
 Coeff:     -0.108D-03 0.271D-02 0.101D-01 0.304D-02-0.134D+00-0.117D+00
 Coeff:      0.124D+01
 Gap=     0.389 Goal=   None    Shift=    0.000
 RMSDP=1.98D-05 MaxDP=6.87D-04 DE=-9.46D-05 OVMax= 1.65D-03

 Cycle   8  Pass 0  IDiag  1:
 RMSU=  6.42D-06    CP:  9.69D-01  9.03D-01  9.18D-01  8.41D-01  1.48D+00
                    CP:  1.37D+00  1.39D+00
 E= -1894.07634040062     Delta-E=       -0.000015318982 Rises=F Damp=F
 DIIS: error= 8.67D-05 at cycle   8 NSaved=   8.
 NSaved= 8 IEnMin= 8 EnMin= -1894.07634040062     IErMin= 8 ErrMin= 8.67D-05
 ErrMax= 8.67D-05 EMaxC= 1.00D-01 BMatC= 7.77D-07 BMatP= 3.81D-06
 IDIUse=1 WtCom= 1.00D+00 WtEn= 0.00D+00
 Coeff-Com: -0.527D-03 0.240D-02 0.142D-01 0.304D-01-0.584D-01-0.249D+00
 Coeff-Com:  0.275D+00 0.986D+00
 Coeff:     -0.527D-03 0.240D-02 0.142D-01 0.304D-01-0.584D-01-0.249D+00
 Coeff:      0.275D+00 0.986D+00
 Gap=     0.389 Goal=   None    Shift=    0.000
 RMSDP=8.31D-06 MaxDP=2.52D-04 DE=-1.53D-05 OVMax= 6.10D-04

 Initial convergence to 1.0D-05 achieved.  Increase integral accuracy.
 Cycle   9  Pass 1  IDiag  1:
 E= -1894.07634939656     Delta-E=       -0.000008995937 Rises=F Damp=F
 DIIS: error= 1.22D-04 at cycle   1 NSaved=   1.
 NSaved= 1 IEnMin= 1 EnMin= -1894.07634939656     IErMin= 1 ErrMin= 1.22D-04
 ErrMax= 1.22D-04 EMaxC= 1.00D-01 BMatC= 2.90D-06 BMatP= 2.90D-06
 IDIUse=3 WtCom= 9.99D-01 WtEn= 1.22D-03
 Coeff-Com:  0.100D+01
 Coeff-En:   0.100D+01
 Coeff:      0.100D+01
 Gap=     0.389 Goal=   None    Shift=    0.000
 RMSDP=8.31D-06 MaxDP=2.52D-04 DE=-9.00D-06 OVMax= 2.51D-04

 Cycle  10  Pass 1  IDiag  1:
 RMSU=  5.16D-05    CP:  1.00D+00
 E= -1894.07635234897     Delta-E=       -0.000002952411 Rises=F Damp=F
 DIIS: error= 1.98D-05 at cycle   2 NSaved=   2.
 NSaved= 2 IEnMin= 2 EnMin= -1894.07635234897     IErMin= 2 ErrMin= 1.98D-05
 ErrMax= 1.98D-05 EMaxC= 1.00D-01 BMatC= 5.08D-08 BMatP= 2.90D-06
 IDIUse=1 WtCom= 1.00D+00 WtEn= 0.00D+00
 Coeff-Com: -0.297D-01 0.103D+01
 Coeff:     -0.297D-01 0.103D+01
 Gap=     0.389 Goal=   None    Shift=    0.000
 RMSDP=3.93D-06 MaxDP=8.45D-05 DE=-2.95D-06 OVMax= 1.17D-04

 Cycle  11  Pass 1  IDiag  1:
 RMSU=  1.16D-06    CP:  1.00D+00  1.05D+00
 E= -1894.07635246658     Delta-E=       -0.000000117608 Rises=F Damp=F
 DIIS: error= 1.31D-05 at cycle   3 NSaved=   3.
 NSaved= 3 IEnMin= 3 EnMin= -1894.07635246658     IErMin= 3 ErrMin= 1.31D-05
 ErrMax= 1.31D-05 EMaxC= 1.00D-01 BMatC= 2.44D-08 BMatP= 5.08D-08
 IDIUse=1 WtCom= 1.00D+00 WtEn= 0.00D+00
 Coeff-Com: -0.219D-01 0.365D+00 0.657D+00
 Coeff:     -0.219D-01 0.365D+00 0.657D+00
 Gap=     0.389 Goal=   None    Shift=    0.000
 RMSDP=7.02D-07 MaxDP=2.27D-05 DE=-1.18D-07 OVMax= 5.56D-05

 Cycle  12  Pass 1  IDiag  1:
 RMSU=  4.77D-07    CP:  1.00D+00  1.05D+00  9.35D-01
 E= -1894.07635251152     Delta-E=       -0.000000044940 Rises=F Damp=F
 DIIS: error= 9.38D-06 at cycle   4 NSaved=   4.
 NSaved= 4 IEnMin= 4 EnMin= -1894.07635251152     IErMin= 4 ErrMin= 9.38D-06
 ErrMax= 9.38D-06 EMaxC= 1.00D-01 BMatC= 6.33D-09 BMatP= 2.44D-08
 IDIUse=1 WtCom= 1.00D+00 WtEn= 0.00D+00
 Coeff-Com:  0.245D-01-0.625D+00-0.329D+00 0.193D+01
 Coeff:      0.245D-01-0.625D+00-0.329D+00 0.193D+01
 Gap=     0.389 Goal=   None    Shift=    0.000
 RMSDP=1.06D-06 MaxDP=2.43D-05 DE=-4.49D-08 OVMax= 1.27D-04

 Cycle  13  Pass 1  IDiag  1:
 RMSU=  3.56D-07    CP:  1.00D+00  1.05D+00  1.37D+00  1.86D+00
 E= -1894.07635255166     Delta-E=       -0.000000040145 Rises=F Damp=F
 DIIS: error= 2.04D-06 at cycle   5 NSaved=   5.
 NSaved= 5 IEnMin= 5 EnMin= -1894.07635255166     IErMin= 5 ErrMin= 2.04D-06
 ErrMax= 2.04D-06 EMaxC= 1.00D-01 BMatC= 4.63D-10 BMatP= 6.33D-09
 IDIUse=1 WtCom= 1.00D+00 WtEn= 0.00D+00
 Coeff-Com:  0.745D-02-0.169D+00-0.135D+00 0.401D+00 0.895D+00
 Coeff:      0.745D-02-0.169D+00-0.135D+00 0.401D+00 0.895D+00
 Gap=     0.389 Goal=   None    Shift=    0.000
 RMSDP=2.06D-07 MaxDP=4.86D-06 DE=-4.01D-08 OVMax= 2.60D-05

 Cycle  14  Pass 1  IDiag  1:
 RMSU=  7.59D-08    CP:  1.00D+00  1.05D+00  1.42D+00  2.03D+00  1.21D+00
 E= -1894.07635255357     Delta-E=       -0.000000001905 Rises=F Damp=F
 DIIS: error= 8.70D-07 at cycle   6 NSaved=   6.
 NSaved= 6 IEnMin= 6 EnMin= -1894.07635255357     IErMin= 6 ErrMin= 8.70D-07
 ErrMax= 8.70D-07 EMaxC= 1.00D-01 BMatC= 8.53D-11 BMatP= 4.63D-10
 IDIUse=1 WtCom= 1.00D+00 WtEn= 0.00D+00
 Coeff-Com: -0.313D-02 0.828D-01 0.350D-01-0.276D+00 0.144D+00 0.102D+01
 Coeff:     -0.313D-02 0.828D-01 0.350D-01-0.276D+00 0.144D+00 0.102D+01
 Gap=     0.389 Goal=   None    Shift=    0.000
 RMSDP=8.42D-08 MaxDP=2.28D-06 DE=-1.91D-09 OVMax= 1.00D-05

 Cycle  15  Pass 1  IDiag  1:
 RMSU=  3.12D-08    CP:  1.00D+00  1.05D+00  1.43D+00  2.07D+00  1.33D+00
                    CP:  1.13D+00
 E= -1894.07635255383     Delta-E=       -0.000000000257 Rises=F Damp=F
 DIIS: error= 3.18D-07 at cycle   7 NSaved=   7.
 NSaved= 7 IEnMin= 7 EnMin= -1894.07635255383     IErMin= 7 ErrMin= 3.18D-07
 ErrMax= 3.18D-07 EMaxC= 1.00D-01 BMatC= 1.03D-11 BMatP= 8.53D-11
 IDIUse=1 WtCom= 1.00D+00 WtEn= 0.00D+00
 Coeff-Com: -0.916D-03 0.208D-01 0.153D-01-0.514D-01-0.991D-01 0.104D-02
 Coeff-Com:  0.111D+01
 Coeff:     -0.916D-03 0.208D-01 0.153D-01-0.514D-01-0.991D-01 0.104D-02
 Coeff:      0.111D+01
 Gap=     0.389 Goal=   None    Shift=    0.000
 RMSDP=2.98D-08 MaxDP=9.69D-07 DE=-2.57D-10 OVMax= 3.43D-06

 Cycle  16  Pass 1  IDiag  1:
 RMSU=  1.20D-08    CP:  1.00D+00  1.05D+00  1.43D+00  2.08D+00  1.35D+00
                    CP:  1.26D+00  1.34D+00
 E= -1894.07635255389     Delta-E=       -0.000000000063 Rises=F Damp=F
 DIIS: error= 9.90D-08 at cycle   8 NSaved=   8.
 NSaved= 8 IEnMin= 8 EnMin= -1894.07635255389     IErMin= 8 ErrMin= 9.90D-08
 ErrMax= 9.90D-08 EMaxC= 1.00D-01 BMatC= 3.43D-12 BMatP= 1.03D-11
 IDIUse=1 WtCom= 1.00D+00 WtEn= 0.00D+00
 Coeff-Com:  0.409D-03-0.120D-01-0.269D-02 0.474D-01-0.673D-01-0.252D+00
 Coeff-Com:  0.401D+00 0.885D+00
 Coeff:      0.409D-03-0.120D-01-0.269D-02 0.474D-01-0.673D-01-0.252D+00
 Coeff:      0.401D+00 0.885D+00
 Gap=     0.389 Goal=   None    Shift=    0.000
 RMSDP=1.33D-08 MaxDP=3.36D-07 DE=-6.28D-11 OVMax= 1.36D-06

 Cycle  17  Pass 1  IDiag  1:
 RMSU=  5.34D-09    CP:  1.00D+00  1.05D+00  1.43D+00  2.08D+00  1.35D+00
                    CP:  1.30D+00  1.56D+00  1.01D+00
 E= -1894.07635255387     Delta-E=        0.000000000024 Rises=F Damp=F
 DIIS: error= 7.36D-08 at cycle   9 NSaved=   9.
 NSaved= 9 IEnMin= 8 EnMin= -1894.07635255389     IErMin= 9 ErrMin= 7.36D-08
 ErrMax= 7.36D-08 EMaxC= 1.00D-01 BMatC= 2.25D-13 BMatP= 3.43D-12
 IDIUse=1 WtCom= 1.00D+00 WtEn= 0.00D+00
 Coeff-Com:  0.770D-04-0.174D-02-0.117D-02 0.400D-02 0.101D-01-0.857D-03
 Coeff-Com: -0.765D-01-0.418D-01 0.111D+01
 Coeff:      0.770D-04-0.174D-02-0.117D-02 0.400D-02 0.101D-01-0.857D-03
 Coeff:     -0.765D-01-0.418D-01 0.111D+01
 Gap=     0.389 Goal=   None    Shift=    0.000
 RMSDP=4.12D-09 MaxDP=9.97D-08 DE= 2.36D-11 OVMax= 5.23D-07

 SCF Done:  E(RHF) =  -1894.07635255     A.U. after   17 cycles
             Convg  =    0.4121D-08             -V/T =  2.0002
 KE= 1.893611626022D+03 PE=-1.142050291075D+04 EE= 4.144698609326D+03
 Leave Link  502 at Sat Aug 27 10:34:06 2022, MaxMem=  209715200 cpu:     790.2
 (Enter /opt/gaussian/l601.exe)
 Copying SCF densities to generalized density rwf, IOpCl= 0 IROHF=0.

 **********************************************************************

            Population analysis using the SCF density.

 **********************************************************************

 Orbital symmetries:
       Occupied  (A) (A) (A) (A) (A) (A) (A) (A) (A) (A) (A) (A)
                 (A) (A) (A) (A) (A) (A) (A) (A) (A) (A) (A) (A)
                 (A) (A) (A) (A) (A) (A) (A) (A) (A) (A) (A) (A)
                 (A) (A) (A) (A) (A) (A) (A) (A) (A) (A) (A) (A)
                 (A) (A) (A) (A) (A) (A) (A) (A) (A) (A) (A) (A)
                 (A) (A) (A) (A) (A) (A) (A) (A) (A) (A) (A) (A)
                 (A) (A) (A) (A) (A) (A) (A) (A) (A) (A) (A) (A)
                 (A) (A) (A) (A) (A) (A) (A) (A) (A) (A) (A) (A)
                 (A) (A) (A) (A) (A) (A) (A) (A) (A) (A) (A) (A)
                 (A) (A) (A) (A) (A) (A) (A) (A) (A) (A) (A) (A)
                 (A) (A) (A)
       Virtual   (A) (A) (A) (A) (A) (A) (A) (A) (A) (A) (A) (A)
                 (A) (A) (A) (A) (A) (A) (A) (A) (A) (A) (A) (A)
                 (A) (A) (A) (A) (A) (A) (A) (A) (A) (A) (A) (A)
                 (A) (A) (A) (A) (A) (A) (A) (A) (A) (A) (A) (A)
                 (A) (A) (A) (A) (A) (A) (A) (A) (A) (A) (A) (A)
                 (A) (A) (A) (A) (A) (A) (A) (A) (A) (A) (A) (A)
                 (A) (A) (A) (A) (A) (A) (A) (A) (A) (A) (A) (A)
                 (A) (A) (A) (A) (A) (A) (A) (A) (A) (A) (A) (A)
                 (A) (A) (A) (A) (A) (A) (A) (A) (A) (A) (A) (A)
                 (A) (A) (A) (A) (A) (A) (A) (A) (A) (A) (A) (A)
                 (A) (A) (A) (A) (A) (A) (A) (A) (A) (A) (A) (A)
                 (A) (A) (A) (A) (A) (A) (A) (A) (A) (A) (A) (A)
                 (A) (A) (A) (A) (A) (A) (A) (A) (A) (A) (A) (A)
                 (A) (A) (A) (A) (A) (A) (A) (A) (A) (A) (A) (A)
                 (A) (A) (A) (A) (A) (A) (A) (A) (A) (A) (A) (A)
                 (A) (A) (A) (A) (A) (A) (A) (A) (A) (A) (A) (A)
                 (A) (A) (A) (A) (A) (A) (A) (A) (A) (A) (A) (A)
                 (A) (A) (A) (A) (A) (A) (A) (A) (A) (A) (A) (A)
                 (A) (A) (A) (A) (A) (A) (A) (A) (A) (A) (A) (A)
                 (A)
 The electronic state is 1-A.
 Alpha  occ. eigenvalues -- -104.83803 -20.57693 -20.55100 -15.67035 -15.65697
 Alpha  occ. eigenvalues --  -15.65574 -15.62028 -15.62005 -15.61541 -11.39375
 Alpha  occ. eigenvalues --  -11.33393 -11.32649 -11.31658 -11.31392 -11.30631
 Alpha  occ. eigenvalues --  -11.30178 -11.29766 -11.28760 -11.28105 -11.27949
 Alpha  occ. eigenvalues --  -11.27909 -11.27780 -11.27741 -11.27601 -11.27365
 Alpha  occ. eigenvalues --  -11.27004 -11.26377 -11.26320 -11.26240 -11.26137
 Alpha  occ. eigenvalues --  -11.25777 -11.25172 -11.25129 -11.25057 -10.58030
 Alpha  occ. eigenvalues --   -8.04904  -8.04450  -8.04441  -1.46303  -1.41027
 Alpha  occ. eigenvalues --   -1.39617  -1.39442  -1.28454  -1.24350  -1.22447
 Alpha  occ. eigenvalues --   -1.17167  -1.16967  -1.15488  -1.10604  -1.09153
 Alpha  occ. eigenvalues --   -1.07223  -1.05000  -1.04670  -1.03046  -1.02536
 Alpha  occ. eigenvalues --   -1.02365  -1.00309  -0.96397  -0.92808  -0.89156
 Alpha  occ. eigenvalues --   -0.88227  -0.86203  -0.84840  -0.84614  -0.83484
 Alpha  occ. eigenvalues --   -0.82057  -0.81395  -0.78603  -0.76645  -0.75012
 Alpha  occ. eigenvalues --   -0.73274  -0.71941  -0.71710  -0.71050  -0.70581
 Alpha  occ. eigenvalues --   -0.68460  -0.67607  -0.66887  -0.65505  -0.65405
 Alpha  occ. eigenvalues --   -0.64113  -0.63780  -0.63086  -0.62620  -0.62497
 Alpha  occ. eigenvalues --   -0.62106  -0.61766  -0.61303  -0.60956  -0.60675
 Alpha  occ. eigenvalues --   -0.60145  -0.59651  -0.59137  -0.57796  -0.57290
 Alpha  occ. eigenvalues --   -0.56182  -0.55069  -0.54376  -0.53540  -0.53250
 Alpha  occ. eigenvalues --   -0.52747  -0.52527  -0.52312  -0.50770  -0.50619
 Alpha  occ. eigenvalues --   -0.49538  -0.48718  -0.48311  -0.47052  -0.45444
 Alpha  occ. eigenvalues --   -0.45097  -0.44597  -0.42298  -0.42266  -0.41291
 Alpha  occ. eigenvalues --   -0.38593  -0.36767  -0.35933  -0.35248  -0.33873
 Alpha  occ. eigenvalues --   -0.33659  -0.32476  -0.29437
 Alpha virt. eigenvalues --    0.09449   0.09758   0.10117   0.10467   0.12690
 Alpha virt. eigenvalues --    0.14542   0.15747   0.16494   0.19167   0.19637
 Alpha virt. eigenvalues --    0.20858   0.21537   0.22498   0.22793   0.23634
 Alpha virt. eigenvalues --    0.24049   0.24651   0.24893   0.25530   0.26963
 Alpha virt. eigenvalues --    0.27722   0.28047   0.28484   0.29464   0.29768
 Alpha virt. eigenvalues --    0.30902   0.31474   0.31753   0.32192   0.32847
 Alpha virt. eigenvalues --    0.32964   0.34055   0.34471   0.35283   0.35708
 Alpha virt. eigenvalues --    0.36175   0.37103   0.38213   0.38861   0.39518
 Alpha virt. eigenvalues --    0.40316   0.40504   0.40778   0.41513   0.42625
 Alpha virt. eigenvalues --    0.43098   0.43456   0.44665   0.45583   0.46553
 Alpha virt. eigenvalues --    0.47541   0.48095   0.49725   0.50839   0.51473
 Alpha virt. eigenvalues --    0.51821   0.53191   0.55343   0.55647   0.56664
 Alpha virt. eigenvalues --    0.57081   0.58036   0.59684   0.60427   0.61180
 Alpha virt. eigenvalues --    0.62459   0.62969   0.63071   0.63192   0.67677
 Alpha virt. eigenvalues --    0.70032   0.70582   0.71544   0.72271   0.72726
 Alpha virt. eigenvalues --    0.73616   0.73802   0.74358   0.74947   0.75172
 Alpha virt. eigenvalues --    0.75665   0.75805   0.76669   0.77644   0.78300
 Alpha virt. eigenvalues --    0.79163   0.79305   0.79647   0.80071   0.80390
 Alpha virt. eigenvalues --    0.80948   0.81329   0.82025   0.82659   0.82981
 Alpha virt. eigenvalues --    0.83331   0.83429   0.84704   0.84966   0.85358
 Alpha virt. eigenvalues --    0.85476   0.85775   0.85982   0.86325   0.86723
 Alpha virt. eigenvalues --    0.87104   0.87694   0.88078   0.88608   0.89001
 Alpha virt. eigenvalues --    0.89626   0.90008   0.90456   0.90560   0.91085
 Alpha virt. eigenvalues --    0.91997   0.92123   0.93594   0.93901   0.94193
 Alpha virt. eigenvalues --    0.94899   0.95870   0.97562   0.98093   0.98406
 Alpha virt. eigenvalues --    0.98683   0.98785   0.99249   0.99498   1.01349
 Alpha virt. eigenvalues --    1.02522   1.03351   1.03650   1.04965   1.05648
 Alpha virt. eigenvalues --    1.06655   1.07139   1.07828   1.08269   1.08651
 Alpha virt. eigenvalues --    1.09587   1.10370   1.10672   1.11335   1.11444
 Alpha virt. eigenvalues --    1.12418   1.12803   1.13432   1.13727   1.14746
 Alpha virt. eigenvalues --    1.14911   1.15762   1.16116   1.16587   1.17464
 Alpha virt. eigenvalues --    1.17563   1.18030   1.18833   1.19153   1.19760
 Alpha virt. eigenvalues --    1.20560   1.21208   1.21864   1.22038   1.23125
 Alpha virt. eigenvalues --    1.23749   1.24769   1.25296   1.26305   1.26827
 Alpha virt. eigenvalues --    1.28025   1.29057   1.29385   1.29971   1.31325
 Alpha virt. eigenvalues --    1.31656   1.32317   1.34015   1.35907   1.37339
 Alpha virt. eigenvalues --    1.37748   1.38245   1.38579   1.39408   1.39830
 Alpha virt. eigenvalues --    1.42014   1.42329   1.43442   1.43928   1.44783
 Alpha virt. eigenvalues --    1.45777   1.47213   1.48948   1.49863   1.51088
 Alpha virt. eigenvalues --    1.51463   1.52300   1.54356   1.55150   1.57506
 Alpha virt. eigenvalues --    1.58845   1.59464   1.60945   1.63018   1.64452
 Alpha virt. eigenvalues --    1.66891   1.68274   1.69249   1.69321   1.70341
 Alpha virt. eigenvalues --    1.70726   1.71570   1.72642   1.77187   1.77812
 Alpha virt. eigenvalues --    1.80429   1.85991   1.87917   1.88352   1.95752
 Alpha virt. eigenvalues --    2.00294   2.01516   2.03193   2.10067   2.13820
 Alpha virt. eigenvalues --    2.16263   2.23132   2.33490   2.47009
          Condensed to atoms (all electrons):
 Mulliken atomic charges:
              1
     1  C   -0.161873
     2  O   -0.751142
     3  C    0.398411
     4  C   -0.210102
     5  C    0.058001
     6  C   -0.206854
     7  C   -0.201233
     8  C    0.321298
     9  N   -0.975063
    10  C   -0.109128
    11  C   -0.029037
    12  C   -0.216761
    13  C   -0.189656
    14  C   -0.148346
    15  C   -0.384930
    16  C   -0.150722
    17  Cl   0.166804
    18  C    0.833671
    19  O   -0.594026
    20  C   -0.140618
    21  N   -0.817957
    22  N    0.124704
    23  N   -0.320298
    24  C    0.029962
    25  C   -0.105050
    26  C   -0.234049
    27  C   -0.203273
    28  C   -0.117322
    29  C    0.395209
    30  C   -0.305377
    31  C    0.075857
    32  N   -0.251727
    33  N   -0.661667
    34  C    0.198725
    35  H    0.183310
    36  H    0.222947
    37  H    0.136417
    38  H    0.237001
    39  H    0.209764
    40  H    0.227913
    41  H    0.193088
    42  H    0.233487
    43  H    0.221799
    44  H    0.223706
    45  H    0.240541
    46  H    0.268775
    47  H    0.251225
    48  H    0.231027
    49  H    0.245349
    50  H    0.208547
    51  H    0.213722
    52  H    0.234598
    53  H    0.234215
    54  H    0.255112
    55  H    0.411027
 Sum of Mulliken atomic charges =   0.00000
 Mulliken charges with hydrogens summed into heavy atoms:
              1
     1  C    0.380801
     2  O   -0.751142
     3  C    0.398411
     4  C    0.026899
     5  C    0.058001
     6  C    0.002910
     7  C    0.026679
     8  C    0.321298
     9  N   -0.975063
    10  C    0.317446
    11  C   -0.029037
    12  C    0.005038
    13  C    0.034050
    14  C    0.092195
    15  C   -0.384930
    16  C    0.118053
    17  Cl   0.166804
    18  C    0.833671
    19  O   -0.594026
    20  C    0.341634
    21  N   -0.817957
    22  N    0.124704
    23  N   -0.320298
    24  C    0.029962
    25  C    0.140299
    26  C   -0.025502
    27  C    0.010449
    28  C    0.117276
    29  C    0.395209
    30  C   -0.305377
    31  C    0.310071
    32  N   -0.251727
    33  N   -0.250640
    34  C    0.453838
 Sum of Mulliken charges with hydrogens summed into heavy atoms =   0.00000
 Electronic spatial extent (au):  <R**2>=          19637.8430
 Charge=              0.0000 electrons
 Dipole moment (field-independent basis, Debye):
    X=             -0.1457    Y=              8.6081    Z=              2.0767  Tot=              8.8562
 Quadrupole moment (field-independent basis, Debye-Ang):
   XX=           -195.3624   YY=           -211.1198   ZZ=           -202.7000
   XY=              1.5045   XZ=             -1.8823   YZ=              7.5423
 Traceless Quadrupole moment (field-independent basis, Debye-Ang):
   XX=              7.6983   YY=             -8.0590   ZZ=              0.3607
   XY=              1.5045   XZ=             -1.8823   YZ=              7.5423
 Octapole moment (field-independent basis, Debye-Ang**2):
  XXX=            -52.1390  YYY=             77.4146  ZZZ=             23.3511  XYY=             80.1039
  XXY=            212.9419  XXZ=            -94.9407  XZZ=            -48.0707  YZZ=             23.4442
  YYZ=              8.4315  XYZ=            -84.8295
 Hexadecapole moment (field-independent basis, Debye-Ang**3):
 XXXX=         -18270.9214 YYYY=          -6717.5899 ZZZZ=          -2105.4594 XXXY=           1475.7532
 XXXZ=            177.5648 YYYX=           -537.0928 YYYZ=            119.9562 ZZZX=             -9.9983
 ZZZY=             18.9219 XXYY=          -3916.6964 XXZZ=          -3320.9548 YYZZ=          -1433.8279
 XXYZ=           -165.3505 YYXZ=            -23.0497 ZZXY=             76.0967
 N-N= 3.488116322844D+03 E-N=-1.142050291080D+04  KE= 1.893611626022D+03
 No NMR shielding tensors so no spin-rotation constants.
 Leave Link  601 at Sat Aug 27 10:34:06 2022, MaxMem=  209715200 cpu:       1.5
 (Enter /opt/gaussian/l701.exe)
 Compute integral first derivatives.
 ... and contract with generalized density number  0.
 Leave Link  701 at Sat Aug 27 10:34:06 2022, MaxMem=  209715200 cpu:       1.4
 (Enter /opt/gaussian/l702.exe)
 L702 exits ... SP integral derivatives will be done elsewhere.
 Leave Link  702 at Sat Aug 27 10:34:06 2022, MaxMem=  209715200 cpu:       0.2
 (Enter /opt/gaussian/l703.exe)
 Compute integral first derivatives, UseDBF=F ICtDFT=           0.
 Integral derivatives from FoFDir, PRISM(SPDF).
 Calling FoFJK, ICntrl=      2127 FMM=F ISym2X=0 I1Cent= 0 IOpClX= 0 NMat=1 NMatS=1 NMatT=0.
 FoFCou: FMM=F IPFlag=           0 FMFlag=      100000 FMFlg1=         800
         NFxFlg=           0 DoJE=F BraDBF=F KetDBF=F FulRan=T
         Omega=  0.000000  0.000000  1.000000  0.000000  0.000000 ICntrl=    2127 IOpCl=  0
         NMat0=    1 NMatS0=    1 NMatT0=    0 NMatD0=    1 NMtDS0=    0 NMtDT0=    0
         I1Cent=           0 NGrid=           0.
 Symmetry not used in FoFCou.
 Leave Link  703 at Sat Aug 27 10:34:44 2022, MaxMem=  209715200 cpu:     299.5
 (Enter /opt/gaussian/l716.exe)
 Dipole        =-5.73250509D-02 3.38668306D+00 8.17022532D-01
 ***** Axes restored to original set *****
 -------------------------------------------------------------------
 Center     Atomic                   Forces (Hartrees/Bohr)
 Number     Number              X              Y              Z
 -------------------------------------------------------------------
      1        6           0.004713273    0.035889379    0.003215833
      2        8          -0.004395910   -0.015702030   -0.017338904
      3        6           0.007917288   -0.020607349    0.002146297
      4        6           0.002840851    0.003923730    0.002241201
      5        6           0.025282018    0.001675608    0.003505148
      6        6          -0.002743671   -0.007286677   -0.003126162
      7        6           0.010708310    0.000731852    0.001215907
      8        6          -0.030358655    0.004898526   -0.008546648
      9        7           0.009719041    0.017890371   -0.008955160
     10        6          -0.003060277   -0.009803890    0.043374294
     11        6           0.008649134   -0.009059491   -0.004073291
     12        6           0.001640510   -0.001400274    0.005299497
     13        6           0.006031398   -0.006233333    0.007321664
     14        6           0.003078695   -0.003337209   -0.006724629
     15        6           0.002468248    0.000871181    0.066902952
     16        6          -0.001498415    0.002649288   -0.006394207
     17       17          -0.000388820   -0.002320778   -0.057730060
     18        6          -0.022261746    0.010591076   -0.014126168
     19        8           0.019715288   -0.024615967    0.018636895
     20        6           0.003903797   -0.014170486    0.023755859
     21        7           0.015012272   -0.001665747   -0.048704904
     22        7          -0.006053353   -0.008920423    0.013537104
     23        7           0.015118880   -0.013159528   -0.023843601
     24        6          -0.019806397   -0.039422355    0.021571900
     25        6          -0.000322397    0.012172904    0.001767066
     26        6           0.008915550    0.006670989   -0.010439928
     27        6           0.002537900   -0.011116859   -0.005871653
     28        6          -0.006039865   -0.009213363    0.005422371
     29        6           0.003115488    0.044780533    0.012033096
     30        6          -0.059239285   -0.013545528   -0.015750757
     31        6          -0.017920187   -0.029015982   -0.012614120
     32        7           0.034139854    0.026957794    0.015500381
     33        7           0.042995278   -0.014082618    0.003616722
     34        6          -0.011895654    0.026126660    0.006075391
     35        1          -0.012758962   -0.009774208   -0.023571296
     36        1          -0.013106063   -0.003081742    0.023868574
     37        1           0.024087290    0.000152367    0.003372480
     38        1           0.015029026   -0.016364442   -0.004854452
     39        1           0.007540652    0.015992713    0.010289773
     40        1          -0.014541663    0.015882139    0.007126528
     41        1          -0.016459772   -0.014797117   -0.019895066
     42        1           0.021708374    0.023255909   -0.007093791
     43        1           0.000446085   -0.000094166   -0.019020379
     44        1          -0.012304393    0.011429782   -0.010709200
     45        1          -0.013719075    0.013202304    0.008606806
     46        1           0.015543236   -0.011557240    0.011777461
     47        1           0.004056806   -0.005382771   -0.029056200
     48        1          -0.014684624    0.028412098    0.011514289
     49        1          -0.005589031   -0.018680213    0.003687025
     50        1          -0.012480535   -0.003772978    0.015259802
     51        1          -0.007669539    0.014526515    0.011850210
     52        1           0.005895441    0.017182151   -0.004237502
     53        1          -0.007160892   -0.017718487   -0.007646609
     54        1          -0.007953923    0.015953093    0.004312488
     55        1           0.001603121    0.004084293    0.001519674
 -------------------------------------------------------------------
 Cartesian Forces:  Max     0.066902952 RMS     0.017242381
 Leave Link  716 at Sat Aug 27 10:34:44 2022, MaxMem=  209715200 cpu:       0.2
 (Enter /opt/gaussian/l103.exe)

 GradGradGradGradGradGradGradGradGradGradGradGradGradGradGradGradGradGrad
 Berny optimization.
 Internal  Forces:  Max     0.057777675 RMS     0.011008833
 Search for a local minimum.
 Step number   1 out of a maximum of  304
 All quantities printed in internal units (Hartrees-Bohrs-Radians)
 RMS Force = .11009D-01 SwitMx=.10000D-02 MixMth= 1
 Mixed Optimization -- RFO/linear search
 Second derivative matrix not updated -- first step.
 ITU=  0
     Eigenvalues ---    0.00247   0.00685   0.00832   0.01132   0.01199
     Eigenvalues ---    0.01301   0.01393   0.01425   0.01511   0.01535
     Eigenvalues ---    0.01585   0.01609   0.01616   0.01693   0.01720
     Eigenvalues ---    0.01727   0.01737   0.01756   0.01777   0.01860
     Eigenvalues ---    0.01882   0.01897   0.01921   0.01945   0.01982
     Eigenvalues ---    0.02047   0.02058   0.02059   0.02086   0.02094
     Eigenvalues ---    0.02097   0.02099   0.02107   0.02114   0.02115
     Eigenvalues ---    0.02121   0.02125   0.02127   0.02130   0.02142
     Eigenvalues ---    0.02162   0.02163   0.02176   0.02180   0.02183
     Eigenvalues ---    0.02187   0.04629   0.04795   0.06499   0.06531
     Eigenvalues ---    0.10206   0.10331   0.10747   0.10920   0.13481
     Eigenvalues ---    0.13721   0.15997   0.15999   0.15999   0.16000
     Eigenvalues ---    0.16000   0.16000   0.16000   0.16000   0.16000
     Eigenvalues ---    0.16000   0.16000   0.16000   0.16000   0.16000
     Eigenvalues ---    0.16000   0.16000   0.16000   0.22000   0.22000
     Eigenvalues ---    0.22097   0.22155   0.22359   0.22582   0.22663
     Eigenvalues ---    0.23426   0.23472   0.23478   0.23493   0.24142
     Eigenvalues ---    0.24469   0.24584   0.24826   0.24901   0.24969
     Eigenvalues ---    0.24978   0.24986   0.24997   0.24998   0.24998
     Eigenvalues ---    0.24999   0.25000   0.25000   0.25000   0.25000
     Eigenvalues ---    0.28590   0.30413   0.30446   0.30580   0.30672
     Eigenvalues ---    0.31708   0.31741   0.31830   0.31955   0.33425
     Eigenvalues ---    0.33428   0.33537   0.33602   0.33614   0.33618
     Eigenvalues ---    0.33631   0.33641   0.33661   0.33769   0.33937
     Eigenvalues ---    0.34808   0.34944   0.35020   0.35817   0.35949
     Eigenvalues ---    0.38536   0.39265   0.39968   0.40101   0.40430
     Eigenvalues ---    0.41051   0.41341   0.41677   0.41859   0.42114
     Eigenvalues ---    0.42241   0.42438   0.42751   0.43020   0.43879
     Eigenvalues ---    0.44543   0.44690   0.45531   0.45568   0.45873
     Eigenvalues ---    0.45957   0.46063   0.46362   0.46669   0.46844
     Eigenvalues ---    0.46994   0.47182   0.48091   0.48837   0.49053
     Eigenvalues ---    0.51874   0.55919   0.76595   0.86830
 RFO step:  Lambda=-8.11807388D-02 EMin= 2.47381407D-03
 Linear search not attempted -- first point.
 Maximum step size (   0.300) exceeded in Quadratic search.
    -- Step size scaled by   0.692
 Iteration  1 RMS(Cart)=  0.12240154 RMS(Int)=  0.00157857
 Iteration  2 RMS(Cart)=  0.00483660 RMS(Int)=  0.00005122
 Iteration  3 RMS(Cart)=  0.00000481 RMS(Int)=  0.00005116
 Iteration  4 RMS(Cart)=  0.00000000 RMS(Int)=  0.00005116
 Variable       Old X    -DE/DX   Delta X   Delta X   Delta X     New X
                                 (Linear)    (Quad)   (Total)
    R1        2.70150   0.01882   0.00000   0.02647   0.02647   2.72797
    R2        2.11381  -0.02756   0.00000  -0.04786  -0.04786   2.06595
[...]

 Largest change from initial coordinates is atom   51       0.705 Angstoms.
 Leave Link  103 at Sat Aug 27 11:18:30 2022, MaxMem=  209715200 cpu:       0.9
 (Enter /opt/gaussian/l202.exe)
 Stoichiometry    C25H21ClN6O2
 Framework group  C1[X(C25H21ClN6O2)]
 Deg. of freedom   159
 Full point group                 C1      NOp   1
 RotChk:  IX=2 Diff= 9.90D-16
 Largest Abelian subgroup         C1      NOp   1
 Largest concise Abelian subgroup C1      NOp   1
                         Standard orientation:                         
 ---------------------------------------------------------------------
 Center     Atomic      Atomic             Coordinates (Angstroms)
 Number     Number       Type             X           Y           Z
 ---------------------------------------------------------------------
      1          6           0        1.637600   -3.119472    1.712932
      2          8           0        1.671043   -1.686454    1.909237
      3          6           0        2.282325   -0.881800    0.978793
      4          6           0        3.607211   -1.052588    0.620716
      5          6           0        4.219055   -0.189954   -0.288531
      6          6           0        3.465673    0.851233   -0.826144
      7          6           0        2.139736    1.022764   -0.462026
      8          6           0        1.536451    0.161578    0.437147
      9          7           0        0.176274    0.336460    0.849352
     10          6           0       -0.099629    1.376298    1.840719
     11          6           0       -0.943296    2.542766    1.349199
     12          6           0       -1.450315    3.443810    2.283770
     13          6           0       -2.195748    4.538264    1.880295
     14          6           0       -2.457313    4.752729    0.532765
     15          6           0       -1.955604    3.851663   -0.379590
     16          6           0       -1.205254    2.755428    0.001796
     17         17           0       -2.288626    4.104344   -2.140962
     18          6           0       -0.720825   -0.645097    0.522272
     19          8           0       -0.460233   -1.524632   -0.284640
     20          6           0       -2.076929   -0.601623    1.211275
     21          7           0       -2.930644   -1.668884    0.789278
     22          7           0       -3.050201   -2.783270    1.564129
     23          7           0       -3.803762   -3.623152    0.985299
     24          6           0       -4.214926   -3.094734   -0.228052
     25          6           0       -5.044377   -3.624919   -1.215559
     26          6           0       -5.274575   -2.850456   -2.325958
     27          6           0       -4.688422   -1.571361   -2.456138
     28          6           0       -3.868298   -1.042218   -1.488486
     29          6           0       -3.643020   -1.835729   -0.360456
     30          6           0        5.628217   -0.379161   -0.657795
     31          6           0        6.342383   -1.605682   -0.762551
     32          7           0        7.588697   -1.403812   -1.118589
     33          7           0        7.711677   -0.065638   -1.246919
     34          6           0        6.555671    0.578942   -0.979577
     35          1           0        0.958642   -3.495377    2.458278
     36          1           0        1.267946   -3.346587    0.725502
     37          1           0        2.618593   -3.546382    1.864028
     38          1           0        4.173531   -1.838522    1.078635
     39          1           0        3.902376    1.509610   -1.550922
     40          1           0        1.567694    1.819327   -0.894288
     41          1           0       -0.561780    0.946551    2.721557
     42          1           0        0.859549    1.753710    2.164546
     43          1           0       -1.261246    3.288697    3.329778
     44          1           0       -2.579505    5.224533    2.609443
     45          1           0       -3.035954    5.592455    0.207859
     46          1           0       -0.834652    2.078191   -0.738878
     47          1           0       -1.939814   -0.717824    2.276592
     48          1           0       -2.564900    0.347115    1.037046
     49          1           0       -5.476201   -4.598335   -1.098674
     50          1           0       -5.904338   -3.215234   -3.113135
     51          1           0       -4.888091   -1.000171   -3.341929
     52          1           0       -3.419112   -0.076512   -1.605659
     53          1           0        5.978290   -2.595497   -0.610726
     54          1           0        6.475799    1.641088   -1.015519
     55          1           0        8.584298    0.317979   -1.506713
 ---------------------------------------------------------------------
 Rotational constants (GHZ):      0.1343455      0.0688790      0.0540205
 Leave Link  202 at Sat Aug 27 11:18:30 2022, MaxMem=  209715200 cpu:       0.0
 (Enter /opt/gaussian/l601.exe)
 Copying SCF densities to generalized density rwf, IOpCl= 0 IROHF=0.

 **********************************************************************

            Population analysis using the SCF density.

 **********************************************************************

 Orbital symmetries:
       Occupied  (A) (A) (A) (A) (A) (A) (A) (A) (A) (A) (A) (A)
                 (A) (A) (A) (A) (A) (A) (A) (A) (A) (A) (A) (A)
                 (A) (A) (A) (A) (A) (A) (A) (A) (A) (A) (A) (A)
                 (A) (A) (A) (A) (A) (A) (A) (A) (A) (A) (A) (A)
                 (A) (A) (A) (A) (A) (A) (A) (A) (A) (A) (A) (A)
                 (A) (A) (A) (A) (A) (A) (A) (A) (A) (A) (A) (A)
                 (A) (A) (A) (A) (A) (A) (A) (A) (A) (A) (A) (A)
                 (A) (A) (A) (A) (A) (A) (A) (A) (A) (A) (A) (A)
                 (A) (A) (A) (A) (A) (A) (A) (A) (A) (A) (A) (A)
                 (A) (A) (A) (A) (A) (A) (A) (A) (A) (A) (A) (A)
                 (A) (A) (A)
       Virtual   (A) (A) (A) (A) (A) (A) (A) (A) (A) (A) (A) (A)
                 (A) (A) (A) (A) (A) (A) (A) (A) (A) (A) (A) (A)
                 (A) (A) (A) (A) (A) (A) (A) (A) (A) (A) (A) (A)
                 (A) (A) (A) (A) (A) (A) (A) (A) (A) (A) (A) (A)
                 (A) (A) (A) (A) (A) (A) (A) (A) (A) (A) (A) (A)
                 (A) (A) (A) (A) (A) (A) (A) (A) (A) (A) (A) (A)
                 (A) (A) (A) (A) (A) (A) (A) (A) (A) (A) (A) (A)
                 (A) (A) (A) (A) (A) (A) (A) (A) (A) (A) (A) (A)
                 (A) (A) (A) (A) (A) (A) (A) (A) (A) (A) (A) (A)
                 (A) (A) (A) (A) (A) (A) (A) (A) (A) (A) (A) (A)
                 (A) (A) (A) (A) (A) (A) (A) (A) (A) (A) (A) (A)
                 (A) (A) (A) (A) (A) (A) (A) (A) (A) (A) (A) (A)
                 (A) (A) (A) (A) (A) (A) (A) (A) (A) (A) (A) (A)
                 (A) (A) (A) (A) (A) (A) (A) (A) (A) (A) (A) (A)
                 (A) (A) (A) (A) (A) (A) (A) (A) (A) (A) (A) (A)
                 (A) (A) (A) (A) (A) (A) (A) (A) (A) (A) (A) (A)
                 (A) (A) (A) (A) (A) (A) (A) (A) (A) (A) (A) (A)
                 (A) (A) (A) (A) (A) (A) (A) (A) (A) (A) (A) (A)
                 (A) (A) (A) (A) (A) (A) (A) (A) (A) (A) (A) (A)
                 (A)
 The electronic state is 1-A.
 Alpha  occ. eigenvalues -- -104.83063 -20.57834 -20.54508 -15.66197 -15.65275
 Alpha  occ. eigenvalues --  -15.64931 -15.61426 -15.61004 -15.60824 -11.38387
 Alpha  occ. eigenvalues --  -11.33416 -11.31353 -11.30850 -11.30468 -11.29359
 Alpha  occ. eigenvalues --  -11.29274 -11.28773 -11.28452 -11.27782 -11.27277
 Alpha  occ. eigenvalues --  -11.27174 -11.27117 -11.26972 -11.26733 -11.26615
 Alpha  occ. eigenvalues --  -11.26358 -11.25509 -11.25200 -11.25091 -11.25055
 Alpha  occ. eigenvalues --  -11.24801 -11.24427 -11.24424 -11.23930 -10.56983
 Alpha  occ. eigenvalues --   -8.03832  -8.03445  -8.03429  -1.47307  -1.41999
 Alpha  occ. eigenvalues --   -1.40688  -1.39825  -1.28144  -1.24714  -1.21419
 Alpha  occ. eigenvalues --   -1.17638  -1.17499  -1.13514  -1.12651  -1.09683
 Alpha  occ. eigenvalues --   -1.07533  -1.06260  -1.05106  -1.03620  -1.02950
 Alpha  occ. eigenvalues --   -1.02627  -1.00884  -0.97313  -0.94618  -0.88921
 Alpha  occ. eigenvalues --   -0.88543  -0.86467  -0.85259  -0.84863  -0.83621
 Alpha  occ. eigenvalues --   -0.82868  -0.82063  -0.79644  -0.77428  -0.76014
 Alpha  occ. eigenvalues --   -0.73821  -0.72743  -0.72139  -0.71837  -0.71056
 Alpha  occ. eigenvalues --   -0.69057  -0.68166  -0.66847  -0.65366  -0.65161
 Alpha  occ. eigenvalues --   -0.64607  -0.64324  -0.64129  -0.63244  -0.62865
 Alpha  occ. eigenvalues --   -0.62501  -0.62350  -0.61881  -0.61462  -0.60839
 Alpha  occ. eigenvalues --   -0.60384  -0.60111  -0.59784  -0.58285  -0.58225
 Alpha  occ. eigenvalues --   -0.55463  -0.55261  -0.54513  -0.53794  -0.53463
 Alpha  occ. eigenvalues --   -0.53115  -0.52578  -0.51523  -0.51243  -0.50393
 Alpha  occ. eigenvalues --   -0.49400  -0.49251  -0.47617  -0.46509  -0.45541
 Alpha  occ. eigenvalues --   -0.45417  -0.44515  -0.42740  -0.42123  -0.41032
 Alpha  occ. eigenvalues --   -0.38940  -0.37285  -0.36783  -0.35765  -0.33914
 Alpha  occ. eigenvalues --   -0.33509  -0.31921  -0.30789
 Alpha virt. eigenvalues --    0.10023   0.10553   0.10956   0.11292   0.13383
 Alpha virt. eigenvalues --    0.15941   0.16435   0.16866   0.17283   0.20542
 Alpha virt. eigenvalues --    0.21251   0.22181   0.23090   0.23777   0.24646
 Alpha virt. eigenvalues --    0.24976   0.25154   0.25578   0.26036   0.26884
 Alpha virt. eigenvalues --    0.28249   0.28654   0.29378   0.30009   0.30325
 Alpha virt. eigenvalues --    0.30857   0.31367   0.32105   0.32383   0.32832
 Alpha virt. eigenvalues --    0.33582   0.34426   0.35082   0.35415   0.36032
 Alpha virt. eigenvalues --    0.37480   0.37901   0.38175   0.39488   0.40518
 Alpha virt. eigenvalues --    0.40964   0.41173   0.41836   0.42366   0.43702
 Alpha virt. eigenvalues --    0.44440   0.44640   0.45832   0.46091   0.47152
 Alpha virt. eigenvalues --    0.48090   0.48364   0.49676   0.51805   0.52112
 Alpha virt. eigenvalues --    0.52867   0.53397   0.54878   0.56172   0.57938
 Alpha virt. eigenvalues --    0.58656   0.59115   0.59407   0.60631   0.60913
 Alpha virt. eigenvalues --    0.61498   0.62744   0.63471   0.64304   0.68056
 Alpha virt. eigenvalues --    0.68727   0.71258   0.71761   0.72423   0.72798
 Alpha virt. eigenvalues --    0.73828   0.73991   0.74531   0.74876   0.75185
 Alpha virt. eigenvalues --    0.75537   0.76054   0.76427   0.77467   0.78564
 Alpha virt. eigenvalues --    0.79064   0.79547   0.79833   0.79958   0.80928
 Alpha virt. eigenvalues --    0.81525   0.81842   0.82667   0.83323   0.83520
 Alpha virt. eigenvalues --    0.83773   0.84017   0.85065   0.85099   0.85223
 Alpha virt. eigenvalues --    0.85870   0.85945   0.86182   0.86376   0.86753
 Alpha virt. eigenvalues --    0.87115   0.87651   0.88442   0.89000   0.89540
 Alpha virt. eigenvalues --    0.90672   0.90916   0.91101   0.91410   0.91500
 Alpha virt. eigenvalues --    0.92241   0.92813   0.94251   0.95113   0.95208
 Alpha virt. eigenvalues --    0.96009   0.97091   0.97303   0.98356   0.98425
 Alpha virt. eigenvalues --    0.98864   0.99690   1.00692   1.01415   1.01916
 Alpha virt. eigenvalues --    1.02667   1.03574   1.04018   1.06155   1.06795
 Alpha virt. eigenvalues --    1.07590   1.08004   1.08957   1.09417   1.09818
 Alpha virt. eigenvalues --    1.11123   1.11421   1.11852   1.12192   1.12877
 Alpha virt. eigenvalues --    1.13023   1.13990   1.14435   1.15158   1.15308
 Alpha virt. eigenvalues --    1.15543   1.16970   1.17120   1.17925   1.18545
 Alpha virt. eigenvalues --    1.18906   1.19031   1.19889   1.20341   1.21140
 Alpha virt. eigenvalues --    1.21886   1.22157   1.22227   1.23179   1.23512
 Alpha virt. eigenvalues --    1.25024   1.25582   1.26255   1.26801   1.27080
 Alpha virt. eigenvalues --    1.28165   1.29159   1.29376   1.30067   1.30832
 Alpha virt. eigenvalues --    1.31067   1.32518   1.33345   1.34891   1.35963
 Alpha virt. eigenvalues --    1.36478   1.37193   1.37851   1.38542   1.39428
 Alpha virt. eigenvalues --    1.40772   1.41844   1.42728   1.44184   1.44641
 Alpha virt. eigenvalues --    1.44877   1.45729   1.47366   1.49148   1.49712
 Alpha virt. eigenvalues --    1.50476   1.53335   1.54380   1.54760   1.56043
 Alpha virt. eigenvalues --    1.57427   1.58206   1.60594   1.61115   1.61879
 Alpha virt. eigenvalues --    1.64595   1.67615   1.68311   1.69060   1.70511
 Alpha virt. eigenvalues --    1.71323   1.73032   1.74502   1.76405   1.79272
 Alpha virt. eigenvalues --    1.83944   1.86754   1.90360   1.93508   1.96468
 Alpha virt. eigenvalues --    2.00977   2.04505   2.07563   2.12503   2.14570
 Alpha virt. eigenvalues --    2.18747   2.26101   2.37260   2.48149
          Condensed to atoms (all electrons):
 Mulliken atomic charges:
              1
     1  C   -0.137712
     2  O   -0.787033
     3  C    0.427834
     4  C   -0.213757
     5  C    0.069119
     6  C   -0.219381
     7  C   -0.171866
     8  C    0.256031
     9  N   -0.955480
    10  C   -0.058756
    11  C   -0.030819
    12  C   -0.212699
    13  C   -0.188428
    14  C   -0.153363
    15  C   -0.316144
    16  C   -0.158014
    17  Cl   0.098189
    18  C    0.818713
    19  O   -0.584956
    20  C   -0.136212
    21  N   -0.878940
    22  N    0.094835
    23  N   -0.337762
    24  C   -0.019255
    25  C   -0.079694
    26  C   -0.233375
    27  C   -0.205821
    28  C   -0.068932
    29  C    0.483930
    30  C   -0.315831
    31  C    0.080059
    32  N   -0.246495
    33  N   -0.685312
    34  C    0.228930
    35  H    0.193493
    36  H    0.204125
    37  H    0.148709
    38  H    0.229447
    39  H    0.211076
    40  H    0.223840
    41  H    0.195417
    42  H    0.229231
    43  H    0.216782
    44  H    0.220762
    45  H    0.241990
    46  H    0.258841
    47  H    0.255284
    48  H    0.233332
    49  H    0.239362
    50  H    0.203565
    51  H    0.206971
    52  H    0.228392
    53  H    0.232823
    54  H    0.256548
    55  H    0.408408
 Sum of Mulliken atomic charges =   0.00000
 Mulliken charges with hydrogens summed into heavy atoms:
              1
     1  C    0.408614
     2  O   -0.787033
     3  C    0.427834
     4  C    0.015690
     5  C    0.069119
     6  C   -0.008305
     7  C    0.051974
     8  C    0.256031
     9  N   -0.955480
    10  C    0.365892
    11  C   -0.030819
    12  C    0.004083
    13  C    0.032334
    14  C    0.088627
    15  C   -0.316144
    16  C    0.100827
    17  Cl   0.098189
    18  C    0.818713
    19  O   -0.584956
    20  C    0.352404
    21  N   -0.878940
    22  N    0.094835
    23  N   -0.337762
    24  C   -0.019255
    25  C    0.159668
    26  C   -0.029810
    27  C    0.001150
    28  C    0.159460
    29  C    0.483930
    30  C   -0.315831
    31  C    0.312882
    32  N   -0.246495
    33  N   -0.276904
    34  C    0.485477
 Sum of Mulliken charges with hydrogens summed into heavy atoms =   0.00000
 Electronic spatial extent (au):  <R**2>=          19675.1611
 Charge=              0.0000 electrons
 Dipole moment (field-independent basis, Debye):
    X=              1.5950    Y=              7.1618    Z=              1.3421  Tot=              7.4590
 Quadrupole moment (field-independent basis, Debye-Ang):
   XX=           -195.9057   YY=           -205.9486   ZZ=           -203.2197
   XY=              6.2930   XZ=              3.2923   YZ=             13.5073
 Traceless Quadrupole moment (field-independent basis, Debye-Ang):
   XX=              5.7856   YY=             -4.2572   ZZ=             -1.5284
   XY=              6.2930   XZ=              3.2923   YZ=             13.5073
 Octapole moment (field-independent basis, Debye-Ang**2):
  XXX=             75.6442  YYY=             48.0726  ZZZ=              6.5732  XYY=             21.8980
  XXY=            186.3090  XXZ=            -91.5078  XZZ=            -22.4149  YZZ=             28.5409
  YYZ=             27.7926  XYZ=           -119.5040
 Hexadecapole moment (field-independent basis, Debye-Ang**3):
 XXXX=         -16367.8890 YYYY=          -7486.3117 ZZZZ=          -2388.0112 XXXY=           1562.9498
 XXXZ=            -19.2647 YYYX=           -388.1902 YYYZ=            270.6182 ZZZX=             78.2603
 ZZZY=             62.8056 XXYY=          -4061.5831 XXZZ=          -3177.3508 YYZZ=          -1694.5055
 XXYZ=            -33.4993 YYXZ=            107.0344 ZZXY=             18.4314
 N-N= 3.487780967457D+03 E-N=-1.142196005343D+04  KE= 1.895637883945D+03
 No NMR shielding tensors so no spin-rotation constants.
 Leave Link  601 at Sat Aug 27 11:18:30 2022, MaxMem=  209715200 cpu:       1.6
 (Enter /opt/gaussian/l9999.exe)
 1\1\GINC-LQCAPF-6\FOpt\RHF\6-31G\C25H21Cl1N6O2\LQCAPF-6\27-Aug-2022\0\
 \#p opt hf/6-31G\\Mol38.out\\0,1\C,18.5974485633,-6.6741979639,-0.4872
 717833\O,18.7802666681,-8.096783456,-0.2974730695\C,18.231412497,-8.98
 31761051,-1.1918596764\C,16.875626876,-9.0034336697,-1.4641579759\C,16
 .3357945606,-9.9472272435,-2.3376866043\C,17.1935609278,-10.8726776768
 ,-2.9279936849\C,18.550873938,-10.8529859758,-2.6497376416\C,19.081816
 3997,-9.9118746716,-1.7857269311\N,20.4764885868,-9.8904777587,-1.4616
 734569\C,20.9596790665,-10.8772960322,-0.4958003122\C,21.9273440139,-1
 1.9137845746,-1.0465566584\C,22.6155275989,-12.7305880104,-0.151231815
 6\C,23.4815356294,-13.7094474613,-0.6074741804\C,23.6846137263,-13.889
 0874185,-1.9700954822\C,23.0030855406,-13.071434432,-2.8435858283\C,22
 .1305624124,-12.091583965,-2.4090652866\Cl,23.2558431818,-13.280135796
 6,-4.6239617461\C,21.2025648664,-8.7925820347,-1.8393773386\O,20.76898
 42246,-7.9616531505,-2.6230620937\C,22.5921761123,-8.6407666405,-1.238
 0748084\N,23.2571941811,-7.464511384,-1.7072574693\N,23.2664519001,-6.
 3418652574,-0.9351674093\N,23.8548246775,-5.4054277196,-1.5558146748\C
 ,24.2587731389,-5.8741499376,-2.7958258734\C,24.9400588768,-5.23485532
 23,-3.8309133302\C,25.2067110167,-5.9724807952,-4.9581115187\C,24.8009
 273845,-7.3222703428,-5.0581788739\C,24.1274436353,-7.9592756688,-4.04
 34917222\C,23.8640708298,-7.2020374762,-2.8989010306\C,14.8934325852,-
 9.9612564045,-2.6156962486\C,14.0072322139,-8.8489228899,-2.6678770765
 \N,12.7820772539,-9.2268972301,-2.9452667686\N,12.8423329621,-10.56939
 50104,-3.073217279\C,14.0927578692,-11.0424076694,-2.8834748158\H,19.2
 622238106,-6.2032148307,0.2156362807\H,18.8675463474,-6.4001881944,-1.
 4948468231\H,17.5774217246,-6.3904041722,-0.271781983\H,16.2337993614,
 -8.3043529646,-0.9667190715\H,16.8094883775,-11.5888029267,-3.62736875
 14\H,19.2014950308,-11.5616898968,-3.1219949207\H,21.4112649425,-10.38
 3350687,0.3563904755\H,20.0863358551,-11.3859971035,-0.1139348864\H,22
 .4733007284,-12.6004093929,0.905539404\H,24.0044074139,-14.331840414,0
 .0918997377\H,24.3547090082,-14.6392225076,-2.3358818714\H,21.62123373
 99,-11.4763021825,-3.1208281694\H,22.508022655,-8.5416634415,-0.165554
 9419\H,23.1977626382,-9.51117962,-1.4483637306\H,25.235924469,-4.20960
 31863,-3.7360770879\H,25.7269582479,-5.5246032789,-5.7815557799\H,25.0
 228660475,-7.8622698083,-5.9581206609\H,23.813314823,-8.9793617028,-4.
 1374695556\H,14.2360871289,-7.8169389151,-2.5337794984\H,14.320103087,
 -12.0825656298,-2.9305125051\H,12.0182406476,-11.0738919988,-3.2793151
 953\\Version=EM64L-G09RevC.01\State=1-A\HF=-1894.1282539\RMSD=7.574e-0
 9\RMSF=4.990e-06\Dipole=-0.1864095,-2.8764619,0.5505756\Quadrupole=2.6
 909383,-1.7679443,-0.9229941,4.8704583,-1.2551098,-10.6174674\PG=C01 [
 X(C25H21Cl1N6O2)]\\@


 A true friend is someone who is there for
 you when he'd rather be anywhere else.
                               -- Len Wein
 Job cpu time:  0 days  6 hours  6 minutes 25.0 seconds.
 File lengths (MBytes):  RWF=     84 Int=      0 D2E=      0 Chk=     12 Scr=      1
 Normal termination of Gaussian 09 at Sat Aug 27 11:18:30 2022.
