 Entering Gaussian System, Link 0=g09
 Input=Mol32.gjf
 Output=Mol32.log
 Initial command:
 /opt/gaussian/l1.exe /home/scr/lqcapf-6/Gau-295591.inp -scrdir=/home/scr/lqcapf-6/
 Entering Link 1 = /opt/gaussian/l1.exe PID=    295593.
  
 Copyright (c) 1988,1990,1992,1993,1995,1998,2003,2009,2011,
            Gaussian, Inc.  All Rights Reserved.
  
 This is part of the Gaussian(R) 09 program.  It is based on
 the Gaussian(R) 03 system (copyright 2003, Gaussian, Inc.),
 the Gaussian(R) 98 system (copyright 1998, Gaussian, Inc.),
 the Gaussian(R) 94 system (copyright 1995, Gaussian, Inc.),
 the Gaussian 92(TM) system (copyright 1992, Gaussian, Inc.),
 the Gaussian 90(TM) system (copyright 1990, Gaussian, Inc.),
 the Gaussian 88(TM) system (copyright 1988, Gaussian, Inc.),
 the Gaussian 86(TM) system (copyright 1986, Carnegie Mellon
 University), and the Gaussian 82(TM) system (copyright 1983,
 Carnegie Mellon University). Gaussian is a federally registered
 trademark of Gaussian, Inc.
  
 This software contains proprietary and confidential information,
 including trade secrets, belonging to Gaussian, Inc.
  
 This software is provided under written license and may be
 used, copied, transmitted, or stored only in accord with that
 written license.
  
 The following legend is applicable only to US Government
 contracts under FAR:
  
                    RESTRICTED RIGHTS LEGEND
  
 Use, reproduction and disclosure by the US Government is
 subject to restrictions as set forth in subparagraphs (a)
 and (c) of the Commercial Computer Software - Restricted
 Rights clause in FAR 52.227-19.
  
 Gaussian, Inc.
 340 Quinnipiac St., Bldg. 40, Wallingford CT 06492
  
  
 ---------------------------------------------------------------
 Warning -- This program may not be used in any manner that
 competes with the business of Gaussian, Inc. or will provide
 assistance to any competitor of Gaussian, Inc.  The licensee
 of this program is prohibited from giving any competitor of
 Gaussian, Inc. access to this program.  By using this program,
 the user acknowledges that Gaussian, Inc. is engaged in the
 business of creating and licensing software in the field of
 computational chemistry and represents and warrants to the
 licensee that it is not a competitor of Gaussian, Inc. and that
 it will not use this program in any manner prohibited above.
 ---------------------------------------------------------------
  

 Cite this work as:
 Gaussian 09, Revision C.01,
 M. J. Frisch, G. W. Trucks, H. B. Schlegel, G. E. Scuseria, 
 M. A. Robb, J. R. Cheeseman, G. Scalmani, V. Barone, B. Mennucci, 
 G. A. Petersson, H. Nakatsuji, M. Caricato, X. Li, H. P. Hratchian, 
 A. F. Izmaylov, J. Bloino, G. Zheng, J. L. Sonnenberg, M. Hada, 
 M. Ehara, K. Toyota, R. Fukuda, J. Hasegawa, M. Ishida, T. Nakajima, 
 Y. Honda, O. Kitao, H. Nakai, T. Vreven, J. A. Montgomery, Jr., 
 J. E. Peralta, F. Ogliaro, M. Bearpark, J. J. Heyd, E. Brothers, 
 K. N. Kudin, V. N. Staroverov, T. Keith, R. Kobayashi, J. Normand, 
 K. Raghavachari, A. Rendell, J. C. Burant, S. S. Iyengar, J. Tomasi, 
 M. Cossi, N. Rega, J. M. Millam, M. Klene, J. E. Knox, J. B. Cross, 
 V. Bakken, C. Adamo, J. Jaramillo, R. Gomperts, R. E. Stratmann, 
 O. Yazyev, A. J. Austin, R. Cammi, C. Pomelli, J. W. Ochterski, 
 R. L. Martin, K. Morokuma, V. G. Zakrzewski, G. A. Voth, 
 P. Salvador, J. J. Dannenberg, S. Dapprich, A. D. Daniels, 
 O. Farkas, J. B. Foresman, J. V. Ortiz, J. Cioslowski, 
 and D. J. Fox, Gaussian, Inc., Wallingford CT, 2010.
 
 ******************************************
 Gaussian 09:  EM64L-G09RevC.01 23-Sep-2011
                27-Aug-2022 
 ******************************************
 %nprocshared=8
 Will use up to    8 processors via shared memory.
 %mem=1600MB
 ---------------
 #p opt hf/6-31G
 ---------------
 1/18=20,19=15,38=1/1,3;
 2/9=110,12=2,17=6,18=5,40=1/2;
 3/5=1,6=6,11=9,16=1,25=1,30=1,71=1/1,2,3;
 4//1;
 5/5=2,38=5/2;
 6/7=2,8=2,9=2,10=2,28=1/1;
 7//1,2,3,16;
 1/18=20,19=15/3(2);
 2/9=110/2;
 99//99;
 2/9=110/2;
 3/5=1,6=6,11=9,16=1,25=1,30=1,71=1/1,2,3;
 4/5=5,16=3/1;
 5/5=2,38=5/2;
 7//1,2,3,16;
 1/18=20,19=15/3(-5);
 2/9=110/2;
 6/7=2,8=2,9=2,10=2,19=2,28=1/1;
 99/9=1/99;
 Leave Link    1 at Sat Aug 27 05:02:24 2022, MaxMem=  209715200 cpu:       0.1
 (Enter /opt/gaussian/l101.exe)
 ---------
 Mol32.out
 ---------
 Charge =  0 Multiplicity = 1
 Symbolic Z-Matrix:
 Cl                    25.7886  -13.0067  -1.429 
 C                     24.2254  -12.4145  -1.1324 
 C                     23.6498  -12.5885   0.1296 
 C                     22.3635  -12.0902   0.3583 
 C                     21.6581  -11.4312  -0.653 
 C                     22.2458  -11.2669  -1.9102 
 C                     23.5326  -11.7564  -2.1527 
 C                     21.4853  -10.6111  -3.0327 
 N                     20.8737  -9.3417   -2.7172 
 C                     21.6389  -8.1804   -2.5601 
 O                     21.1346  -7.1311   -2.132 
 C                     23.1157  -8.2636   -2.9853 
 N                     23.8665  -7.0461   -2.827 
 N                     23.6746  -5.9408   -3.6283 
 N                     24.121   -4.891    -3.1101 
 C                     24.6199  -5.1824   -1.7968 
 C                     25.2145  -4.4032   -0.8065 
 C                     25.5988  -5.0433    0.3685 
 C                     25.4087  -6.4212    0.5559 
 C                     24.8225  -7.227    -0.4163 
 C                     24.4204  -6.6028   -1.5962 
 C                     19.4921  -9.3465   -2.375 
 C                     18.5492  -9.8986   -3.2686 
 C                     17.1997  -9.9185   -2.9395 
 C                     16.7448  -9.3841   -1.7256 
 C                     17.6775  -8.8158   -0.8483 
 C                     19.0328  -8.7974   -1.1604 
 C                     15.3271  -9.4187   -1.3937 
 C                     14.523   -10.514   -1.7444 
 C                     13.1685  -10.4979  -1.4149 
 C                     12.6547  -9.379    -0.7354 
 N                     13.4062  -8.3168   -0.3852 
 C                     14.7104  -8.3434   -0.7111 
 Cl                    21.649   -12.2922   1.8847 
 H                     24.2     -13.11     0.9287 
 H                     20.6441  -11.0411  -0.4626 
 H                     23.9969  -11.6323  -3.1436 
 H                     22.1758  -10.4693  -3.9155 
 H                     20.6745  -11.3311  -3.3545 
 H                     23.6256  -9.0612   -2.3702 
 H                     23.1523  -8.5505   -4.0772 
 H                     25.3708  -3.3252   -0.9534 
 H                     26.0648  -4.4549    1.1736 
 H                     25.7329  -6.8796    1.5031 
 H                     24.6835  -8.304    -0.2573 
 H                     18.8699  -10.3071  -4.2393 
 H                     16.4768  -10.3448  -3.6521 
 H                     17.3391  -8.3803    0.105 
 H                     19.7431  -8.3196   -0.4661 
 H                     14.9599  -11.3776  -2.2673 
 H                     12.5132  -11.3382  -1.6777 
 H                     11.5876  -9.3258   -0.4553 
 H                     15.2967  -7.4528   -0.419 
 
 NAtoms=     53 NQM=        0 NQMF=       0 NMMI=     53 NMMIF=      0
                NMic=       0 NMicF=      0.
                    Isotopes and Nuclear Properties:
 (Nuclear quadrupole moments (NQMom) in fm**2, nuclear magnetic moments (NMagM)
  in nuclear magnetons)

  Atom         1           2           3           4           5           6           7           8           9          10
 IAtWgt=          35          12          12          12          12          12          12          12          14          12
 AtmWgt=  34.9688527  12.0000000  12.0000000  12.0000000  12.0000000  12.0000000  12.0000000  12.0000000  14.0030740  12.0000000
 NucSpn=           3           0           0           0           0           0           0           0           2           0
 AtZEff=   0.0000000   0.0000000   0.0000000   0.0000000   0.0000000   0.0000000   0.0000000   0.0000000   0.0000000   0.0000000
 NQMom=   -8.1650000   0.0000000   0.0000000   0.0000000   0.0000000   0.0000000   0.0000000   0.0000000   2.0440000   0.0000000
 NMagM=    0.8218740   0.0000000   0.0000000   0.0000000   0.0000000   0.0000000   0.0000000   0.0000000   0.4037610   0.0000000

  Atom        11          12          13          14          15          16          17          18          19          20
 IAtWgt=          16          12          14          14          14          12          12          12          12          12
 AtmWgt=  15.9949146  12.0000000  14.0030740  14.0030740  14.0030740  12.0000000  12.0000000  12.0000000  12.0000000  12.0000000
 NucSpn=           0           0           2           2           2           0           0           0           0           0
 AtZEff=   0.0000000   0.0000000   0.0000000   0.0000000   0.0000000   0.0000000   0.0000000   0.0000000   0.0000000   0.0000000
 NQMom=    0.0000000   0.0000000   2.0440000   2.0440000   2.0440000   0.0000000   0.0000000   0.0000000   0.0000000   0.0000000
 NMagM=    0.0000000   0.0000000   0.4037610   0.4037610   0.4037610   0.0000000   0.0000000   0.0000000   0.0000000   0.0000000

  Atom        21          22          23          24          25          26          27          28          29          30
 IAtWgt=          12          12          12          12          12          12          12          12          12          12
 AtmWgt=  12.0000000  12.0000000  12.0000000  12.0000000  12.0000000  12.0000000  12.0000000  12.0000000  12.0000000  12.0000000
 NucSpn=           0           0           0           0           0           0           0           0           0           0
 AtZEff=   0.0000000   0.0000000   0.0000000   0.0000000   0.0000000   0.0000000   0.0000000   0.0000000   0.0000000   0.0000000
 NQMom=    0.0000000   0.0000000   0.0000000   0.0000000   0.0000000   0.0000000   0.0000000   0.0000000   0.0000000   0.0000000
 NMagM=    0.0000000   0.0000000   0.0000000   0.0000000   0.0000000   0.0000000   0.0000000   0.0000000   0.0000000   0.0000000

  Atom        31          32          33          34          35          36          37          38          39          40
 IAtWgt=          12          14          12          35           1           1           1           1           1           1
 AtmWgt=  12.0000000  14.0030740  12.0000000  34.9688527   1.0078250   1.0078250   1.0078250   1.0078250   1.0078250   1.0078250
 NucSpn=           0           2           0           3           1           1           1           1           1           1
 AtZEff=   0.0000000   0.0000000   0.0000000   0.0000000   0.0000000   0.0000000   0.0000000   0.0000000   0.0000000   0.0000000
 NQMom=    0.0000000   2.0440000   0.0000000  -8.1650000   0.0000000   0.0000000   0.0000000   0.0000000   0.0000000   0.0000000
 NMagM=    0.0000000   0.4037610   0.0000000   0.8218740   2.7928460   2.7928460   2.7928460   2.7928460   2.7928460   2.7928460

  Atom        41          42          43          44          45          46          47          48          49          50
 IAtWgt=           1           1           1           1           1           1           1           1           1           1
 AtmWgt=   1.0078250   1.0078250   1.0078250   1.0078250   1.0078250   1.0078250   1.0078250   1.0078250   1.0078250   1.0078250
 NucSpn=           1           1           1           1           1           1           1           1           1           1
 AtZEff=   0.0000000   0.0000000   0.0000000   0.0000000   0.0000000   0.0000000   0.0000000   0.0000000   0.0000000   0.0000000
 NQMom=    0.0000000   0.0000000   0.0000000   0.0000000   0.0000000   0.0000000   0.0000000   0.0000000   0.0000000   0.0000000
 NMagM=    2.7928460   2.7928460   2.7928460   2.7928460   2.7928460   2.7928460   2.7928460   2.7928460   2.7928460   2.7928460

  Atom        51          52          53
 IAtWgt=           1           1           1
 AtmWgt=   1.0078250   1.0078250   1.0078250
 NucSpn=           1           1           1
 AtZEff=   0.0000000   0.0000000   0.0000000
 NQMom=    0.0000000   0.0000000   0.0000000
 NMagM=    2.7928460   2.7928460   2.7928460
 Leave Link  101 at Sat Aug 27 05:02:25 2022, MaxMem=  209715200 cpu:       0.8
 (Enter /opt/gaussian/l103.exe)

 GradGradGradGradGradGradGradGradGradGradGradGradGradGradGradGradGradGrad
 Berny optimization.
 Initialization pass.
                           ----------------------------
                           !    Initial Parameters    !
                           ! (Angstroms and Degrees)  !
 --------------------------                            --------------------------
 ! Name  Definition              Value          Derivative Info.                !
 --------------------------------------------------------------------------------
 ! R1    R(1,2)                  1.6977         estimate D2E/DX2                !
 ! R2    R(2,3)                  1.3979         estimate D2E/DX2                !
 ! R3    R(2,7)                  1.3979         estimate D2E/DX2                !
 ! R4    R(3,4)                  1.3983         estimate D2E/DX2                !
 ! R5    R(3,35)                 1.1015         estimate D2E/DX2                !
 ! R6    R(4,5)                  1.3981         estimate D2E/DX2                !
 ! R7    R(4,34)                 1.6974         estimate D2E/DX2                !
 ! R8    R(5,6)                  1.3975         estimate D2E/DX2                !
 ! R9    R(5,36)                 1.103          estimate D2E/DX2                !
 ! R10   R(6,7)                  1.398          estimate D2E/DX2                !
 ! R11   R(6,8)                  1.5061         estimate D2E/DX2                !
 ! R12   R(7,37)                 1.1013         estimate D2E/DX2                !
 ! R13   R(8,9)                  1.4439         estimate D2E/DX2                !
 ! R14   R(8,38)                 1.1297         estimate D2E/DX2                !
 ! R15   R(8,39)                 1.1311         estimate D2E/DX2                !
 ! R16   R(9,10)                 1.3996         estimate D2E/DX2                !
 ! R17   R(9,22)                 1.4234         estimate D2E/DX2                !
 ! R18   R(10,11)                1.2404         estimate D2E/DX2                !
 ! R19   R(10,12)                1.539          estimate D2E/DX2                !
 ! R20   R(12,13)                1.4391         estimate D2E/DX2                !
 ! R21   R(12,40)                1.1289         estimate D2E/DX2                !
 ! R22   R(12,41)                1.1296         estimate D2E/DX2                !
 ! R23   R(13,14)                1.3786         estimate D2E/DX2                !
 ! R24   R(13,21)                1.4206         estimate D2E/DX2                !
 ! R25   R(14,15)                1.253          estimate D2E/DX2                !
 ! R26   R(15,16)                1.4348         estimate D2E/DX2                !
 ! R27   R(16,17)                1.3933         estimate D2E/DX2                !
 ! R28   R(16,21)                1.4483         estimate D2E/DX2                !
 ! R29   R(17,18)                1.3921         estimate D2E/DX2                !
 ! R30   R(17,42)                1.0991         estimate D2E/DX2                !
 ! R31   R(18,19)                1.4035         estimate D2E/DX2                !
 ! R32   R(18,43)                1.1007         estimate D2E/DX2                !
 ! R33   R(19,20)                1.3922         estimate D2E/DX2                !
 ! R34   R(19,44)                1.1011         estimate D2E/DX2                !
 ! R35   R(20,21)                1.3941         estimate D2E/DX2                !
 ! R36   R(20,45)                1.0975         estimate D2E/DX2                !
 ! R37   R(22,23)                1.4115         estimate D2E/DX2                !
 ! R38   R(22,27)                1.4099         estimate D2E/DX2                !
 ! R39   R(23,24)                1.3892         estimate D2E/DX2                !
 ! R40   R(23,46)                1.1009         estimate D2E/DX2                !
 ! R41   R(24,25)                1.4022         estimate D2E/DX2                !
 ! R42   R(24,47)                1.101          estimate D2E/DX2                !
 ! R43   R(25,26)                1.4009         estimate D2E/DX2                !
 ! R44   R(25,28)                1.4564         estimate D2E/DX2                !
 ! R45   R(26,27)                1.3909         estimate D2E/DX2                !
 ! R46   R(26,48)                1.1013         estimate D2E/DX2                !
 ! R47   R(27,49)                1.1022         estimate D2E/DX2                !
 ! R48   R(28,29)                1.4033         estimate D2E/DX2                !
 ! R49   R(28,33)                1.4151         estimate D2E/DX2                !
 ! R50   R(29,30)                1.3941         estimate D2E/DX2                !
 ! R51   R(29,50)                1.1001         estimate D2E/DX2                !
 ! R52   R(30,31)                1.4063         estimate D2E/DX2                !
 ! R53   R(30,51)                1.0975         estimate D2E/DX2                !
 ! R54   R(31,32)                1.3475         estimate D2E/DX2                !
 ! R55   R(31,52)                1.1045         estimate D2E/DX2                !
 ! R56   R(32,33)                1.3446         estimate D2E/DX2                !
 ! R57   R(33,53)                1.1055         estimate D2E/DX2                !
 ! A1    A(1,2,3)              119.5657         estimate D2E/DX2                !
 ! A2    A(1,2,7)              119.5405         estimate D2E/DX2                !
 ! A3    A(3,2,7)              120.8936         estimate D2E/DX2                !
 ! A4    A(2,3,4)              118.8209         estimate D2E/DX2                !
 ! A5    A(2,3,35)             120.5435         estimate D2E/DX2                !
 ! A6    A(4,3,35)             120.6357         estimate D2E/DX2                !
 ! A7    A(3,4,5)              120.9183         estimate D2E/DX2                !
 ! A8    A(3,4,34)             119.4653         estimate D2E/DX2                !
 ! A9    A(5,4,34)             119.6162         estimate D2E/DX2                !
 ! A10   A(4,5,6)              119.6023         estimate D2E/DX2                !
 ! A11   A(4,5,36)             120.3765         estimate D2E/DX2                !
 ! A12   A(6,5,36)             120.0211         estimate D2E/DX2                !
 ! A13   A(5,6,7)              120.132          estimate D2E/DX2                !
 ! A14   A(5,6,8)              120.6185         estimate D2E/DX2                !
 ! A15   A(7,6,8)              119.2071         estimate D2E/DX2                !
 ! A16   A(2,7,6)              119.6325         estimate D2E/DX2                !
 ! A17   A(2,7,37)             120.0548         estimate D2E/DX2                !
 ! A18   A(6,7,37)             120.311          estimate D2E/DX2                !
 ! A19   A(6,8,9)              115.7098         estimate D2E/DX2                !
 ! A20   A(6,8,38)             109.1732         estimate D2E/DX2                !
 ! A21   A(6,8,39)             107.2669         estimate D2E/DX2                !
 ! A22   A(9,8,38)             108.6199         estimate D2E/DX2                !
 ! A23   A(9,8,39)             108.5511         estimate D2E/DX2                !
 ! A24   A(38,8,39)            107.2007         estimate D2E/DX2                !
 ! A25   A(8,9,10)             121.4933         estimate D2E/DX2                !
 ! A26   A(8,9,22)             117.4325         estimate D2E/DX2                !
 ! A27   A(10,9,22)            120.4315         estimate D2E/DX2                !
 ! A28   A(9,10,11)            121.2229         estimate D2E/DX2                !
 ! A29   A(9,10,12)            116.6639         estimate D2E/DX2                !
 ! A30   A(11,10,12)           122.0864         estimate D2E/DX2                !
 ! A31   A(10,12,13)           115.118          estimate D2E/DX2                !
 ! A32   A(10,12,40)           108.7271         estimate D2E/DX2                !
 ! A33   A(10,12,41)           108.173          estimate D2E/DX2                !
 ! A34   A(13,12,40)           107.5859         estimate D2E/DX2                !
 ! A35   A(13,12,41)           107.7164         estimate D2E/DX2                !
 ! A36   A(40,12,41)           109.4267         estimate D2E/DX2                !
 ! A37   A(12,13,14)           122.801          estimate D2E/DX2                !
 ! A38   A(12,13,21)           124.2429         estimate D2E/DX2                !
 ! A39   A(14,13,21)           107.9182         estimate D2E/DX2                !
 ! A40   A(13,14,15)           112.4433         estimate D2E/DX2                !
 ! A41   A(14,15,16)           109.4076         estimate D2E/DX2                !
 ! A42   A(15,16,17)           133.265          estimate D2E/DX2                !
 ! A43   A(15,16,21)           106.145          estimate D2E/DX2                !
 ! A44   A(17,16,21)           120.5839         estimate D2E/DX2                !
 ! A45   A(16,17,18)           117.4228         estimate D2E/DX2                !
 ! A46   A(16,17,42)           120.9422         estimate D2E/DX2                !
 ! A47   A(18,17,42)           121.635          estimate D2E/DX2                !
 ! A48   A(17,18,19)           121.7835         estimate D2E/DX2                !
 ! A49   A(17,18,43)           119.2376         estimate D2E/DX2                !
 ! A50   A(19,18,43)           118.9789         estimate D2E/DX2                !
 ! A51   A(18,19,20)           122.1431         estimate D2E/DX2                !
 ! A52   A(18,19,44)           118.9268         estimate D2E/DX2                !
 ! A53   A(20,19,44)           118.9301         estimate D2E/DX2                !
 ! A54   A(19,20,21)           116.9578         estimate D2E/DX2                !
 ! A55   A(19,20,45)           121.3425         estimate D2E/DX2                !
 ! A56   A(21,20,45)           121.6996         estimate D2E/DX2                !
 ! A57   A(13,21,16)           103.8713         estimate D2E/DX2                !
 ! A58   A(13,21,20)           134.9111         estimate D2E/DX2                !
 ! A59   A(16,21,20)           121.1057         estimate D2E/DX2                !
 ! A60   A(9,22,23)            119.8362         estimate D2E/DX2                !
 ! A61   A(9,22,27)            121.4682         estimate D2E/DX2                !
 ! A62   A(23,22,27)           118.6927         estimate D2E/DX2                !
 ! A63   A(22,23,24)           120.301          estimate D2E/DX2                !
 ! A64   A(22,23,46)           120.5803         estimate D2E/DX2                !
 ! A65   A(24,23,46)           119.1142         estimate D2E/DX2                !
 ! A66   A(23,24,25)           120.9834         estimate D2E/DX2                !
 ! A67   A(23,24,47)           119.3445         estimate D2E/DX2                !
 ! A68   A(25,24,47)           119.6632         estimate D2E/DX2                !
 ! A69   A(24,25,26)           118.7353         estimate D2E/DX2                !
 ! A70   A(24,25,28)           120.2669         estimate D2E/DX2                !
 ! A71   A(26,25,28)           120.9974         estimate D2E/DX2                !
 ! A72   A(25,26,27)           120.9033         estimate D2E/DX2                !
 ! A73   A(25,26,48)           119.8611         estimate D2E/DX2                !
 ! A74   A(27,26,48)           119.235          estimate D2E/DX2                !
 ! A75   A(22,27,26)           120.371          estimate D2E/DX2                !
 ! A76   A(22,27,49)           120.1035         estimate D2E/DX2                !
 ! A77   A(26,27,49)           119.4938         estimate D2E/DX2                !
 ! A78   A(25,28,29)           121.289          estimate D2E/DX2                !
 ! A79   A(25,28,33)           121.0694         estimate D2E/DX2                !
 ! A80   A(29,28,33)           117.6408         estimate D2E/DX2                !
 ! A81   A(28,29,30)           119.2519         estimate D2E/DX2                !
 ! A82   A(28,29,50)           120.2627         estimate D2E/DX2                !
 ! A83   A(30,29,50)           120.4841         estimate D2E/DX2                !
 ! A84   A(29,30,31)           118.5792         estimate D2E/DX2                !
 ! A85   A(29,30,51)           120.9755         estimate D2E/DX2                !
 ! A86   A(31,30,51)           120.4453         estimate D2E/DX2                !
 ! A87   A(30,31,32)           123.2992         estimate D2E/DX2                !
 ! A88   A(30,31,52)           120.9194         estimate D2E/DX2                !
 ! A89   A(32,31,52)           115.7814         estimate D2E/DX2                !
 ! A90   A(31,32,33)           117.5409         estimate D2E/DX2                !
 ! A91   A(28,33,32)           123.6876         estimate D2E/DX2                !
 ! A92   A(28,33,53)           120.5616         estimate D2E/DX2                !
 ! A93   A(32,33,53)           115.7488         estimate D2E/DX2                !
 ! D1    D(1,2,3,4)            179.7642         estimate D2E/DX2                !
 ! D2    D(1,2,3,35)            -0.3051         estimate D2E/DX2                !
 ! D3    D(7,2,3,4)             -0.0718         estimate D2E/DX2                !
 ! D4    D(7,2,3,35)           179.8589         estimate D2E/DX2                !
 ! D5    D(1,2,7,6)           -179.9407         estimate D2E/DX2                !
 ! D6    D(1,2,7,37)             0.5309         estimate D2E/DX2                !
 ! D7    D(3,2,7,6)             -0.1047         estimate D2E/DX2                !
 ! D8    D(3,2,7,37)          -179.633          estimate D2E/DX2                !
 ! D9    D(2,3,4,5)              0.1412         estimate D2E/DX2                !
 ! D10   D(2,3,4,34)          -179.9916         estimate D2E/DX2                !
 ! D11   D(35,3,4,5)          -179.7894         estimate D2E/DX2                !
 ! D12   D(35,3,4,34)            0.0778         estimate D2E/DX2                !
 ! D13   D(3,4,5,6)             -0.0332         estimate D2E/DX2                !
 ! D14   D(3,4,5,36)          -179.9623         estimate D2E/DX2                !
 ! D15   D(34,4,5,6)          -179.9002         estimate D2E/DX2                !
 ! D16   D(34,4,5,36)            0.1707         estimate D2E/DX2                !
 ! D17   D(4,5,6,7)             -0.1462         estimate D2E/DX2                !
 ! D18   D(4,5,6,8)            177.4701         estimate D2E/DX2                !
 ! D19   D(36,5,6,7)           179.7831         estimate D2E/DX2                !
 ! D20   D(36,5,6,8)            -2.6005         estimate D2E/DX2                !
 ! D21   D(5,6,7,2)              0.2142         estimate D2E/DX2                !
 ! D22   D(5,6,7,37)           179.7414         estimate D2E/DX2                !
 ! D23   D(8,6,7,2)           -177.4356         estimate D2E/DX2                !
 ! D24   D(8,6,7,37)             2.0915         estimate D2E/DX2                !
 ! D25   D(5,6,8,9)             50.5879         estimate D2E/DX2                !
 ! D26   D(5,6,8,38)           173.4485         estimate D2E/DX2                !
 ! D27   D(5,6,8,39)           -70.7062         estimate D2E/DX2                !
 ! D28   D(7,6,8,9)           -131.774          estimate D2E/DX2                !
 ! D29   D(7,6,8,38)            -8.9134         estimate D2E/DX2                !
 ! D30   D(7,6,8,39)           106.9319         estimate D2E/DX2                !
 ! D31   D(6,8,9,10)            72.9663         estimate D2E/DX2                !
 ! D32   D(6,8,9,22)           -97.8784         estimate D2E/DX2                !
 ! D33   D(38,8,9,10)          -50.1859         estimate D2E/DX2                !
 ! D34   D(38,8,9,22)          138.9694         estimate D2E/DX2                !
 ! D35   D(39,8,9,10)         -166.4317         estimate D2E/DX2                !
 ! D36   D(39,8,9,22)           22.7235         estimate D2E/DX2                !
 ! D37   D(8,9,10,11)         -171.1397         estimate D2E/DX2                !
 ! D38   D(8,9,10,12)           10.7076         estimate D2E/DX2                !
 ! D39   D(22,9,10,11)          -0.5662         estimate D2E/DX2                !
 ! D40   D(22,9,10,12)        -178.7189         estimate D2E/DX2                !
 ! D41   D(8,9,22,23)          -56.1861         estimate D2E/DX2                !
 ! D42   D(8,9,22,27)          124.4388         estimate D2E/DX2                !
 ! D43   D(10,9,22,23)         132.8671         estimate D2E/DX2                !
 ! D44   D(10,9,22,27)         -46.508          estimate D2E/DX2                !
 ! D45   D(9,10,12,13)         179.1751         estimate D2E/DX2                !
 ! D46   D(9,10,12,40)         -60.076          estimate D2E/DX2                !
 ! D47   D(9,10,12,41)          58.6692         estimate D2E/DX2                !
 ! D48   D(11,10,12,13)          1.0396         estimate D2E/DX2                !
 ! D49   D(11,10,12,40)        121.7886         estimate D2E/DX2                !
 ! D50   D(11,10,12,41)       -119.4663         estimate D2E/DX2                !
 ! D51   D(10,12,13,14)        -71.1193         estimate D2E/DX2                !
 ! D52   D(10,12,13,21)         80.7001         estimate D2E/DX2                !
 ! D53   D(40,12,13,14)        167.5104         estimate D2E/DX2                !
 ! D54   D(40,12,13,21)        -40.6702         estimate D2E/DX2                !
 ! D55   D(41,12,13,14)         49.6364         estimate D2E/DX2                !
 ! D56   D(41,12,13,21)       -158.5443         estimate D2E/DX2                !
 ! D57   D(12,13,14,15)        160.7351         estimate D2E/DX2                !
 ! D58   D(21,13,14,15)          4.9584         estimate D2E/DX2                !
 ! D59   D(12,13,21,16)       -159.4396         estimate D2E/DX2                !
 ! D60   D(12,13,21,20)         24.5554         estimate D2E/DX2                !
 ! D61   D(14,13,21,16)         -4.0969         estimate D2E/DX2                !
 ! D62   D(14,13,21,20)        179.8981         estimate D2E/DX2                !
 ! D63   D(13,14,15,16)         -3.4995         estimate D2E/DX2                !
 ! D64   D(14,15,16,17)        179.7764         estimate D2E/DX2                !
 ! D65   D(14,15,16,21)          0.7086         estimate D2E/DX2                !
 ! D66   D(15,16,17,18)       -179.1273         estimate D2E/DX2                !
 ! D67   D(15,16,17,42)          0.9015         estimate D2E/DX2                !
 ! D68   D(21,16,17,18)         -0.1674         estimate D2E/DX2                !
 ! D69   D(21,16,17,42)        179.8614         estimate D2E/DX2                !
 ! D70   D(15,16,21,13)          2.1521         estimate D2E/DX2                !
 ! D71   D(15,16,21,20)        178.8486         estimate D2E/DX2                !
 ! D72   D(17,16,21,13)       -177.0594         estimate D2E/DX2                !
 ! D73   D(17,16,21,20)         -0.3629         estimate D2E/DX2                !
 ! D74   D(16,17,18,19)          0.4545         estimate D2E/DX2                !
 ! D75   D(16,17,18,43)       -179.5626         estimate D2E/DX2                !
 ! D76   D(42,17,18,19)       -179.5745         estimate D2E/DX2                !
 ! D77   D(42,17,18,43)          0.4084         estimate D2E/DX2                !
 ! D78   D(17,18,19,20)         -0.2233         estimate D2E/DX2                !
 ! D79   D(17,18,19,44)        179.8361         estimate D2E/DX2                !
 ! D80   D(43,18,19,20)        179.7937         estimate D2E/DX2                !
 ! D81   D(43,18,19,44)         -0.1469         estimate D2E/DX2                !
 ! D82   D(18,19,20,21)         -0.3068         estimate D2E/DX2                !
 ! D83   D(18,19,20,45)        179.7749         estimate D2E/DX2                !
 ! D84   D(44,19,20,21)        179.6338         estimate D2E/DX2                !
 ! D85   D(44,19,20,45)         -0.2845         estimate D2E/DX2                !
 ! D86   D(19,20,21,13)        176.0561         estimate D2E/DX2                !
 ! D87   D(19,20,21,16)          0.587          estimate D2E/DX2                !
 ! D88   D(45,20,21,13)         -4.0259         estimate D2E/DX2                !
 ! D89   D(45,20,21,16)       -179.4951         estimate D2E/DX2                !
 ! D90   D(9,22,23,24)         179.4577         estimate D2E/DX2                !
 ! D91   D(9,22,23,46)          -1.3159         estimate D2E/DX2                !
 ! D92   D(27,22,23,24)         -1.1499         estimate D2E/DX2                !
 ! D93   D(27,22,23,46)        178.0764         estimate D2E/DX2                !
 ! D94   D(9,22,27,26)        -179.9197         estimate D2E/DX2                !
 ! D95   D(9,22,27,49)           2.1361         estimate D2E/DX2                !
 ! D96   D(23,22,27,26)          0.6983         estimate D2E/DX2                !
 ! D97   D(23,22,27,49)       -177.2459         estimate D2E/DX2                !
 ! D98   D(22,23,24,25)          0.5451         estimate D2E/DX2                !
 ! D99   D(22,23,24,47)        179.4571         estimate D2E/DX2                !
 ! D100  D(46,23,24,25)       -178.6925         estimate D2E/DX2                !
 ! D101  D(46,23,24,47)          0.2194         estimate D2E/DX2                !
 ! D102  D(23,24,25,26)          0.5221         estimate D2E/DX2                !
 ! D103  D(23,24,25,28)       -179.7195         estimate D2E/DX2                !
 ! D104  D(47,24,25,26)       -178.3864         estimate D2E/DX2                !
 ! D105  D(47,24,25,28)          1.3719         estimate D2E/DX2                !
 ! D106  D(24,25,26,27)         -0.9795         estimate D2E/DX2                !
 ! D107  D(24,25,26,48)        179.3011         estimate D2E/DX2                !
 ! D108  D(28,25,26,27)        179.264          estimate D2E/DX2                !
 ! D109  D(28,25,26,48)         -0.4554         estimate D2E/DX2                !
 ! D110  D(24,25,28,29)         36.9675         estimate D2E/DX2                !
 ! D111  D(24,25,28,33)       -142.6991         estimate D2E/DX2                !
 ! D112  D(26,25,28,29)       -143.2797         estimate D2E/DX2                !
 ! D113  D(26,25,28,33)         37.0537         estimate D2E/DX2                !
 ! D114  D(25,26,27,22)          0.3679         estimate D2E/DX2                !
 ! D115  D(25,26,27,49)        178.3246         estimate D2E/DX2                !
 ! D116  D(48,26,27,22)       -179.9109         estimate D2E/DX2                !
 ! D117  D(48,26,27,49)         -1.9543         estimate D2E/DX2                !
 ! D118  D(25,28,29,30)       -179.4968         estimate D2E/DX2                !
 ! D119  D(25,28,29,50)          0.9171         estimate D2E/DX2                !
 ! D120  D(33,28,29,30)          0.1808         estimate D2E/DX2                !
 ! D121  D(33,28,29,50)       -179.4053         estimate D2E/DX2                !
 ! D122  D(25,28,33,32)        179.6291         estimate D2E/DX2                !
 ! D123  D(25,28,33,53)          0.1686         estimate D2E/DX2                !
 ! D124  D(29,28,33,32)         -0.0492         estimate D2E/DX2                !
 ! D125  D(29,28,33,53)       -179.5098         estimate D2E/DX2                !
 ! D126  D(28,29,30,31)         -0.1741         estimate D2E/DX2                !
 ! D127  D(28,29,30,51)        179.8471         estimate D2E/DX2                !
 ! D128  D(50,29,30,31)        179.411          estimate D2E/DX2                !
 ! D129  D(50,29,30,51)         -0.5678         estimate D2E/DX2                !
 ! D130  D(29,30,31,32)          0.0329         estimate D2E/DX2                !
 ! D131  D(29,30,31,52)       -179.9828         estimate D2E/DX2                !
 ! D132  D(51,30,31,32)       -179.9881         estimate D2E/DX2                !
 ! D133  D(51,30,31,52)         -0.0039         estimate D2E/DX2                !
 ! D134  D(30,31,32,33)          0.0982         estimate D2E/DX2                !
 ! D135  D(52,31,32,33)       -179.8867         estimate D2E/DX2                !
 ! D136  D(31,32,33,28)         -0.0894         estimate D2E/DX2                !
 ! D137  D(31,32,33,53)        179.3949         estimate D2E/DX2                !
 --------------------------------------------------------------------------------
 Trust Radius=3.00D-01 FncErr=1.00D-07 GrdErr=1.00D-07
 Number of steps in this run=    297 maximum allowed number of steps=    318.
 GradGradGradGradGradGradGradGradGradGradGradGradGradGradGradGradGradGrad

 Leave Link  103 at Sat Aug 27 05:02:25 2022, MaxMem=  209715200 cpu:       0.1
 (Enter /opt/gaussian/l202.exe)
 Stoichiometry    C26H19Cl2N5O
 Framework group  C1[X(C26H19Cl2N5O)]
 Deg. of freedom   153
 Full point group                 C1      NOp   1
 Largest Abelian subgroup         C1      NOp   1
 Largest concise Abelian subgroup C1      NOp   1
                         Standard orientation:                         
 ---------------------------------------------------------------------
 Center     Atomic      Atomic             Coordinates (Angstroms)
 Number     Number       Type             X           Y           Z
 ---------------------------------------------------------------------
      1         17           0       -4.244880    4.187071   -0.946265
      2          6           0       -2.769264    3.481009   -0.492062
      3          6           0       -2.184043    3.830629    0.728396
      4          6           0       -0.971089    3.235894    1.089239
      5          6           0       -0.347093    2.309473    0.248424
      6          6           0       -0.943143    1.971699   -0.969595
      7          6           0       -2.157604    2.555202   -1.342258
      8          6           0       -0.263413    1.019722   -1.918356
      9          7           0        0.183675   -0.226451   -1.342045
     10          6           0       -0.720933   -1.232609   -0.984052
     11          8           0       -0.353610   -2.229435   -0.343715
     12          6           0       -2.173354   -1.057564   -1.462055
     13          7           0       -3.070671   -2.119892   -1.091449
     14          7           0       -3.012938   -3.376876   -1.654701
     15          7           0       -3.589517   -4.241570   -0.954884
     16          6           0       -4.056141   -3.637868    0.260179
     17          6           0       -4.748935   -4.127978    1.365269
     18          6           0       -5.057658   -3.226298    2.380012
     19          6           0       -4.698795   -1.871806    2.299799
     20          6           0       -4.011136   -1.351223    1.206988
     21          6           0       -3.682745   -2.240556    0.184872
     22          6           0        1.553077   -0.320834   -0.965518
     23          6           0        2.562640   -0.074539   -1.920776
     24          6           0        3.902148   -0.152952   -1.561022
     25          6           0        4.279796   -0.487373   -0.252735
     26          6           0        3.278437   -0.753884    0.690027
     27          6           0        1.933259   -0.669947    0.346466
     28          6           0        5.688785   -0.559165    0.108962
     29          6           0        6.624939    0.339766   -0.424693
     30          6           0        7.964929    0.225810   -0.057348
     31          6           0        8.331520   -0.790092    0.843319
     32          7           0        7.451676   -1.663275    1.371606
     33          6           0        6.162880   -1.544465    1.007266
     34         17           0       -0.246145    3.648329    2.567605
     35          1           0       -2.669879    4.562549    1.392850
     36          1           0        0.609365    1.845281    0.542262
     37          1           0       -2.627806    2.294358   -2.303366
     38          1           0       -0.960901    0.790372   -2.776926
     39          1           0        0.632543    1.558496   -2.350025
     40          1           0       -2.583768   -0.098365   -1.030768
     41          1           0       -2.167467   -0.990245   -2.589588
     42          1           0       -5.037206   -5.186807    1.427512
     43          1           0       -5.598017   -3.583001    3.270142
     44          1           0       -4.969122   -1.199230    3.128646
     45          1           0       -3.740227   -0.288883    1.156275
     46          1           0        2.301037    0.169361   -2.961956
     47          1           0        4.676696    0.033368   -2.320939
     48          1           0        3.554348   -1.029631    1.719975
     49          1           0        1.164917   -0.911507    1.098910
     50          1           0        6.301964    1.129047   -1.119554
     51          1           0        8.721203    0.912060   -0.459464
     52          1           0        9.382027   -0.915219    1.160757
     53          1           0        5.468638   -2.282173    1.450046
 ---------------------------------------------------------------------
 Rotational constants (GHZ):      0.1265391      0.0596330      0.0472390
 Leave Link  202 at Sat Aug 27 05:02:25 2022, MaxMem=  209715200 cpu:       0.0
 (Enter /opt/gaussian/l301.exe)
 Standard basis: 6-31G (6D, 7F)
 Ernie: Thresh=  0.10000D-02 Tol=  0.10000D-05 Strict=F.
 There are   352 symmetry adapted basis functions of A   symmetry.
 Integral buffers will be    131072 words long.
 Raffenetti 1 integral format.
 Two-electron integral symmetry is turned on.
   352 basis functions,   872 primitive gaussians,   352 cartesian basis functions
   126 alpha electrons      126 beta electrons
       nuclear repulsion energy      3515.9622305103 Hartrees.
 IExCor=    0 DFT=F Ex=HF Corr=None ExCW=0 ScaHFX=  1.000000
 ScaDFX=  1.000000  1.000000  1.000000  1.000000 ScalE2=  1.000000  1.000000
 IRadAn=      0 IRanWt=     -1 IRanGd=            0 ICorTp=0
 NAtoms=   53 NActive=   53 NUniq=   53 SFac= 1.00D+00 NAtFMM=   60 NAOKFM=F Big=F
 Leave Link  301 at Sat Aug 27 05:02:25 2022, MaxMem=  209715200 cpu:       0.2
 (Enter /opt/gaussian/l302.exe)
 NPDir=0 NMtPBC=     1 NCelOv=     1 NCel=       1 NClECP=     1 NCelD=      1
         NCelK=      1 NCelE2=     1 NClLst=     1 CellRange=     0.0.
 One-electron integrals computed using PRISM.
 NBasis=   352 RedAO= T  NBF=   352
 NBsUse=   352 1.00D-06 NBFU=   352
 Leave Link  302 at Sat Aug 27 05:02:25 2022, MaxMem=  209715200 cpu:       2.1
 (Enter /opt/gaussian/l303.exe)
 DipDrv:  MaxL=1.
 Leave Link  303 at Sat Aug 27 05:02:25 2022, MaxMem=  209715200 cpu:       0.5
 (Enter /opt/gaussian/l401.exe)
 Harris functional with IExCor=  205 diagonalized for initial guess.
 ExpMin= 1.43D-01 ExpMax= 2.52D+04 ExpMxC= 3.78D+03 IAcc=1 IRadAn=         1 AccDes= 0.00D+00
 HarFok:  IExCor=  205 AccDes= 0.00D+00 IRadAn=         1 IDoV= 1
 ScaDFX=  1.000000  1.000000  1.000000  1.000000
 FoFCou: FMM=F IPFlag=           0 FMFlag=      100000 FMFlg1=           0
         NFxFlg=           0 DoJE=T BraDBF=F KetDBF=T FulRan=T
         Omega=  0.000000  0.000000  1.000000  0.000000  0.000000 ICntrl=     500 IOpCl=  0
         NMat0=    1 NMatS0=    1 NMatT0=    0 NMatD0=    1 NMtDS0=    0 NMtDT0=    0
         I1Cent=           4 NGrid=           0.
 Petite list used in FoFCou.
 Harris En= -2261.63976074209    
 Initial guess orbital symmetries:
       Occupied  (A) (A) (A) (A) (A) (A) (A) (A) (A) (A) (A) (A)
                 (A) (A) (A) (A) (A) (A) (A) (A) (A) (A) (A) (A)
                 (A) (A) (A) (A) (A) (A) (A) (A) (A) (A) (A) (A)
                 (A) (A) (A) (A) (A) (A) (A) (A) (A) (A) (A) (A)
                 (A) (A) (A) (A) (A) (A) (A) (A) (A) (A) (A) (A)
                 (A) (A) (A) (A) (A) (A) (A) (A) (A) (A) (A) (A)
                 (A) (A) (A) (A) (A) (A) (A) (A) (A) (A) (A) (A)
                 (A) (A) (A) (A) (A) (A) (A) (A) (A) (A) (A) (A)
                 (A) (A) (A) (A) (A) (A) (A) (A) (A) (A) (A) (A)
                 (A) (A) (A) (A) (A) (A) (A) (A) (A) (A) (A) (A)
                 (A) (A) (A) (A) (A) (A)
       Virtual   (A) (A) (A) (A) (A) (A) (A) (A) (A) (A) (A) (A)
                 (A) (A) (A) (A) (A) (A) (A) (A) (A) (A) (A) (A)
                 (A) (A) (A) (A) (A) (A) (A) (A) (A) (A) (A) (A)
                 (A) (A) (A) (A) (A) (A) (A) (A) (A) (A) (A) (A)
                 (A) (A) (A) (A) (A) (A) (A) (A) (A) (A) (A) (A)
                 (A) (A) (A) (A) (A) (A) (A) (A) (A) (A) (A) (A)
                 (A) (A) (A) (A) (A) (A) (A) (A) (A) (A) (A) (A)
                 (A) (A) (A) (A) (A) (A) (A) (A) (A) (A) (A) (A)
                 (A) (A) (A) (A) (A) (A) (A) (A) (A) (A) (A) (A)
                 (A) (A) (A) (A) (A) (A) (A) (A) (A) (A) (A) (A)
                 (A) (A) (A) (A) (A) (A) (A) (A) (A) (A) (A) (A)
                 (A) (A) (A) (A) (A) (A) (A) (A) (A) (A) (A) (A)
                 (A) (A) (A) (A) (A) (A) (A) (A) (A) (A) (A) (A)
                 (A) (A) (A) (A) (A) (A) (A) (A) (A) (A) (A) (A)
                 (A) (A) (A) (A) (A) (A) (A) (A) (A) (A) (A) (A)
                 (A) (A) (A) (A) (A) (A) (A) (A) (A) (A) (A) (A)
                 (A) (A) (A) (A) (A) (A) (A) (A) (A) (A) (A) (A)
                 (A) (A) (A) (A) (A) (A) (A) (A) (A) (A) (A) (A)
                 (A) (A) (A) (A) (A) (A) (A) (A) (A) (A)
 The electronic state of the initial guess is 1-A.
 Leave Link  401 at Sat Aug 27 05:02:26 2022, MaxMem=  209715200 cpu:       5.0
 (Enter /opt/gaussian/l502.exe)
 Closed shell SCF:
 Requested convergence on RMS density matrix=1.00D-08 within 128 cycles.
 Requested convergence on MAX density matrix=1.00D-06.
 Requested convergence on             energy=1.00D-06.
 No special actions if energy rises.
 Using DIIS extrapolation, IDIIS=  1040.
 Integral symmetry usage will be decided dynamically.
 IEnd=      395386 IEndB=      395386 NGot=   209715200 MDV=   209460711
 LenX=   209460711 LenY=   209336366
 Fock matrices will be formed incrementally for  20 cycles.
 Integral accuracy reduced to 1.0D-05 until final iterations.

 Cycle   1  Pass 0  IDiag  1:
 FoFCou: FMM=F IPFlag=           0 FMFlag=      100000 FMFlg1=           0
         NFxFlg=           0 DoJE=F BraDBF=F KetDBF=F FulRan=T
         Omega=  0.000000  0.000000  1.000000  0.000000  0.000000 ICntrl=       0 IOpCl=  0
         NMat0=    1 NMatS0=    1 NMatT0=    0 NMatD0=    1 NMtDS0=    0 NMtDT0=    0
         I1Cent=           0 NGrid=           0.
 Symmetry not used in FoFCou.
 E= -2260.08859246147    
 DIIS: error= 3.60D-02 at cycle   1 NSaved=   1.
 NSaved= 1 IEnMin= 1 EnMin= -2260.08859246147     IErMin= 1 ErrMin= 3.60D-02
 ErrMax= 3.60D-02 EMaxC= 1.00D-01 BMatC= 1.13D+00 BMatP= 1.13D+00
 IDIUse=3 WtCom= 6.40D-01 WtEn= 3.60D-01
 Coeff-Com:  0.100D+01
 Coeff-En:   0.100D+01
 Coeff:      0.100D+01
 Gap=     0.540 Goal=   None    Shift=    0.000
 GapD=    0.540 DampG=2.000 DampE=0.500 DampFc=1.0000 IDamp=-1.
 RMSDP=5.56D-03 MaxDP=1.73D-01              OVMax= 1.59D-01

 Cycle   2  Pass 0  IDiag  1:
 RMSU=  3.90D-03    CP:  9.72D-01
 E= -2260.84707676263     Delta-E=       -0.758484301164 Rises=F Damp=F
 DIIS: error= 2.14D-02 at cycle   2 NSaved=   2.
 NSaved= 2 IEnMin= 2 EnMin= -2260.84707676263     IErMin= 2 ErrMin= 2.14D-02
 ErrMax= 2.14D-02 EMaxC= 1.00D-01 BMatC= 1.83D-01 BMatP= 1.13D+00
 IDIUse=3 WtCom= 7.86D-01 WtEn= 2.14D-01
 Coeff-Com:  0.231D+00 0.769D+00
 Coeff-En:   0.000D+00 0.100D+01
 Coeff:      0.182D+00 0.818D+00
 Gap=     0.444 Goal=   None    Shift=    0.000
 RMSDP=2.31D-03 MaxDP=9.64D-02 DE=-7.58D-01 OVMax= 1.00D-01

 Cycle   3  Pass 0  IDiag  1:
 RMSU=  1.48D-03    CP:  9.72D-01  8.23D-01
 E= -2260.99523660859     Delta-E=       -0.148159845953 Rises=F Damp=F
 DIIS: error= 1.09D-02 at cycle   3 NSaved=   3.
 NSaved= 3 IEnMin= 3 EnMin= -2260.99523660859     IErMin= 3 ErrMin= 1.09D-02
 ErrMax= 1.09D-02 EMaxC= 1.00D-01 BMatC= 3.07D-02 BMatP= 1.83D-01
 IDIUse=3 WtCom= 8.91D-01 WtEn= 1.09D-01
 Coeff-Com:  0.361D-02 0.274D+00 0.723D+00
 Coeff-En:   0.000D+00 0.000D+00 0.100D+01
 Coeff:      0.321D-02 0.244D+00 0.753D+00
 Gap=     0.391 Goal=   None    Shift=    0.000
 RMSDP=7.57D-04 MaxDP=3.34D-02 DE=-1.48D-01 OVMax= 3.69D-02

 Cycle   4  Pass 0  IDiag  1:
 RMSU=  3.31D-04    CP:  9.73D-01  9.11D-01  8.38D-01
 E= -2261.02246560005     Delta-E=       -0.027228991465 Rises=F Damp=F
 DIIS: error= 3.69D-03 at cycle   4 NSaved=   4.
 NSaved= 4 IEnMin= 4 EnMin= -2261.02246560005     IErMin= 4 ErrMin= 3.69D-03
 ErrMax= 3.69D-03 EMaxC= 1.00D-01 BMatC= 3.13D-03 BMatP= 3.07D-02
 IDIUse=3 WtCom= 9.63D-01 WtEn= 3.69D-02
 Coeff-Com: -0.133D-01 0.278D-01 0.283D+00 0.703D+00
 Coeff-En:   0.000D+00 0.000D+00 0.000D+00 0.100D+01
 Coeff:     -0.128D-01 0.268D-01 0.272D+00 0.714D+00
 Gap=     0.389 Goal=   None    Shift=    0.000
 RMSDP=2.52D-04 MaxDP=1.00D-02 DE=-2.72D-02 OVMax= 1.06D-02

 Cycle   5  Pass 0  IDiag  1:
 RMSU=  1.19D-04    CP:  9.72D-01  9.08D-01  9.08D-01  7.56D-01
 E= -2261.02549991984     Delta-E=       -0.003034319792 Rises=F Damp=F
 DIIS: error= 9.46D-04 at cycle   5 NSaved=   5.
 NSaved= 5 IEnMin= 5 EnMin= -2261.02549991984     IErMin= 5 ErrMin= 9.46D-04
 ErrMax= 9.46D-04 EMaxC= 1.00D-01 BMatC= 1.22D-04 BMatP= 3.13D-03
 IDIUse=3 WtCom= 9.91D-01 WtEn= 9.46D-03
 Coeff-Com: -0.993D-03-0.173D-01-0.210D-01 0.674D-01 0.972D+00
 Coeff-En:   0.000D+00 0.000D+00 0.000D+00 0.000D+00 0.100D+01
 Coeff:     -0.984D-03-0.171D-01-0.208D-01 0.668D-01 0.972D+00
 Gap=     0.388 Goal=   None    Shift=    0.000
 RMSDP=8.25D-05 MaxDP=2.10D-03 DE=-3.03D-03 OVMax= 5.47D-03

 Cycle   6  Pass 0  IDiag  1:
 RMSU=  4.17D-05    CP:  9.72D-01  9.09D-01  9.26D-01  8.23D-01  1.17D+00
 E= -2261.02583440341     Delta-E=       -0.000334483565 Rises=F Damp=F
 DIIS: error= 4.00D-04 at cycle   6 NSaved=   6.
 NSaved= 6 IEnMin= 6 EnMin= -2261.02583440341     IErMin= 6 ErrMin= 4.00D-04
 ErrMax= 4.00D-04 EMaxC= 1.00D-01 BMatC= 3.20D-05 BMatP= 1.22D-04
 IDIUse=3 WtCom= 9.96D-01 WtEn= 4.00D-03
 Coeff-Com:  0.252D-02-0.965D-02-0.568D-01-0.143D+00 0.140D+00 0.107D+01
 Coeff-En:   0.000D+00 0.000D+00 0.000D+00 0.000D+00 0.000D+00 0.100D+01
 Coeff:      0.251D-02-0.961D-02-0.566D-01-0.143D+00 0.139D+00 0.107D+01
 Gap=     0.389 Goal=   None    Shift=    0.000
 RMSDP=5.46D-05 MaxDP=1.93D-03 DE=-3.34D-04 OVMax= 4.73D-03

 Cycle   7  Pass 0  IDiag  1:
 RMSU=  1.72D-05    CP:  9.71D-01  9.09D-01  9.36D-01  8.35D-01  1.41D+00
                    CP:  1.24D+00
 E= -2261.02594573567     Delta-E=       -0.000111332264 Rises=F Damp=F
 DIIS: error= 1.76D-04 at cycle   7 NSaved=   7.
 NSaved= 7 IEnMin= 7 EnMin= -2261.02594573567     IErMin= 7 ErrMin= 1.76D-04
 ErrMax= 1.76D-04 EMaxC= 1.00D-01 BMatC= 4.61D-06 BMatP= 3.20D-05
 IDIUse=3 WtCom= 9.98D-01 WtEn= 1.76D-03
 Coeff-Com: -0.135D-03 0.284D-02 0.114D-01 0.397D-02-0.137D+00-0.127D+00
 Coeff-Com:  0.125D+01
 Coeff-En:   0.000D+00 0.000D+00 0.000D+00 0.000D+00 0.000D+00 0.000D+00
 Coeff-En:   0.100D+01
 Coeff:     -0.135D-03 0.283D-02 0.113D-01 0.396D-02-0.137D+00-0.127D+00
 Coeff:      0.125D+01
 Gap=     0.389 Goal=   None    Shift=    0.000
 RMSDP=2.24D-05 MaxDP=7.16D-04 DE=-1.11D-04 OVMax= 1.90D-03

 Cycle   8  Pass 0  IDiag  1:
 RMSU=  7.22D-06    CP:  9.71D-01  9.08D-01  9.38D-01  8.35D-01  1.48D+00
                    CP:  1.44D+00  1.39D+00
 E= -2261.02596614613     Delta-E=       -0.000020410461 Rises=F Damp=F
 DIIS: error= 7.67D-05 at cycle   8 NSaved=   8.
 NSaved= 8 IEnMin= 8 EnMin= -2261.02596614613     IErMin= 8 ErrMin= 7.67D-05
 ErrMax= 7.67D-05 EMaxC= 1.00D-01 BMatC= 1.07D-06 BMatP= 4.61D-06
 IDIUse=1 WtCom= 1.00D+00 WtEn= 0.00D+00
 Coeff-Com: -0.592D-03 0.275D-02 0.164D-01 0.337D-01-0.564D-01-0.291D+00
 Coeff-Com:  0.286D+00 0.101D+01
 Coeff:     -0.592D-03 0.275D-02 0.164D-01 0.337D-01-0.564D-01-0.291D+00
 Coeff:      0.286D+00 0.101D+01
 Gap=     0.389 Goal=   None    Shift=    0.000
 RMSDP=9.85D-06 MaxDP=2.33D-04 DE=-2.04D-05 OVMax= 1.02D-03

 Initial convergence to 1.0D-05 achieved.  Increase integral accuracy.
 Cycle   9  Pass 1  IDiag  1:
 E= -2261.02597582635     Delta-E=       -0.000009680220 Rises=F Damp=F
 DIIS: error= 6.30D-05 at cycle   1 NSaved=   1.
 NSaved= 1 IEnMin= 1 EnMin= -2261.02597582635     IErMin= 1 ErrMin= 6.30D-05
 ErrMax= 6.30D-05 EMaxC= 1.00D-01 BMatC= 1.79D-06 BMatP= 1.79D-06
 IDIUse=1 WtCom= 1.00D+00 WtEn= 0.00D+00
 Coeff-Com:  0.100D+01
 Coeff:      0.100D+01
 Gap=     0.389 Goal=   None    Shift=    0.000
 RMSDP=9.85D-06 MaxDP=2.33D-04 DE=-9.68D-06 OVMax= 2.20D-04

 Cycle  10  Pass 1  IDiag  1:
 RMSU=  3.60D-05    CP:  1.00D+00
 E= -2261.02597782505     Delta-E=       -0.000001998699 Rises=F Damp=F
 DIIS: error= 1.36D-05 at cycle   2 NSaved=   2.
 NSaved= 2 IEnMin= 2 EnMin= -2261.02597782505     IErMin= 2 ErrMin= 1.36D-05
 ErrMax= 1.36D-05 EMaxC= 1.00D-01 BMatC= 4.72D-08 BMatP= 1.79D-06
 IDIUse=1 WtCom= 1.00D+00 WtEn= 0.00D+00
 Coeff-Com: -0.400D-01 0.104D+01
 Coeff:     -0.400D-01 0.104D+01
 Gap=     0.389 Goal=   None    Shift=    0.000
 RMSDP=3.10D-06 MaxDP=4.35D-05 DE=-2.00D-06 OVMax= 1.40D-04

 Cycle  11  Pass 1  IDiag  1:
 RMSU=  1.12D-06    CP:  1.00D+00  1.05D+00
 E= -2261.02597798229     Delta-E=       -0.000000157236 Rises=F Damp=F
 DIIS: error= 7.74D-06 at cycle   3 NSaved=   3.
 NSaved= 3 IEnMin= 3 EnMin= -2261.02597798229     IErMin= 3 ErrMin= 7.74D-06
 ErrMax= 7.74D-06 EMaxC= 1.00D-01 BMatC= 2.15D-08 BMatP= 4.72D-08
 IDIUse=1 WtCom= 1.00D+00 WtEn= 0.00D+00
 Coeff-Com: -0.266D-01 0.254D+00 0.773D+00
 Coeff:     -0.266D-01 0.254D+00 0.773D+00
 Gap=     0.389 Goal=   None    Shift=    0.000
 RMSDP=7.04D-07 MaxDP=1.46D-05 DE=-1.57D-07 OVMax= 6.99D-05

 Cycle  12  Pass 1  IDiag  1:
 RMSU=  4.70D-07    CP:  1.00D+00  1.05D+00  1.13D+00
 E= -2261.02597803612     Delta-E=       -0.000000053830 Rises=F Damp=F
 DIIS: error= 5.94D-06 at cycle   4 NSaved=   4.
 NSaved= 4 IEnMin= 4 EnMin= -2261.02597803612     IErMin= 4 ErrMin= 5.94D-06
 ErrMax= 5.94D-06 EMaxC= 1.00D-01 BMatC= 7.81D-09 BMatP= 2.15D-08
 IDIUse=1 WtCom= 1.00D+00 WtEn= 0.00D+00
 Coeff-Com:  0.275D-01-0.666D+00-0.176D+00 0.181D+01
 Coeff:      0.275D-01-0.666D+00-0.176D+00 0.181D+01
 Gap=     0.389 Goal=   None    Shift=    0.000
 RMSDP=1.25D-06 MaxDP=2.92D-05 DE=-5.38D-08 OVMax= 1.37D-04

 Cycle  13  Pass 1  IDiag  1:
 RMSU=  3.42D-07    CP:  1.00D+00  1.06D+00  1.73D+00  1.94D+00
 E= -2261.02597808641     Delta-E=       -0.000000050288 Rises=F Damp=F
 DIIS: error= 1.39D-06 at cycle   5 NSaved=   5.
 NSaved= 5 IEnMin= 5 EnMin= -2261.02597808641     IErMin= 5 ErrMin= 1.39D-06
 ErrMax= 1.39D-06 EMaxC= 1.00D-01 BMatC= 3.93D-10 BMatP= 7.81D-09
 IDIUse=1 WtCom= 1.00D+00 WtEn= 0.00D+00
 Coeff-Com:  0.699D-02-0.141D+00-0.806D-01 0.341D+00 0.874D+00
 Coeff:      0.699D-02-0.141D+00-0.806D-01 0.341D+00 0.874D+00
 Gap=     0.389 Goal=   None    Shift=    0.000
 RMSDP=1.69D-07 MaxDP=4.62D-06 DE=-5.03D-08 OVMax= 1.93D-05

 Cycle  14  Pass 1  IDiag  1:
 RMSU=  7.27D-08    CP:  1.00D+00  1.06D+00  1.77D+00  2.08D+00  1.15D+00
 E= -2261.02597808777     Delta-E=       -0.000000001367 Rises=F Damp=F
 DIIS: error= 5.35D-07 at cycle   6 NSaved=   6.
 NSaved= 6 IEnMin= 6 EnMin= -2261.02597808777     IErMin= 6 ErrMin= 5.35D-07
 ErrMax= 5.35D-07 EMaxC= 1.00D-01 BMatC= 9.00D-11 BMatP= 3.93D-10
 IDIUse=1 WtCom= 1.00D+00 WtEn= 0.00D+00
 Coeff-Com: -0.441D-02 0.109D+00 0.272D-01-0.317D+00 0.115D+00 0.107D+01
 Coeff:     -0.441D-02 0.109D+00 0.272D-01-0.317D+00 0.115D+00 0.107D+01
 Gap=     0.389 Goal=   None    Shift=    0.000
 RMSDP=9.01D-08 MaxDP=1.90D-06 DE=-1.37D-09 OVMax= 8.15D-06

 Cycle  15  Pass 1  IDiag  1:
 RMSU=  3.78D-08    CP:  1.00D+00  1.06D+00  1.77D+00  2.13D+00  1.27D+00
                    CP:  1.21D+00
 E= -2261.02597808807     Delta-E=       -0.000000000297 Rises=F Damp=F
 DIIS: error= 2.19D-07 at cycle   7 NSaved=   7.
 NSaved= 7 IEnMin= 7 EnMin= -2261.02597808807     IErMin= 7 ErrMin= 2.19D-07
 ErrMax= 2.19D-07 EMaxC= 1.00D-01 BMatC= 9.56D-12 BMatP= 9.00D-11
 IDIUse=1 WtCom= 1.00D+00 WtEn= 0.00D+00
 Coeff-Com: -0.100D-02 0.205D-01 0.132D-01-0.564D-01-0.107D+00 0.919D-03
 Coeff-Com:  0.113D+01
 Coeff:     -0.100D-02 0.205D-01 0.132D-01-0.564D-01-0.107D+00 0.919D-03
 Coeff:      0.113D+01
 Gap=     0.389 Goal=   None    Shift=    0.000
 RMSDP=3.09D-08 MaxDP=6.39D-07 DE=-2.97D-10 OVMax= 2.86D-06

 Cycle  16  Pass 1  IDiag  1:
 RMSU=  1.03D-08    CP:  1.00D+00  1.06D+00  1.78D+00  2.14D+00  1.29D+00
                    CP:  1.37D+00  1.32D+00
 E= -2261.02597808810     Delta-E=       -0.000000000027 Rises=F Damp=F
 DIIS: error= 7.45D-08 at cycle   8 NSaved=   8.
 NSaved= 8 IEnMin= 8 EnMin= -2261.02597808810     IErMin= 8 ErrMin= 7.45D-08
 ErrMax= 7.45D-08 EMaxC= 1.00D-01 BMatC= 2.01D-12 BMatP= 9.56D-12
 IDIUse=1 WtCom= 1.00D+00 WtEn= 0.00D+00
 Coeff-Com:  0.409D-03-0.115D-01 0.614D-03 0.341D-01-0.503D-01-0.176D+00
 Coeff-Com:  0.367D+00 0.836D+00
 Coeff:      0.409D-03-0.115D-01 0.614D-03 0.341D-01-0.503D-01-0.176D+00
 Coeff:      0.367D+00 0.836D+00
 Gap=     0.389 Goal=   None    Shift=    0.000
 RMSDP=9.76D-09 MaxDP=2.19D-07 DE=-2.73D-11 OVMax= 8.52D-07

 SCF Done:  E(RHF) =  -2261.02597809     A.U. after   16 cycles
             Convg  =    0.9760D-08             -V/T =  2.0000
 KE= 2.260992768603D+03 PE=-1.234941808408D+04 EE= 4.311437106875D+03
 Leave Link  502 at Sat Aug 27 05:03:54 2022, MaxMem=  209715200 cpu:     705.1
 (Enter /opt/gaussian/l601.exe)
 Copying SCF densities to generalized density rwf, IOpCl= 0 IROHF=0.

 **********************************************************************

            Population analysis using the SCF density.

 **********************************************************************

 Orbital symmetries:
       Occupied  (A) (A) (A) (A) (A) (A) (A) (A) (A) (A) (A) (A)
                 (A) (A) (A) (A) (A) (A) (A) (A) (A) (A) (A) (A)
                 (A) (A) (A) (A) (A) (A) (A) (A) (A) (A) (A) (A)
                 (A) (A) (A) (A) (A) (A) (A) (A) (A) (A) (A) (A)
                 (A) (A) (A) (A) (A) (A) (A) (A) (A) (A) (A) (A)
                 (A) (A) (A) (A) (A) (A) (A) (A) (A) (A) (A) (A)
                 (A) (A) (A) (A) (A) (A) (A) (A) (A) (A) (A) (A)
                 (A) (A) (A) (A) (A) (A) (A) (A) (A) (A) (A) (A)
                 (A) (A) (A) (A) (A) (A) (A) (A) (A) (A) (A) (A)
                 (A) (A) (A) (A) (A) (A) (A) (A) (A) (A) (A) (A)
                 (A) (A) (A) (A) (A) (A)
       Virtual   (A) (A) (A) (A) (A) (A) (A) (A) (A) (A) (A) (A)
                 (A) (A) (A) (A) (A) (A) (A) (A) (A) (A) (A) (A)
                 (A) (A) (A) (A) (A) (A) (A) (A) (A) (A) (A) (A)
                 (A) (A) (A) (A) (A) (A) (A) (A) (A) (A) (A) (A)
                 (A) (A) (A) (A) (A) (A) (A) (A) (A) (A) (A) (A)
                 (A) (A) (A) (A) (A) (A) (A) (A) (A) (A) (A) (A)
                 (A) (A) (A) (A) (A) (A) (A) (A) (A) (A) (A) (A)
                 (A) (A) (A) (A) (A) (A) (A) (A) (A) (A) (A) (A)
                 (A) (A) (A) (A) (A) (A) (A) (A) (A) (A) (A) (A)
                 (A) (A) (A) (A) (A) (A) (A) (A) (A) (A) (A) (A)
                 (A) (A) (A) (A) (A) (A) (A) (A) (A) (A) (A) (A)
                 (A) (A) (A) (A) (A) (A) (A) (A) (A) (A) (A) (A)
                 (A) (A) (A) (A) (A) (A) (A) (A) (A) (A) (A) (A)
                 (A) (A) (A) (A) (A) (A) (A) (A) (A) (A) (A) (A)
                 (A) (A) (A) (A) (A) (A) (A) (A) (A) (A) (A) (A)
                 (A) (A) (A) (A) (A) (A) (A) (A) (A) (A) (A) (A)
                 (A) (A) (A) (A) (A) (A) (A) (A) (A) (A) (A) (A)
                 (A) (A) (A) (A) (A) (A) (A) (A) (A) (A) (A) (A)
                 (A) (A) (A) (A) (A) (A) (A) (A) (A) (A)
 The electronic state is 1-A.
 Alpha  occ. eigenvalues -- -104.84906-104.84685 -20.56080 -15.67450 -15.65976
 Alpha  occ. eigenvalues --  -15.63113 -15.62722 -15.58576 -11.40221 -11.34822
 Alpha  occ. eigenvalues --  -11.34722 -11.33393 -11.32578 -11.31033 -11.30955
 Alpha  occ. eigenvalues --  -11.30039 -11.29607 -11.29286 -11.29028 -11.28956
 Alpha  occ. eigenvalues --  -11.28880 -11.28550 -11.27364 -11.26959 -11.26867
 Alpha  occ. eigenvalues --  -11.26776 -11.26759 -11.26703 -11.26569 -11.26264
 Alpha  occ. eigenvalues --  -11.26171 -11.26101 -11.25940 -11.25446 -10.59132
 Alpha  occ. eigenvalues --  -10.58910  -8.06005  -8.05783  -8.05549  -8.05537
 Alpha  occ. eigenvalues --   -8.05326  -8.05315  -1.46683  -1.41696  -1.29640
 Alpha  occ. eigenvalues --   -1.27353  -1.24915  -1.24885  -1.20332  -1.18098
 Alpha  occ. eigenvalues --   -1.17388  -1.14931  -1.11132  -1.07180  -1.06330
 Alpha  occ. eigenvalues --   -1.05300  -1.04914  -1.03945  -1.02751  -1.02345
 Alpha  occ. eigenvalues --   -1.00443  -0.97561  -0.89834  -0.88695  -0.87753
 Alpha  occ. eigenvalues --   -0.85985  -0.85047  -0.84937  -0.84096  -0.83339
 Alpha  occ. eigenvalues --   -0.80788  -0.77288  -0.73729  -0.73361  -0.72982
 Alpha  occ. eigenvalues --   -0.72266  -0.71648  -0.71040  -0.69917  -0.68615
 Alpha  occ. eigenvalues --   -0.68109  -0.66795  -0.65812  -0.64458  -0.64319
 Alpha  occ. eigenvalues --   -0.63559  -0.63228  -0.62475  -0.62415  -0.61828
 Alpha  occ. eigenvalues --   -0.61659  -0.60946  -0.60475  -0.60271  -0.58431
 Alpha  occ. eigenvalues --   -0.58284  -0.57705  -0.56430  -0.55277  -0.55116
 Alpha  occ. eigenvalues --   -0.54543  -0.54097  -0.53707  -0.53609  -0.53504
 Alpha  occ. eigenvalues --   -0.51808  -0.51412  -0.51122  -0.50793  -0.49971
 Alpha  occ. eigenvalues --   -0.48607  -0.47563  -0.47433  -0.45996  -0.43159
 Alpha  occ. eigenvalues --   -0.42766  -0.41696  -0.41003  -0.39072  -0.37296
 Alpha  occ. eigenvalues --   -0.36766  -0.36227  -0.35645  -0.34105  -0.33003
 Alpha  occ. eigenvalues --   -0.30865
 Alpha virt. eigenvalues --    0.08016   0.08570   0.09066   0.09313   0.11219
 Alpha virt. eigenvalues --    0.12228   0.13895   0.14354   0.16581   0.17256
 Alpha virt. eigenvalues --    0.18809   0.19666   0.21496   0.22337   0.23058
 Alpha virt. eigenvalues --    0.23402   0.23820   0.24642   0.25946   0.27001
 Alpha virt. eigenvalues --    0.27634   0.28102   0.28427   0.28738   0.29829
 Alpha virt. eigenvalues --    0.30499   0.30756   0.31244   0.31429   0.31981
 Alpha virt. eigenvalues --    0.32479   0.33127   0.34409   0.35311   0.35865
 Alpha virt. eigenvalues --    0.36288   0.37268   0.38270   0.38650   0.39069
 Alpha virt. eigenvalues --    0.39543   0.40482   0.41374   0.42740   0.42792
 Alpha virt. eigenvalues --    0.43402   0.44536   0.46140   0.46676   0.47248
 Alpha virt. eigenvalues --    0.47535   0.49017   0.50195   0.50398   0.50946
 Alpha virt. eigenvalues --    0.51690   0.52512   0.53325   0.54505   0.55864
 Alpha virt. eigenvalues --    0.56131   0.56565   0.57377   0.59358   0.60104
 Alpha virt. eigenvalues --    0.60469   0.60900   0.61912   0.62496   0.62969
 Alpha virt. eigenvalues --    0.65114   0.65546   0.65750   0.69786   0.70702
 Alpha virt. eigenvalues --    0.71032   0.71504   0.71999   0.72670   0.73400
 Alpha virt. eigenvalues --    0.74600   0.75321   0.75656   0.75926   0.76234
 Alpha virt. eigenvalues --    0.76811   0.76928   0.77574   0.78052   0.79224
 Alpha virt. eigenvalues --    0.79604   0.79670   0.80914   0.81690   0.82239
 Alpha virt. eigenvalues --    0.82448   0.82840   0.83145   0.83724   0.83817
 Alpha virt. eigenvalues --    0.84044   0.84870   0.84877   0.85240   0.85479
 Alpha virt. eigenvalues --    0.85742   0.85789   0.86131   0.86446   0.87107
 Alpha virt. eigenvalues --    0.87142   0.87759   0.88451   0.88823   0.89618
 Alpha virt. eigenvalues --    0.90156   0.90690   0.91279   0.91894   0.92231
 Alpha virt. eigenvalues --    0.93187   0.94310   0.94611   0.94857   0.95290
 Alpha virt. eigenvalues --    0.95778   0.96555   0.97407   0.97985   0.99456
 Alpha virt. eigenvalues --    0.99960   1.00285   1.01390   1.02156   1.02262
 Alpha virt. eigenvalues --    1.04395   1.04801   1.06091   1.07278   1.08779
 Alpha virt. eigenvalues --    1.09018   1.09427   1.09948   1.10095   1.10795
 Alpha virt. eigenvalues --    1.11158   1.11196   1.11639   1.11864   1.12637
 Alpha virt. eigenvalues --    1.12789   1.13037   1.13544   1.14523   1.14936
 Alpha virt. eigenvalues --    1.15888   1.16164   1.16661   1.17384   1.18023
 Alpha virt. eigenvalues --    1.19340   1.19863   1.21314   1.21548   1.22140
 Alpha virt. eigenvalues --    1.23221   1.23714   1.25060   1.25506   1.26565
 Alpha virt. eigenvalues --    1.27865   1.28689   1.29142   1.29480   1.29704
 Alpha virt. eigenvalues --    1.30983   1.31795   1.32311   1.34339   1.36113
 Alpha virt. eigenvalues --    1.36760   1.37115   1.37531   1.38519   1.39002
 Alpha virt. eigenvalues --    1.39957   1.40484   1.41681   1.41979   1.42883
 Alpha virt. eigenvalues --    1.43181   1.44140   1.45989   1.47152   1.50177
 Alpha virt. eigenvalues --    1.50778   1.51156   1.52959   1.53115   1.54362
 Alpha virt. eigenvalues --    1.56472   1.56905   1.60641   1.61753   1.64491
 Alpha virt. eigenvalues --    1.66114   1.66575   1.68740   1.69139   1.70097
 Alpha virt. eigenvalues --    1.70431   1.72789   1.73852   1.77834   1.80169
 Alpha virt. eigenvalues --    1.84078   1.85168   1.99144   2.00546   2.02652
 Alpha virt. eigenvalues --    2.09387   2.10014   2.14051   2.18601   2.21322
 Alpha virt. eigenvalues --    2.30990
          Condensed to atoms (all electrons):
 Mulliken atomic charges:
              1
     1  Cl   0.181027
     2  C   -0.374731
     3  C   -0.087432
     4  C   -0.379131
     5  C   -0.130827
     6  C   -0.002721
     7  C   -0.163051
     8  C   -0.153088
     9  N   -0.966913
    10  C    0.810433
    11  O   -0.575026
    12  C   -0.156189
    13  N   -0.776743
    14  N    0.116741
    15  N   -0.308897
    16  C    0.034421
    17  C   -0.104148
    18  C   -0.234060
    19  C   -0.199590
    20  C   -0.122771
    21  C    0.380455
    22  C    0.312854
    23  C   -0.198181
    24  C   -0.200385
    25  C   -0.023493
    26  C   -0.204558
    27  C   -0.157665
    28  C   -0.090809
    29  C   -0.142454
    30  C   -0.246655
    31  C    0.050281
    32  N   -0.528727
    33  C    0.057864
    34  Cl   0.184087
    35  H    0.268180
    36  H    0.273850
    37  H    0.248806
    38  H    0.191945
    39  H    0.230089
    40  H    0.234525
    41  H    0.244014
    42  H    0.247941
    43  H    0.210813
    44  H    0.212937
    45  H    0.225095
    46  H    0.219461
    47  H    0.222510
    48  H    0.231579
    49  H    0.252548
    50  H    0.226191
    51  H    0.218413
    52  H    0.213598
    53  H    0.227586
 Sum of Mulliken atomic charges =   0.00000
 Mulliken charges with hydrogens summed into heavy atoms:
              1
     1  Cl   0.181027
     2  C   -0.374731
     3  C    0.180748
     4  C   -0.379131
     5  C    0.143023
     6  C   -0.002721
     7  C    0.085755
     8  C    0.268945
     9  N   -0.966913
    10  C    0.810433
    11  O   -0.575026
    12  C    0.322350
    13  N   -0.776743
    14  N    0.116741
    15  N   -0.308897
    16  C    0.034421
    17  C    0.143793
    18  C   -0.023247
    19  C    0.013347
    20  C    0.102324
    21  C    0.380455
    22  C    0.312854
    23  C    0.021280
    24  C    0.022125
    25  C   -0.023493
    26  C    0.027021
    27  C    0.094883
    28  C   -0.090809
    29  C    0.083736
    30  C   -0.028242
    31  C    0.263878
    32  N   -0.528727
    33  C    0.285451
    34  Cl   0.184087
 Sum of Mulliken charges with hydrogens summed into heavy atoms =   0.00000
 Electronic spatial extent (au):  <R**2>=          22065.1262
 Charge=              0.0000 electrons
 Dipole moment (field-independent basis, Debye):
    X=             -0.0584    Y=              7.4563    Z=             -1.3359  Tot=              7.5753
 Quadrupole moment (field-independent basis, Debye-Ang):
   XX=           -209.6954   YY=           -245.3939   ZZ=           -205.1663
   XY=             11.4328   XZ=            -26.9441   YZ=            -15.5370
 Traceless Quadrupole moment (field-independent basis, Debye-Ang):
   XX=             10.3898   YY=            -25.3087   ZZ=             14.9189
   XY=             11.4328   XZ=            -26.9441   YZ=            -15.5370
 Octapole moment (field-independent basis, Debye-Ang**2):
  XXX=             50.1330  YYY=             92.8857  ZZZ=            -16.5740  XYY=            -12.3089
  XXY=            121.8112  XXZ=            -21.4744  XZZ=            -45.9005  YZZ=             20.0594
  YYZ=             67.3504  XYZ=             51.2719
 Hexadecapole moment (field-independent basis, Debye-Ang**3):
 XXXX=         -19525.8174 YYYY=          -8429.9283 ZZZZ=          -2421.9536 XXXY=           1110.2405
 XXXZ=           -982.9742 YYYX=            -38.8977 YYYZ=           -196.6080 ZZZX=           -137.8579
 ZZZY=            -53.0318 XXYY=          -5052.0525 XXZZ=          -3839.5858 YYZZ=          -1822.1776
 XXYZ=           -107.5308 YYXZ=           -379.5954 ZZXY=             46.8332
 N-N= 3.515962230510D+03 E-N=-1.234941808471D+04  KE= 2.260992768603D+03
 No NMR shielding tensors so no spin-rotation constants.
 Leave Link  601 at Sat Aug 27 05:03:54 2022, MaxMem=  209715200 cpu:       1.5
 (Enter /opt/gaussian/l701.exe)
 Compute integral first derivatives.
 ... and contract with generalized density number  0.
 Leave Link  701 at Sat Aug 27 05:03:55 2022, MaxMem=  209715200 cpu:       1.4
 (Enter /opt/gaussian/l702.exe)
 L702 exits ... SP integral derivatives will be done elsewhere.
 Leave Link  702 at Sat Aug 27 05:03:55 2022, MaxMem=  209715200 cpu:       0.2
 (Enter /opt/gaussian/l703.exe)
 Compute integral first derivatives, UseDBF=F ICtDFT=           0.
 Integral derivatives from FoFDir, PRISM(SPDF).
 Calling FoFJK, ICntrl=      2127 FMM=F ISym2X=0 I1Cent= 0 IOpClX= 0 NMat=1 NMatS=1 NMatT=0.
 FoFCou: FMM=F IPFlag=           0 FMFlag=      100000 FMFlg1=         800
         NFxFlg=           0 DoJE=F BraDBF=F KetDBF=F FulRan=T
         Omega=  0.000000  0.000000  1.000000  0.000000  0.000000 ICntrl=    2127 IOpCl=  0
         NMat0=    1 NMatS0=    1 NMatT0=    0 NMatD0=    1 NMtDS0=    0 NMtDT0=    0
         I1Cent=           0 NGrid=           0.
 Symmetry not used in FoFCou.
 Leave Link  703 at Sat Aug 27 05:04:30 2022, MaxMem=  209715200 cpu:     281.9
 (Enter /opt/gaussian/l716.exe)
 Dipole        =-2.29851220D-02 2.93353575D+00-5.25574253D-01
 ***** Axes restored to original set *****
 -------------------------------------------------------------------
 Center     Atomic                   Forces (Hartrees/Bohr)
 Number     Number              X              Y              Z
 -------------------------------------------------------------------
      1       17           0.052847043   -0.020274222   -0.009610678
      2        6          -0.061003664    0.022632330    0.012776325
      3        6           0.002386776   -0.001210874    0.000278790
      4        6           0.026526749    0.009360771   -0.061474814
      5        6          -0.004470207    0.000769862    0.006270631
      6        6           0.008300096   -0.005679309    0.007278873
      7        6           0.002833935   -0.002985087    0.000136489
      8        6           0.002543241   -0.023108693   -0.042085725
      9        7           0.012584851    0.018717089    0.011420818
     10        6          -0.022377955    0.018700784    0.005501747
     11        8           0.021749561   -0.027688770   -0.012666075
     12        6           0.008496343   -0.022272253   -0.019221166
     13        7          -0.000409899    0.019618411    0.052144528
     14        7          -0.003206320   -0.012528180   -0.012250505
     15        7           0.009816195   -0.003605798    0.029865318
     16        6          -0.010550901   -0.046870464   -0.009237598
     17        6          -0.000761879    0.010237633   -0.005808768
     18        6           0.005708600    0.011558122    0.008208744
     19        6           0.001882831   -0.008424192    0.009841589
     20        6          -0.004005010   -0.010640287   -0.002160700
     21        6           0.004593177    0.037882733   -0.026706805
     22        6          -0.027556475    0.007304451    0.003659488
     23        6           0.010757562    0.000352222   -0.002125622
     24        6          -0.004437996   -0.004798485   -0.004821329
     25        6           0.018565314    0.001123044   -0.004772213
     26        6          -0.001106789    0.003540949    0.006195351
     27        6           0.012344465    0.002779950    0.001036432
     28        6          -0.027441417    0.006438505    0.009822490
     29        6          -0.001214109   -0.003333504   -0.002164229
     30        6          -0.006787016    0.003755299    0.002825342
     31        6          -0.013117784   -0.001711401    0.002315873
     32        7           0.010741511   -0.021019678   -0.012706921
     33        6           0.004596552    0.006226759    0.002723833
     34       17          -0.023673430   -0.007029856    0.051449562
     35        1          -0.011142779    0.010719986   -0.016158415
     36        1           0.021413086   -0.009414635   -0.002207474
     37        1          -0.007650037   -0.003060478    0.019028903
     38        1          -0.020206669   -0.009450036    0.021694433
     39        1           0.023651735    0.023164249    0.005590075
     40        1          -0.012280013    0.022259676   -0.021489882
     41        1           0.000958195    0.005972902    0.029994141
     42        1          -0.002894940   -0.019499016    0.002405623
     43        1          -0.008374117   -0.010871578   -0.014845682
     44        1          -0.005912421    0.008354281   -0.017280349
     45        1           0.002933389    0.017832711   -0.001291785
     46        1          -0.004360924    0.008915480    0.017484939
     47        1           0.013979985    0.009027380    0.012274232
     48        1           0.007330969   -0.009692909   -0.017433886
     49        1          -0.014547361   -0.010783093   -0.015462434
     50        1          -0.008179585    0.015012557    0.010532816
     51        1           0.010576001    0.014779446    0.005271409
     52        1           0.023098116   -0.001624755   -0.006232110
     53        1          -0.013546581   -0.019460030   -0.007813627
 -------------------------------------------------------------------
 Cartesian Forces:  Max     0.061474814 RMS     0.017026757
 Leave Link  716 at Sat Aug 27 05:04:30 2022, MaxMem=  209715200 cpu:       0.2
 (Enter /opt/gaussian/l103.exe)

 GradGradGradGradGradGradGradGradGradGradGradGradGradGradGradGradGradGrad
 Berny optimization.
 Internal  Forces:  Max     0.057410640 RMS     0.010463932
 Search for a local minimum.
 Step number   1 out of a maximum of  297
 All quantities printed in internal units (Hartrees-Bohrs-Radians)
 RMS Force = .10464D-01 SwitMx=.10000D-02 MixMth= 1
 Mixed Optimization -- RFO/linear search
 Second derivative matrix not updated -- first step.
 ITU=  0
     Eigenvalues ---    0.00249   0.00685   0.00825   0.01110   0.01174
     Eigenvalues ---    0.01342   0.01383   0.01406   0.01550   0.01572
     Eigenvalues ---    0.01683   0.01697   0.01765   0.01774   0.01776
     Eigenvalues ---    0.01786   0.01850   0.01980   0.01983   0.02052
     Eigenvalues ---    0.02060   0.02062   0.02074   0.02079   0.02096
     Eigenvalues ---    0.02097   0.02109   0.02112   0.02113   0.02114
     Eigenvalues ---    0.02114   0.02116   0.02116   0.02116   0.02118
     Eigenvalues ---    0.02119   0.02125   0.02127   0.02130   0.02146
     Eigenvalues ---    0.02153   0.02161   0.02180   0.02183   0.02185
     Eigenvalues ---    0.02319   0.04770   0.04795   0.06487   0.06555
     Eigenvalues ---    0.10314   0.10529   0.13471   0.13597   0.15990
     Eigenvalues ---    0.15997   0.15999   0.15999   0.16000   0.16000
     Eigenvalues ---    0.16000   0.16000   0.16000   0.16000   0.16000
     Eigenvalues ---    0.16000   0.16000   0.16000   0.16000   0.22000
     Eigenvalues ---    0.22000   0.22000   0.22066   0.22147   0.22511
     Eigenvalues ---    0.22598   0.22959   0.23196   0.23444   0.23480
     Eigenvalues ---    0.23488   0.23500   0.24000   0.24378   0.24517
     Eigenvalues ---    0.24731   0.24807   0.24959   0.24978   0.24989
     Eigenvalues ---    0.24998   0.25000   0.25000   0.25000   0.25000
     Eigenvalues ---    0.25000   0.28604   0.30466   0.30600   0.30614
     Eigenvalues ---    0.30674   0.31742   0.33076   0.33186   0.33352
     Eigenvalues ---    0.33439   0.33520   0.33534   0.33539   0.33561
     Eigenvalues ---    0.33576   0.33583   0.33604   0.33677   0.33778
     Eigenvalues ---    0.33956   0.33959   0.35011   0.36166   0.36203
     Eigenvalues ---    0.37413   0.38034   0.39050   0.39706   0.40522
     Eigenvalues ---    0.40942   0.41477   0.41584   0.41959   0.41968
     Eigenvalues ---    0.42049   0.42785   0.43241   0.43418   0.44038
     Eigenvalues ---    0.44573   0.44750   0.45690   0.45782   0.45926
     Eigenvalues ---    0.45952   0.45967   0.46014   0.46043   0.46121
     Eigenvalues ---    0.46799   0.46849   0.47322   0.47501   0.53791
     Eigenvalues ---    0.55117   0.77733   0.86883
 RFO step:  Lambda=-7.35250319D-02 EMin= 2.49474096D-03
 Linear search not attempted -- first point.
 Maximum step size (   0.300) exceeded in Quadratic search.
    -- Step size scaled by   0.723
 Iteration  1 RMS(Cart)=  0.08638957 RMS(Int)=  0.00078855
 Iteration  2 RMS(Cart)=  0.00218983 RMS(Int)=  0.00007296
 Iteration  3 RMS(Cart)=  0.00000155 RMS(Int)=  0.00007295
 Iteration  4 RMS(Cart)=  0.00000000 RMS(Int)=  0.00007295
 Variable       Old X    -DE/DX   Delta X   Delta X   Delta X     New X
                                 (Linear)    (Quad)   (Total)
    R1        3.20823   0.05741   0.00000   0.09545   0.09545   3.30368
    R2        2.64172  -0.01688   0.00000  -0.02328  -0.02328   2.61845
    R3        2.64162  -0.01409   0.00000  -0.01914  -0.01914   2.62248
    R4        2.64236  -0.01435   0.00000  -0.01984  -0.01984   2.62251
    R5        2.08148  -0.02236   0.00000  -0.03959  -0.03959   2.04189
    R6        2.64197  -0.01619   0.00000  -0.02197  -0.02197   2.62000
    R7        3.20765   0.05707   0.00000   0.09479   0.09479   3.30244
    R8        2.64085  -0.00782   0.00000  -0.01023  -0.01023   2.63062
    R9        2.08438  -0.02340   0.00000  -0.04159  -0.04159   2.04280
   R10        2.64175  -0.00883   0.00000  -0.01164  -0.01164   2.63011
   R11        2.84618   0.01169   0.00000   0.02164   0.02164   2.86782
   R12        2.08115  -0.02069   0.00000  -0.03661  -0.03661   2.04454
   R13        2.72866   0.02045   0.00000   0.03189   0.03189   2.76055
   R14        2.13483  -0.03049   0.00000  -0.05812  -0.05812   2.07671
   R15        2.13744  -0.03329   0.00000  -0.06369  -0.06369   2.07375
   R16        2.64483  -0.01685   0.00000  -0.02298  -0.02298   2.62185
   R17        2.68975   0.01013   0.00000   0.01486   0.01486   2.70461
   R18        2.34404  -0.03664   0.00000  -0.02813  -0.02813   2.31591
   R19        2.90837  -0.01399   0.00000  -0.02814  -0.02814   2.88023
   R20        2.71954  -0.01030   0.00000  -0.01584  -0.01584   2.70371
   R21        2.13339  -0.03298   0.00000  -0.06275  -0.06275   2.07064
   R22        2.13455  -0.03048   0.00000  -0.05808  -0.05808   2.07647
   R23        2.60522  -0.01017   0.00000  -0.01191  -0.01193   2.59329
   R24        2.68460  -0.03275   0.00000  -0.04907  -0.04908   2.63553
   R25        2.36773  -0.00327   0.00000  -0.00147  -0.00150   2.36624
   R26        2.71133  -0.02601   0.00000  -0.03911  -0.03910   2.67223
   R27        2.63303  -0.01164   0.00000  -0.01635  -0.01633   2.61670
   R28        2.73689  -0.04630   0.00000  -0.07691  -0.07685   2.66005
   R29        2.63075  -0.01128   0.00000  -0.01432  -0.01433   2.61642
   R30        2.07706  -0.01986   0.00000  -0.03493  -0.03493   2.04213
   R31        2.65227  -0.00734   0.00000  -0.00866  -0.00869   2.64358
[...]
 ! D137  D(31,32,33,53)        178.7399         -DE/DX =    0.0                 !
 --------------------------------------------------------------------------------
 GradGradGradGradGradGradGradGradGradGradGradGradGradGradGradGradGradGrad

 Largest change from initial coordinates is atom   44       1.488 Angstoms.
 Leave Link  103 at Sat Aug 27 06:07:53 2022, MaxMem=  209715200 cpu:       0.8
 (Enter /opt/gaussian/l202.exe)
 Stoichiometry    C26H19Cl2N5O
 Framework group  C1[X(C26H19Cl2N5O)]
 Deg. of freedom   153
 Full point group                 C1      NOp   1
 RotChk:  IX=0 Diff= 1.24D-16
 Largest Abelian subgroup         C1      NOp   1
 Largest concise Abelian subgroup C1      NOp   1
                         Standard orientation:                         
 ---------------------------------------------------------------------
 Center     Atomic      Atomic             Coordinates (Angstroms)
 Number     Number       Type             X           Y           Z
 ---------------------------------------------------------------------
      1         17           0       -4.975139    3.888215   -0.906214
      2          6           0       -3.266345    3.462930   -0.515966
      3          6           0       -2.465356    4.413919    0.078393
      4          6           0       -1.162086    4.058646    0.368850
      5          6           0       -0.660293    2.808306    0.082519
      6          6           0       -1.486653    1.860300   -0.515779
      7          6           0       -2.802806    2.196343   -0.815098
      8          6           0       -0.962824    0.485251   -0.892889
      9          7           0       -0.213206   -0.205835    0.170601
     10          6           0       -0.821777   -0.843634    1.211553
     11          8           0       -0.193147   -1.392082    2.111540
     12          6           0       -2.342829   -0.908204    1.261849
     13          7           0       -2.869316   -1.907676    0.360300
     14          7           0       -3.676726   -1.546790   -0.679747
     15          7           0       -4.080015   -2.586395   -1.285134
     16          6           0       -3.557886   -3.703994   -0.655656
     17          6           0       -3.716890   -5.062111   -0.934971
     18          6           0       -3.068154   -5.949651   -0.113310
     19          6           0       -2.271655   -5.500055    0.965463
     20          6           0       -2.106065   -4.165433    1.248737
     21          6           0       -2.775997   -3.269875    0.408049
     22          6           0        1.221314   -0.250086    0.071210
     23          6           0        1.814585   -0.878948   -1.013822
     24          6           0        3.193899   -0.902684   -1.139553
     25          6           0        4.010503   -0.310549   -0.178196
     26          6           0        3.401163    0.303520    0.915277
     27          6           0        2.022564    0.335294    1.040675
     28          6           0        5.488546   -0.339543   -0.310798
     29          6           0        6.122872   -0.070621   -1.521875
     30          6           0        7.505967   -0.109206   -1.596746
     31          6           0        8.226310   -0.413782   -0.453642
     32          7           0        7.629448   -0.674381    0.707696
     33          6           0        6.302398   -0.641103    0.779806
     34         17           0       -0.084725    5.281513    1.145153
     35          1           0       -2.837848    5.389306    0.307337
     36          1           0        0.357510    2.576016    0.315897
     37          1           0       -3.458434    1.478134   -1.266142
     38          1           0       -1.782909   -0.129037   -1.226576
     39          1           0       -0.288831    0.586183   -1.730131
     40          1           0       -2.598221   -1.167321    2.277690
     41          1           0       -2.810872    0.028269    1.012370
     42          1           0       -4.323796   -5.382269   -1.757531
     43          1           0       -3.159307   -7.003709   -0.285776
     44          1           0       -1.777842   -6.228247    1.578873
     45          1           0       -1.485961   -3.827554    2.053797
     46          1           0        1.202755   -1.366292   -1.748286
     47          1           0        3.635678   -1.411927   -1.973911
     48          1           0        4.004990    0.776484    1.664742
     49          1           0        1.572309    0.797601    1.895393
     50          1           0        5.542721    0.183194   -2.387891
     51          1           0        8.013257    0.100289   -2.517034
     52          1           0        9.295915   -0.451417   -0.460182
     53          1           0        5.875419   -0.879083    1.732594
 ---------------------------------------------------------------------
 Rotational constants (GHZ):      0.1056772      0.0681644      0.0448712
 Leave Link  202 at Sat Aug 27 06:07:53 2022, MaxMem=  209715200 cpu:       0.0
 (Enter /opt/gaussian/l601.exe)
 Copying SCF densities to generalized density rwf, IOpCl= 0 IROHF=0.

 **********************************************************************

            Population analysis using the SCF density.

 **********************************************************************

 Orbital symmetries:
       Occupied  (A) (A) (A) (A) (A) (A) (A) (A) (A) (A) (A) (A)
                 (A) (A) (A) (A) (A) (A) (A) (A) (A) (A) (A) (A)
                 (A) (A) (A) (A) (A) (A) (A) (A) (A) (A) (A) (A)
                 (A) (A) (A) (A) (A) (A) (A) (A) (A) (A) (A) (A)
                 (A) (A) (A) (A) (A) (A) (A) (A) (A) (A) (A) (A)
                 (A) (A) (A) (A) (A) (A) (A) (A) (A) (A) (A) (A)
                 (A) (A) (A) (A) (A) (A) (A) (A) (A) (A) (A) (A)
                 (A) (A) (A) (A) (A) (A) (A) (A) (A) (A) (A) (A)
                 (A) (A) (A) (A) (A) (A) (A) (A) (A) (A) (A) (A)
                 (A) (A) (A) (A) (A) (A) (A) (A) (A) (A) (A) (A)
                 (A) (A) (A) (A) (A) (A)
       Virtual   (A) (A) (A) (A) (A) (A) (A) (A) (A) (A) (A) (A)
                 (A) (A) (A) (A) (A) (A) (A) (A) (A) (A) (A) (A)
                 (A) (A) (A) (A) (A) (A) (A) (A) (A) (A) (A) (A)
                 (A) (A) (A) (A) (A) (A) (A) (A) (A) (A) (A) (A)
                 (A) (A) (A) (A) (A) (A) (A) (A) (A) (A) (A) (A)
                 (A) (A) (A) (A) (A) (A) (A) (A) (A) (A) (A) (A)
                 (A) (A) (A) (A) (A) (A) (A) (A) (A) (A) (A) (A)
                 (A) (A) (A) (A) (A) (A) (A) (A) (A) (A) (A) (A)
                 (A) (A) (A) (A) (A) (A) (A) (A) (A) (A) (A) (A)
                 (A) (A) (A) (A) (A) (A) (A) (A) (A) (A) (A) (A)
                 (A) (A) (A) (A) (A) (A) (A) (A) (A) (A) (A) (A)
                 (A) (A) (A) (A) (A) (A) (A) (A) (A) (A) (A) (A)
                 (A) (A) (A) (A) (A) (A) (A) (A) (A) (A) (A) (A)
                 (A) (A) (A) (A) (A) (A) (A) (A) (A) (A) (A) (A)
                 (A) (A) (A) (A) (A) (A) (A) (A) (A) (A) (A) (A)
                 (A) (A) (A) (A) (A) (A) (A) (A) (A) (A) (A) (A)
                 (A) (A) (A) (A) (A) (A) (A) (A) (A) (A) (A) (A)
                 (A) (A) (A) (A) (A) (A) (A) (A) (A) (A) (A) (A)
                 (A) (A) (A) (A) (A) (A) (A) (A) (A) (A)
 The electronic state is 1-A.
 Alpha  occ. eigenvalues -- -104.83647-104.83478 -20.55795 -15.68392 -15.67541
 Alpha  occ. eigenvalues --  -15.63279 -15.62782 -15.57961 -11.39571 -11.34327
 Alpha  occ. eigenvalues --  -11.34234 -11.31738 -11.31035 -11.30729 -11.30297
 Alpha  occ. eigenvalues --  -11.29243 -11.28589 -11.28322 -11.28251 -11.28248
 Alpha  occ. eigenvalues --  -11.27945 -11.27897 -11.27049 -11.26854 -11.26731
 Alpha  occ. eigenvalues --  -11.26589 -11.26428 -11.26227 -11.26049 -11.25819
 Alpha  occ. eigenvalues --  -11.25740 -11.25587 -11.25481 -11.25422 -10.57567
 Alpha  occ. eigenvalues --  -10.57397  -8.04416  -8.04247  -8.04023  -8.04005
 Alpha  occ. eigenvalues --   -8.03850  -8.03835  -1.49304  -1.42871  -1.29185
 Alpha  occ. eigenvalues --   -1.28415  -1.26484  -1.23460  -1.19172  -1.18540
 Alpha  occ. eigenvalues --   -1.16142  -1.13074  -1.11398  -1.07897  -1.07402
 Alpha  occ. eigenvalues --   -1.06491  -1.05967  -1.04560  -1.03461  -1.02436
 Alpha  occ. eigenvalues --   -1.01408  -0.98310  -0.90299  -0.89715  -0.88203
 Alpha  occ. eigenvalues --   -0.86644  -0.86016  -0.85137  -0.84426  -0.84063
 Alpha  occ. eigenvalues --   -0.82709  -0.78611  -0.75102  -0.74174  -0.73818
 Alpha  occ. eigenvalues --   -0.73609  -0.71591  -0.71379  -0.69938  -0.68891
 Alpha  occ. eigenvalues --   -0.68660  -0.66998  -0.66735  -0.66382  -0.64185
 Alpha  occ. eigenvalues --   -0.63929  -0.63423  -0.63185  -0.63004  -0.61611
 Alpha  occ. eigenvalues --   -0.61213  -0.60957  -0.60806  -0.60575  -0.59801
 Alpha  occ. eigenvalues --   -0.58215  -0.57433  -0.57195  -0.55705  -0.55529
 Alpha  occ. eigenvalues --   -0.54859  -0.54689  -0.53716  -0.52520  -0.52317
 Alpha  occ. eigenvalues --   -0.51949  -0.51467  -0.51275  -0.50998  -0.50748
 Alpha  occ. eigenvalues --   -0.47335  -0.47055  -0.46544  -0.46427  -0.44394
 Alpha  occ. eigenvalues --   -0.43407  -0.42154  -0.40713  -0.39279  -0.37432
 Alpha  occ. eigenvalues --   -0.36898  -0.36410  -0.35843  -0.35275  -0.33475
 Alpha  occ. eigenvalues --   -0.32244
 Alpha virt. eigenvalues --    0.08064   0.08857   0.09613   0.10304   0.11655
 Alpha virt. eigenvalues --    0.12020   0.13889   0.14409   0.14810   0.16683
 Alpha virt. eigenvalues --    0.18693   0.20399   0.23104   0.23565   0.24235
 Alpha virt. eigenvalues --    0.24878   0.26003   0.27066   0.27222   0.28034
 Alpha virt. eigenvalues --    0.28776   0.28824   0.29081   0.29653   0.30422
 Alpha virt. eigenvalues --    0.30862   0.31410   0.31717   0.32121   0.33003
 Alpha virt. eigenvalues --    0.33472   0.34064   0.34927   0.35201   0.35900
 Alpha virt. eigenvalues --    0.36338   0.36987   0.37871   0.39008   0.39767
 Alpha virt. eigenvalues --    0.40071   0.41110   0.41265   0.42070   0.42926
 Alpha virt. eigenvalues --    0.43467   0.45303   0.45534   0.47666   0.47975
 Alpha virt. eigenvalues --    0.48263   0.49240   0.50349   0.51118   0.51202
 Alpha virt. eigenvalues --    0.51620   0.52658   0.54287   0.55517   0.56258
 Alpha virt. eigenvalues --    0.57467   0.58454   0.59184   0.59519   0.60190
 Alpha virt. eigenvalues --    0.60795   0.61862   0.62243   0.62788   0.63483
 Alpha virt. eigenvalues --    0.65301   0.65547   0.66659   0.68970   0.70864
 Alpha virt. eigenvalues --    0.71399   0.71948   0.72466   0.72861   0.73528
 Alpha virt. eigenvalues --    0.73724   0.74468   0.74977   0.76063   0.76243
 Alpha virt. eigenvalues --    0.76735   0.77222   0.77531   0.78665   0.79381
 Alpha virt. eigenvalues --    0.79740   0.80522   0.81033   0.81395   0.81996
 Alpha virt. eigenvalues --    0.82092   0.82643   0.83261   0.83328   0.84249
 Alpha virt. eigenvalues --    0.84589   0.84701   0.84859   0.85093   0.85449
 Alpha virt. eigenvalues --    0.85539   0.85810   0.86531   0.86609   0.87060
 Alpha virt. eigenvalues --    0.87764   0.87897   0.88752   0.89382   0.89848
 Alpha virt. eigenvalues --    0.90026   0.91061   0.91614   0.92147   0.92817
 Alpha virt. eigenvalues --    0.93723   0.94234   0.95084   0.95680   0.96085
 Alpha virt. eigenvalues --    0.96269   0.97321   0.98388   0.98844   0.99678
 Alpha virt. eigenvalues --    1.00332   1.00579   1.01471   1.02043   1.02661
 Alpha virt. eigenvalues --    1.04175   1.04591   1.08129   1.08930   1.09555
 Alpha virt. eigenvalues --    1.10281   1.11060   1.11590   1.11774   1.12526
 Alpha virt. eigenvalues --    1.12694   1.13027   1.13367   1.13856   1.14030
 Alpha virt. eigenvalues --    1.14411   1.14719   1.15676   1.15831   1.16244
 Alpha virt. eigenvalues --    1.17195   1.18354   1.18845   1.19109   1.19562
 Alpha virt. eigenvalues --    1.20088   1.20829   1.21122   1.22322   1.23500
 Alpha virt. eigenvalues --    1.24161   1.24988   1.25843   1.26984   1.27383
 Alpha virt. eigenvalues --    1.28494   1.28903   1.29557   1.30100   1.30322
 Alpha virt. eigenvalues --    1.31457   1.32236   1.34806   1.35378   1.36244
 Alpha virt. eigenvalues --    1.37474   1.38292   1.38634   1.38907   1.39687
 Alpha virt. eigenvalues --    1.40535   1.41558   1.42080   1.42391   1.43817
 Alpha virt. eigenvalues --    1.44417   1.44807   1.45785   1.46078   1.48261
 Alpha virt. eigenvalues --    1.49457   1.50493   1.51055   1.51770   1.55127
 Alpha virt. eigenvalues --    1.56382   1.58718   1.61532   1.63519   1.66283
 Alpha virt. eigenvalues --    1.67231   1.69089   1.70401   1.71549   1.72201
 Alpha virt. eigenvalues --    1.73289   1.74176   1.77443   1.79586   1.83656
 Alpha virt. eigenvalues --    1.87447   1.91921   1.99309   2.04875   2.10389
 Alpha virt. eigenvalues --    2.11569   2.13239   2.16306   2.21031   2.24762
 Alpha virt. eigenvalues --    2.35373
          Condensed to atoms (all electrons):
 Mulliken atomic charges:
              1
     1  Cl   0.125836
     2  C   -0.322188
     3  C   -0.099926
     4  C   -0.324373
     5  C   -0.133804
     6  C   -0.022762
     7  C   -0.169788
     8  C   -0.126327
     9  N   -0.952562
    10  C    0.789272
    11  O   -0.590421
    12  C   -0.130336
    13  N   -0.877024
    14  N    0.059225
    15  N   -0.326119
    16  C   -0.012924
    17  C   -0.080692
    18  C   -0.230196
    19  C   -0.207498
    20  C   -0.080889
    21  C    0.438709
    22  C    0.294545
    23  C   -0.182350
    24  C   -0.201177
    25  C   -0.014105
    26  C   -0.208291
    27  C   -0.149602
    28  C   -0.092175
    29  C   -0.139933
    30  C   -0.245235
    31  C    0.059608
    32  N   -0.532121
    33  C    0.061699
    34  Cl   0.120156
    35  H    0.270833
    36  H    0.262149
    37  H    0.282153
    38  H    0.247587
    39  H    0.222321
    40  H    0.246895
    41  H    0.249030
    42  H    0.243902
    43  H    0.209509
    44  H    0.213763
    45  H    0.275998
    46  H    0.222372
    47  H    0.220224
    48  H    0.226776
    49  H    0.234782
    50  H    0.222890
    51  H    0.215972
    52  H    0.212848
    53  H    0.223764
 Sum of Mulliken atomic charges =   0.00000
 Mulliken charges with hydrogens summed into heavy atoms:
              1
     1  Cl   0.125836
     2  C   -0.322188
     3  C    0.170906
     4  C   -0.324373
     5  C    0.128345
     6  C   -0.022762
     7  C    0.112365
     8  C    0.343581
     9  N   -0.952562
    10  C    0.789272
    11  O   -0.590421
    12  C    0.365589
    13  N   -0.877024
    14  N    0.059225
    15  N   -0.326119
    16  C   -0.012924
    17  C    0.163210
    18  C   -0.020687
    19  C    0.006265
    20  C    0.195110
    21  C    0.438709
    22  C    0.294545
    23  C    0.040021
    24  C    0.019047
    25  C   -0.014105
    26  C    0.018485
    27  C    0.085180
    28  C   -0.092175
    29  C    0.082957
    30  C   -0.029263
    31  C    0.272456
    32  N   -0.532121
    33  C    0.285463
    34  Cl   0.120156
 Sum of Mulliken charges with hydrogens summed into heavy atoms =   0.00000
 Electronic spatial extent (au):  <R**2>=          22288.1819
 Charge=              0.0000 electrons
 Dipole moment (field-independent basis, Debye):
    X=              0.9491    Y=             -1.7691    Z=             -2.5132  Tot=              3.2166
 Quadrupole moment (field-independent basis, Debye-Ang):
   XX=           -237.7580   YY=           -207.7166   ZZ=           -212.5595
   XY=             11.8808   XZ=            -28.7307   YZ=              2.5025
 Traceless Quadrupole moment (field-independent basis, Debye-Ang):
   XX=            -18.4133   YY=             11.6281   ZZ=              6.7852
   XY=             11.8808   XZ=            -28.7307   YZ=              2.5025
 Octapole moment (field-independent basis, Debye-Ang**2):
  XXX=             45.1599  YYY=           -165.8321  ZZZ=            -10.6834  XYY=            -76.3725
  XXY=             28.0392  XXZ=           -103.9047  XZZ=             20.1251  YZZ=              6.2333
  YYZ=              3.3290  XYZ=              7.0246
 Hexadecapole moment (field-independent basis, Debye-Ang**3):
 XXXX=         -19356.7371 YYYY=         -10348.1558 ZZZZ=          -1438.0480 XXXY=            364.3451
 XXXZ=          -1394.6232 YYYX=            330.1252 YYYZ=             -8.4667 ZZZX=            -88.4498
 ZZZY=             22.1379 XXYY=          -5061.0421 XXZZ=          -3257.9130 YYZZ=          -2129.7283
 XXYZ=            132.8033 YYXZ=             25.7375 ZZXY=             17.8851
 N-N= 3.519005377012D+03 E-N=-1.235714293742D+04  KE= 2.262608510338D+03
 No NMR shielding tensors so no spin-rotation constants.
 Leave Link  601 at Sat Aug 27 06:07:53 2022, MaxMem=  209715200 cpu:       1.5
 (Enter /opt/gaussian/l9999.exe)
 1\1\GINC-LQCAPF-6\FOpt\RHF\6-31G\C26H19Cl2N5O1\LQCAPF-6\27-Aug-2022\0\
 \#p opt hf/6-31G\\Mol32.out\\0,1\Cl,25.8704402474,-13.62433654,-2.6994
 044378\C,24.2110504785,-13.1557911706,-2.1702263097\C,23.4473456118,-1
 4.0780046437,-1.4879483222\C,22.1817168702,-13.6898908632,-1.092160724
 5\C,21.6807522378,-12.4351299469,-1.3600040424\C,22.4693212756,-11.516
 5068129,-2.048362019\C,23.747369656,-11.8858415103,-2.4545126331\C,21.
 940817573,-10.1383966223,-2.4073401802\N,21.3010078195,-9.4111337969,-
 1.2972624919\C,22.0108730165,-8.7660485707,-0.3273732292\O,21.47444801
 73,-8.1870917426,0.6123101595\C,23.5314121488,-8.7324105887,-0.4117851
 722\N,23.99564571,-7.7619719585,-1.3770101524\N,24.7014048027,-8.15992
 29971,-2.4758209495\N,25.0697522547,-7.1410082395,-3.1361586285\C,24.6
 265206423,-6.0006425078,-2.4873119876\C,24.7863538291,-4.651864384,-2.
 808296699\C,24.2295181048,-3.7350609729,-1.9520740704\C,23.5224938956,
 -4.146732228,-0.7984097682\C,23.356900088,-5.4718092857,-0.4734052297\
 C,23.9330192307,-6.397443678,-1.3502623381\C,19.8644181302,-9.33876760
 57,-1.2716338098\C,19.1901990397,-8.7188917747,-2.3137062049\C,17.8058
 813673,-8.6687028667,-2.318706722\C,17.0657762494,-9.2247239693,-1.277
 1891996\C,17.7570258452,-9.8299845012,-0.2284317878\C,19.1404472892,-9
 .8881996085,-0.2235290957\C,15.582626927,-9.1673433158,-1.2805032127\C
 ,14.839223515,-9.4464814663,-2.4254174262\C,13.4558983142,-9.380378306
 8,-2.3797499812\C,12.8448363315,-9.0385283552,-1.1847228053\N,13.54639
 40529,-8.7678949021,-0.0858897136\C,14.8737607809,-8.8275717083,-0.129
 5148694\Cl,21.1535484245,-14.8745286243,-0.1987061339\H,23.8197587511,
 -15.0563344016,-1.2717900118\H,20.692054825,-12.1770458226,-1.04343301
 2\H,24.3744436675,-11.1904693314,-2.9763837945\H,22.7400079592,-9.5480
 610816,-2.8245145331\H,21.1940015866,-10.2414895314,-3.1800399007\H,23
 .8800632357,-8.4589382057,0.5720622306\H,23.9576647008,-9.6831782028,-
 0.6812960013\H,25.3246029671,-4.3606057721,-3.6874429959\H,24.32534280
 54,-2.6867103986,-2.1542376341\H,23.0985852665,-3.3965212267,-0.159760
 7362\H,22.80362824,-5.7808461165,0.3898444767\H,19.7443032712,-8.25890
 01462,-3.10910097\H,17.3022881082,-8.1666828157,-3.1218382479\H,17.212
 4859081,-10.2754774576,0.5808970065\H,19.6551723711,-10.3430828389,0.5
 981399361\H,15.3360010803,-9.7292471826,-3.3332928442\H,12.8657248714,
 -9.5971045295,-3.2474403144\H,11.7797177612,-8.9786140413,-1.098420097
 4\H,15.387352846,-8.5800548321,0.7769676317\\Version=EM64L-G09RevC.01\
 State=1-A\HF=-2261.0806309\RMSD=5.641e-09\RMSF=2.366e-06\Dipole=-0.445
 4906,0.6842602,-0.9668713\Quadrupole=-9.4643117,8.1738169,1.2904948,9.
 4615599,22.4206151,-3.2136487\PG=C01 [X(C26H19Cl2N5O1)]\\@


 THERE ONCE WAS A GIRL NAMED IRENE,
 WHO LIVED ON DISTILLED KEROSENE,
      BUT SHE STARTED ABSORBIN'
      A NEW HYDROCARBON,
 AND SINCE THEN HAS NEVER BENZENE.
 Job cpu time:  0 days  8 hours 40 minutes 45.7 seconds.
 File lengths (MBytes):  RWF=     83 Int=      0 D2E=      0 Chk=     12 Scr=      1
 Normal termination of Gaussian 09 at Sat Aug 27 06:07:53 2022.
