 Entering Gaussian System, Link 0=g09
 Input=Mol39.gjf
 Output=Mol39.log
 Initial command:
 /opt/gaussian/l1.exe /home/scr/lqcapf-6/Gau-323693.inp -scrdir=/home/scr/lqcapf-6/
 Entering Link 1 = /opt/gaussian/l1.exe PID=    323695.
  
 Copyright (c) 1988,1990,1992,1993,1995,1998,2003,2009,2011,
            Gaussian, Inc.  All Rights Reserved.
  
 This is part of the Gaussian(R) 09 program.  It is based on
 the Gaussian(R) 03 system (copyright 2003, Gaussian, Inc.),
 the Gaussian(R) 98 system (copyright 1998, Gaussian, Inc.),
 the Gaussian(R) 94 system (copyright 1995, Gaussian, Inc.),
 the Gaussian 92(TM) system (copyright 1992, Gaussian, Inc.),
 the Gaussian 90(TM) system (copyright 1990, Gaussian, Inc.),
 the Gaussian 88(TM) system (copyright 1988, Gaussian, Inc.),
 the Gaussian 86(TM) system (copyright 1986, Carnegie Mellon
 University), and the Gaussian 82(TM) system (copyright 1983,
 Carnegie Mellon University). Gaussian is a federally registered
 trademark of Gaussian, Inc.
  
 This software contains proprietary and confidential information,
 including trade secrets, belonging to Gaussian, Inc.
  
 This software is provided under written license and may be
 used, copied, transmitted, or stored only in accord with that
 written license.
  
 The following legend is applicable only to US Government
 contracts under FAR:
  
                    RESTRICTED RIGHTS LEGEND
  
 Use, reproduction and disclosure by the US Government is
 subject to restrictions as set forth in subparagraphs (a)
 and (c) of the Commercial Computer Software - Restricted
 Rights clause in FAR 52.227-19.
  
 Gaussian, Inc.
 340 Quinnipiac St., Bldg. 40, Wallingford CT 06492
  
  
 ---------------------------------------------------------------
 Warning -- This program may not be used in any manner that
 competes with the business of Gaussian, Inc. or will provide
 assistance to any competitor of Gaussian, Inc.  The licensee
 of this program is prohibited from giving any competitor of
 Gaussian, Inc. access to this program.  By using this program,
 the user acknowledges that Gaussian, Inc. is engaged in the
 business of creating and licensing software in the field of
 computational chemistry and represents and warrants to the
 licensee that it is not a competitor of Gaussian, Inc. and that
 it will not use this program in any manner prohibited above.
 ---------------------------------------------------------------
  

 Cite this work as:
 Gaussian 09, Revision C.01,
 M. J. Frisch, G. W. Trucks, H. B. Schlegel, G. E. Scuseria, 
 M. A. Robb, J. R. Cheeseman, G. Scalmani, V. Barone, B. Mennucci, 
 G. A. Petersson, H. Nakatsuji, M. Caricato, X. Li, H. P. Hratchian, 
 A. F. Izmaylov, J. Bloino, G. Zheng, J. L. Sonnenberg, M. Hada, 
 M. Ehara, K. Toyota, R. Fukuda, J. Hasegawa, M. Ishida, T. Nakajima, 
 Y. Honda, O. Kitao, H. Nakai, T. Vreven, J. A. Montgomery, Jr., 
 J. E. Peralta, F. Ogliaro, M. Bearpark, J. J. Heyd, E. Brothers, 
 K. N. Kudin, V. N. Staroverov, T. Keith, R. Kobayashi, J. Normand, 
 K. Raghavachari, A. Rendell, J. C. Burant, S. S. Iyengar, J. Tomasi, 
 M. Cossi, N. Rega, J. M. Millam, M. Klene, J. E. Knox, J. B. Cross, 
 V. Bakken, C. Adamo, J. Jaramillo, R. Gomperts, R. E. Stratmann, 
 O. Yazyev, A. J. Austin, R. Cammi, C. Pomelli, J. W. Ochterski, 
 R. L. Martin, K. Morokuma, V. G. Zakrzewski, G. A. Voth, 
 P. Salvador, J. J. Dannenberg, S. Dapprich, A. D. Daniels, 
 O. Farkas, J. B. Foresman, J. V. Ortiz, J. Cioslowski, 
 and D. J. Fox, Gaussian, Inc., Wallingford CT, 2010.
 
 ******************************************
 Gaussian 09:  EM64L-G09RevC.01 23-Sep-2011
                27-Aug-2022 
 ******************************************
 %nprocshared=8
 Will use up to    8 processors via shared memory.
 %mem=1600MB
 ---------------
 #p opt hf/6-31G
 ---------------
 1/18=20,19=15,38=1/1,3;
 2/9=110,12=2,17=6,18=5,40=1/2;
 3/5=1,6=6,11=9,16=1,25=1,30=1,71=1/1,2,3;
 4//1;
 5/5=2,38=5/2;
 6/7=2,8=2,9=2,10=2,28=1/1;
 7//1,2,3,16;
 1/18=20,19=15/3(2);
 2/9=110/2;
 99//99;
 2/9=110/2;
 3/5=1,6=6,11=9,16=1,25=1,30=1,71=1/1,2,3;
 4/5=5,16=3/1;
 5/5=2,38=5/2;
 7//1,2,3,16;
 1/18=20,19=15/3(-5);
 2/9=110/2;
 6/7=2,8=2,9=2,10=2,19=2,28=1/1;
 99/9=1/99;
 Leave Link    1 at Sat Aug 27 11:18:30 2022, MaxMem=  209715200 cpu:       0.1
 (Enter /opt/gaussian/l101.exe)
 ---------
 Mol39.out
 ---------
 Charge =  0 Multiplicity = 1
 Symbolic Z-Matrix:
 Cl                    23.7774  -15.3143  -2.914 
 C                     23.1001  -13.844   -2.3987 
 C                     23.2883  -13.4171  -1.0789 
 C                     22.7244  -12.2118  -0.669 
 C                     21.9808  -11.4354  -1.5597 
 C                     21.7949  -11.8617  -2.8763 
 C                     22.359   -13.0745  -3.2966 
 C                     21.0028  -11.0971  -3.9033 
 N                     20.3819  -9.8592   -3.4973 
 C                     21.1245  -8.6774   -3.381 
 O                     20.599   -7.6212   -2.9979 
 C                     22.6084  -8.7506   -3.7859 
 N                     23.3759  -7.5676   -3.5065 
 N                     23.2788  -6.4044   -4.2353 
 N                     23.7813  -5.4242   -3.6357 
 C                     24.2294  -5.8373   -2.3377 
 C                     24.8528  -5.1719   -1.2836 
 C                     25.1573  -5.9154   -0.1471 
 C                     24.8626  -7.2852   -0.0565 
 C                     24.2493  -7.9801   -1.0945 
 C                     23.9289  -7.2507   -2.2393 
 C                     19.0321  -9.918    -3.0714 
 C                     18.5243  -11.0327  -2.3745 
 C                     17.1736  -11.0713  -2.0405 
 C                     16.3311  -9.9947   -2.3998 
 N                     16.8175  -8.8963   -3.0461 
 C                     18.1142  -8.8638   -3.3628 
 C                     14.9219  -10.0445  -2.0851 
 C                     14.1836  -11.1087  -1.5286 
 N                     12.8688  -10.6604  -1.4347 
 N                     12.7191  -9.4099   -1.8838 
 C                     13.9415  -8.9913   -2.2916 
 H                     23.8724  -14.0286  -0.3746 
 H                     22.8621  -11.869    0.368 
 H                     21.5378  -10.4916  -1.2047 
 H                     22.2136  -13.4184  -4.3325 
 H                     21.6863  -10.8819  -4.7787 
 H                     20.1878  -11.7837  -4.2849 
 H                     23.0952  -9.6036   -3.2281 
 H                     22.6567  -8.9466   -4.8972 
 H                     25.0919  -4.101    -1.3527 
 H                     25.6409  -5.4177    0.7072 
 H                     25.1243  -7.8259    0.8664 
 H                     24.0253  -9.052    -1.0132 
 H                     19.1824  -11.8699  -2.0921 
 H                     16.7661  -11.9334  -1.4957 
 H                     18.4584  -7.9359   -3.8615 
 H                     14.4841  -12.1061  -1.2118 
 H                     14.1219  -7.9991   -2.7093 
 H                     12.0877  -11.165   -1.0885 
 
 NAtoms=     50 NQM=        0 NQMF=       0 NMMI=     50 NMMIF=      0
                NMic=       0 NMicF=      0.
                    Isotopes and Nuclear Properties:
 (Nuclear quadrupole moments (NQMom) in fm**2, nuclear magnetic moments (NMagM)
  in nuclear magnetons)

  Atom         1           2           3           4           5           6           7           8           9          10
 IAtWgt=          35          12          12          12          12          12          12          12          14          12
 AtmWgt=  34.9688527  12.0000000  12.0000000  12.0000000  12.0000000  12.0000000  12.0000000  12.0000000  14.0030740  12.0000000
 NucSpn=           3           0           0           0           0           0           0           0           2           0
 AtZEff=   0.0000000   0.0000000   0.0000000   0.0000000   0.0000000   0.0000000   0.0000000   0.0000000   0.0000000   0.0000000
 NQMom=   -8.1650000   0.0000000   0.0000000   0.0000000   0.0000000   0.0000000   0.0000000   0.0000000   2.0440000   0.0000000
 NMagM=    0.8218740   0.0000000   0.0000000   0.0000000   0.0000000   0.0000000   0.0000000   0.0000000   0.4037610   0.0000000

  Atom        11          12          13          14          15          16          17          18          19          20
 IAtWgt=          16          12          14          14          14          12          12          12          12          12
 AtmWgt=  15.9949146  12.0000000  14.0030740  14.0030740  14.0030740  12.0000000  12.0000000  12.0000000  12.0000000  12.0000000
 NucSpn=           0           0           2           2           2           0           0           0           0           0
 AtZEff=   0.0000000   0.0000000   0.0000000   0.0000000   0.0000000   0.0000000   0.0000000   0.0000000   0.0000000   0.0000000
 NQMom=    0.0000000   0.0000000   2.0440000   2.0440000   2.0440000   0.0000000   0.0000000   0.0000000   0.0000000   0.0000000
 NMagM=    0.0000000   0.0000000   0.4037610   0.4037610   0.4037610   0.0000000   0.0000000   0.0000000   0.0000000   0.0000000

  Atom        21          22          23          24          25          26          27          28          29          30
 IAtWgt=          12          12          12          12          12          14          12          12          12          14
 AtmWgt=  12.0000000  12.0000000  12.0000000  12.0000000  12.0000000  14.0030740  12.0000000  12.0000000  12.0000000  14.0030740
 NucSpn=           0           0           0           0           0           2           0           0           0           2
 AtZEff=   0.0000000   0.0000000   0.0000000   0.0000000   0.0000000   0.0000000   0.0000000   0.0000000   0.0000000   0.0000000
 NQMom=    0.0000000   0.0000000   0.0000000   0.0000000   0.0000000   2.0440000   0.0000000   0.0000000   0.0000000   2.0440000
 NMagM=    0.0000000   0.0000000   0.0000000   0.0000000   0.0000000   0.4037610   0.0000000   0.0000000   0.0000000   0.4037610

  Atom        31          32          33          34          35          36          37          38          39          40
 IAtWgt=          14          12           1           1           1           1           1           1           1           1
 AtmWgt=  14.0030740  12.0000000   1.0078250   1.0078250   1.0078250   1.0078250   1.0078250   1.0078250   1.0078250   1.0078250
 NucSpn=           2           0           1           1           1           1           1           1           1           1
 AtZEff=   0.0000000   0.0000000   0.0000000   0.0000000   0.0000000   0.0000000   0.0000000   0.0000000   0.0000000   0.0000000
 NQMom=    2.0440000   0.0000000   0.0000000   0.0000000   0.0000000   0.0000000   0.0000000   0.0000000   0.0000000   0.0000000
 NMagM=    0.4037610   0.0000000   2.7928460   2.7928460   2.7928460   2.7928460   2.7928460   2.7928460   2.7928460   2.7928460

  Atom        41          42          43          44          45          46          47          48          49          50
 IAtWgt=           1           1           1           1           1           1           1           1           1           1
 AtmWgt=   1.0078250   1.0078250   1.0078250   1.0078250   1.0078250   1.0078250   1.0078250   1.0078250   1.0078250   1.0078250
 NucSpn=           1           1           1           1           1           1           1           1           1           1
 AtZEff=   0.0000000   0.0000000   0.0000000   0.0000000   0.0000000   0.0000000   0.0000000   0.0000000   0.0000000   0.0000000
 NQMom=    0.0000000   0.0000000   0.0000000   0.0000000   0.0000000   0.0000000   0.0000000   0.0000000   0.0000000   0.0000000
 NMagM=    2.7928460   2.7928460   2.7928460   2.7928460   2.7928460   2.7928460   2.7928460   2.7928460   2.7928460   2.7928460
 Leave Link  101 at Sat Aug 27 11:18:30 2022, MaxMem=  209715200 cpu:       0.8
 (Enter /opt/gaussian/l103.exe)

 GradGradGradGradGradGradGradGradGradGradGradGradGradGradGradGradGradGrad
 Berny optimization.
 Initialization pass.
                           ----------------------------
                           !    Initial Parameters    !
                           ! (Angstroms and Degrees)  !
 --------------------------                            --------------------------
 ! Name  Definition              Value          Derivative Info.                !
 --------------------------------------------------------------------------------
 ! R1    R(1,2)                  1.6988         estimate D2E/DX2                !
 ! R2    R(2,3)                  1.3998         estimate D2E/DX2                !
 ! R3    R(2,7)                  1.3956         estimate D2E/DX2                !
 ! R4    R(3,4)                  1.3924         estimate D2E/DX2                !
 ! R5    R(3,33)                 1.1005         estimate D2E/DX2                !
 ! R6    R(4,5)                  1.3961         estimate D2E/DX2                !
 ! R7    R(4,34)                 1.1008         estimate D2E/DX2                !
 ! R8    R(5,6)                  1.3963         estimate D2E/DX2                !
 ! R9    R(5,35)                 1.1014         estimate D2E/DX2                !
 ! R10   R(6,7)                  1.4021         estimate D2E/DX2                !
 ! R11   R(6,8)                  1.5056         estimate D2E/DX2                !
 ! R12   R(7,36)                 1.1011         estimate D2E/DX2                !
 ! R13   R(8,9)                  1.4432         estimate D2E/DX2                !
 ! R14   R(8,37)                 1.1313         estimate D2E/DX2                !
 ! R15   R(8,38)                 1.1319         estimate D2E/DX2                !
 ! R16   R(9,10)                 1.4006         estimate D2E/DX2                !
 ! R17   R(9,22)                 1.4166         estimate D2E/DX2                !
 ! R18   R(10,11)                1.2404         estimate D2E/DX2                !
 ! R19   R(10,12)                1.5399         estimate D2E/DX2                !
 ! R20   R(12,13)                1.4376         estimate D2E/DX2                !
 ! R21   R(12,39)                1.1295         estimate D2E/DX2                !
 ! R22   R(12,40)                1.1295         estimate D2E/DX2                !
 ! R23   R(13,14)                1.3761         estimate D2E/DX2                !
 ! R24   R(13,21)                1.4185         estimate D2E/DX2                !
 ! R25   R(14,15)                1.2541         estimate D2E/DX2                !
 ! R26   R(15,16)                1.434          estimate D2E/DX2                !
 ! R27   R(16,17)                1.3937         estimate D2E/DX2                !
 ! R28   R(16,21)                1.4483         estimate D2E/DX2                !
 ! R29   R(17,18)                1.3918         estimate D2E/DX2                !
 ! R30   R(17,41)                1.0994         estimate D2E/DX2                !
 ! R31   R(18,19)                1.4041         estimate D2E/DX2                !
 ! R32   R(18,42)                1.1006         estimate D2E/DX2                !
 ! R33   R(19,20)                1.3916         estimate D2E/DX2                !
 ! R34   R(19,43)                1.1012         estimate D2E/DX2                !
 ! R35   R(20,21)                1.3947         estimate D2E/DX2                !
 ! R36   R(20,44)                1.0981         estimate D2E/DX2                !
 ! R37   R(22,23)                1.4093         estimate D2E/DX2                !
 ! R38   R(22,27)                1.4279         estimate D2E/DX2                !
 ! R39   R(23,24)                1.3919         estimate D2E/DX2                !
 ! R40   R(23,45)                1.1017         estimate D2E/DX2                !
 ! R41   R(24,25)                1.4135         estimate D2E/DX2                !
 ! R42   R(24,46)                1.0982         estimate D2E/DX2                !
 ! R43   R(25,26)                1.3641         estimate D2E/DX2                !
 ! R44   R(25,28)                1.4448         estimate D2E/DX2                !
 ! R45   R(26,27)                1.3352         estimate D2E/DX2                !
 ! R46   R(27,47)                1.1082         estimate D2E/DX2                !
 ! R47   R(28,29)                1.4097         estimate D2E/DX2                !
 ! R48   R(28,32)                1.4536         estimate D2E/DX2                !
 ! R49   R(29,30)                1.3923         estimate D2E/DX2                !
 ! R50   R(29,48)                1.0888         estimate D2E/DX2                !
 ! R51   R(30,31)                1.3371         estimate D2E/DX2                !
 ! R52   R(30,50)                0.9923         estimate D2E/DX2                !
 ! R53   R(31,32)                1.3549         estimate D2E/DX2                !
 ! R54   R(32,49)                1.0915         estimate D2E/DX2                !
 ! A1    A(1,2,3)              119.7569         estimate D2E/DX2                !
 ! A2    A(1,2,7)              119.589          estimate D2E/DX2                !
 ! A3    A(3,2,7)              120.6541         estimate D2E/DX2                !
 ! A4    A(2,3,4)              119.1498         estimate D2E/DX2                !
 ! A5    A(2,3,33)             120.3502         estimate D2E/DX2                !
 ! A6    A(4,3,33)             120.4998         estimate D2E/DX2                !
 ! A7    A(3,4,5)              120.6165         estimate D2E/DX2                !
 ! A8    A(3,4,34)             119.7498         estimate D2E/DX2                !
 ! A9    A(5,4,34)             119.6332         estimate D2E/DX2                !
 ! A10   A(4,5,6)              120.1783         estimate D2E/DX2                !
 ! A11   A(4,5,35)             119.0224         estimate D2E/DX2                !
 ! A12   A(6,5,35)             120.7965         estimate D2E/DX2                !
 ! A13   A(5,6,7)              119.5501         estimate D2E/DX2                !
 ! A14   A(5,6,8)              123.9301         estimate D2E/DX2                !
 ! A15   A(7,6,8)              116.5184         estimate D2E/DX2                !
 ! A16   A(2,7,6)              119.8512         estimate D2E/DX2                !
 ! A17   A(2,7,36)             120.2116         estimate D2E/DX2                !
 ! A18   A(6,7,36)             119.9369         estimate D2E/DX2                !
 ! A19   A(6,8,9)              118.0382         estimate D2E/DX2                !
 ! A20   A(6,8,37)             107.8532         estimate D2E/DX2                !
 ! A21   A(6,8,38)             107.5009         estimate D2E/DX2                !
 ! A22   A(9,8,37)             108.3282         estimate D2E/DX2                !
 ! A23   A(9,8,38)             107.7802         estimate D2E/DX2                !
 ! A24   A(37,8,38)            106.8299         estimate D2E/DX2                !
 ! A25   A(8,9,10)             121.2666         estimate D2E/DX2                !
 ! A26   A(8,9,22)             117.3171         estimate D2E/DX2                !
 ! A27   A(10,9,22)            121.0147         estimate D2E/DX2                !
 ! A28   A(9,10,11)            121.3007         estimate D2E/DX2                !
 ! A29   A(9,10,12)            116.6786         estimate D2E/DX2                !
 ! A30   A(11,10,12)           122.0025         estimate D2E/DX2                !
 ! A31   A(10,12,13)           115.1034         estimate D2E/DX2                !
 ! A32   A(10,12,39)           108.7457         estimate D2E/DX2                !
 ! A33   A(10,12,40)           107.9486         estimate D2E/DX2                !
 ! A34   A(13,12,39)           107.1811         estimate D2E/DX2                !
 ! A35   A(13,12,40)           108.1314         estimate D2E/DX2                !
 ! A36   A(39,12,40)           109.659          estimate D2E/DX2                !
 ! A37   A(12,13,14)           123.7108         estimate D2E/DX2                !
 ! A38   A(12,13,21)           124.4453         estimate D2E/DX2                !
 ! A39   A(14,13,21)           108.1679         estimate D2E/DX2                !
 ! A40   A(13,14,15)           112.2832         estimate D2E/DX2                !
 ! A41   A(14,15,16)           109.44           estimate D2E/DX2                !
 ! A42   A(15,16,17)           133.3802         estimate D2E/DX2                !
 ! A43   A(15,16,21)           106.1287         estimate D2E/DX2                !
 ! A44   A(17,16,21)           120.4857         estimate D2E/DX2                !
 ! A45   A(16,17,18)           117.4126         estimate D2E/DX2                !
 ! A46   A(16,17,41)           120.9818         estimate D2E/DX2                !
 ! A47   A(18,17,41)           121.6056         estimate D2E/DX2                !
 ! A48   A(17,18,19)           121.8655         estimate D2E/DX2                !
 ! A49   A(17,18,42)           119.2336         estimate D2E/DX2                !
 ! A50   A(19,18,42)           118.9007         estimate D2E/DX2                !
 ! A51   A(18,19,20)           122.1101         estimate D2E/DX2                !
 ! A52   A(18,19,43)           118.8969         estimate D2E/DX2                !
 ! A53   A(20,19,43)           118.9929         estimate D2E/DX2                !
 ! A54   A(19,20,21)           116.8945         estimate D2E/DX2                !
 ! A55   A(19,20,44)           121.476          estimate D2E/DX2                !
 ! A56   A(21,20,44)           121.6291         estimate D2E/DX2                !
 ! A57   A(13,21,16)           103.7812         estimate D2E/DX2                !
 ! A58   A(13,21,20)           134.9106         estimate D2E/DX2                !
 ! A59   A(16,21,20)           121.229          estimate D2E/DX2                !
 ! A60   A(9,22,23)            121.6568         estimate D2E/DX2                !
 ! A61   A(9,22,27)            121.3675         estimate D2E/DX2                !
 ! A62   A(23,22,27)           116.9532         estimate D2E/DX2                !
 ! A63   A(22,23,24)           119.3569         estimate D2E/DX2                !
 ! A64   A(22,23,45)           120.8362         estimate D2E/DX2                !
 ! A65   A(24,23,45)           119.8068         estimate D2E/DX2                !
 ! A66   A(23,24,25)           119.7537         estimate D2E/DX2                !
 ! A67   A(23,24,46)           120.0579         estimate D2E/DX2                !
 ! A68   A(25,24,46)           120.1878         estimate D2E/DX2                !
 ! A69   A(24,25,26)           121.4131         estimate D2E/DX2                !
 ! A70   A(24,25,28)           119.983          estimate D2E/DX2                !
 ! A71   A(26,25,28)           118.6038         estimate D2E/DX2                !
 ! A72   A(25,26,27)           118.5722         estimate D2E/DX2                !
 ! A73   A(22,27,26)           123.9128         estimate D2E/DX2                !
 ! A74   A(22,27,47)           120.6869         estimate D2E/DX2                !
 ! A75   A(26,27,47)           115.3878         estimate D2E/DX2                !
 ! A76   A(25,28,29)           128.5235         estimate D2E/DX2                !
 ! A77   A(25,28,32)           127.0079         estimate D2E/DX2                !
 ! A78   A(29,28,32)           104.466          estimate D2E/DX2                !
 ! A79   A(28,29,30)           106.1484         estimate D2E/DX2                !
 ! A80   A(28,29,48)           131.4415         estimate D2E/DX2                !
 ! A81   A(30,29,48)           122.4095         estimate D2E/DX2                !
 ! A82   A(29,30,31)           112.5944         estimate D2E/DX2                !
 ! A83   A(29,30,50)           127.0967         estimate D2E/DX2                !
 ! A84   A(31,30,50)           120.308          estimate D2E/DX2                !
 ! A85   A(30,31,32)           106.7994         estimate D2E/DX2                !
 ! A86   A(28,32,31)           109.9918         estimate D2E/DX2                !
 ! A87   A(28,32,49)           126.9759         estimate D2E/DX2                !
 ! A88   A(31,32,49)           123.0323         estimate D2E/DX2                !
 ! D1    D(1,2,3,4)           -179.8212         estimate D2E/DX2                !
 ! D2    D(1,2,3,33)             0.0148         estimate D2E/DX2                !
 ! D3    D(7,2,3,4)              0.0744         estimate D2E/DX2                !
 ! D4    D(7,2,3,33)           179.9103         estimate D2E/DX2                !
 ! D5    D(1,2,7,6)            179.8492         estimate D2E/DX2                !
 ! D6    D(1,2,7,36)             0.0356         estimate D2E/DX2                !
 ! D7    D(3,2,7,6)             -0.0465         estimate D2E/DX2                !
 ! D8    D(3,2,7,36)          -179.8601         estimate D2E/DX2                !
 ! D9    D(2,3,4,5)             -0.0396         estimate D2E/DX2                !
 ! D10   D(2,3,4,34)           179.7061         estimate D2E/DX2                !
 ! D11   D(33,3,4,5)          -179.8753         estimate D2E/DX2                !
 ! D12   D(33,3,4,34)           -0.1296         estimate D2E/DX2                !
 ! D13   D(3,4,5,6)             -0.0228         estimate D2E/DX2                !
 ! D14   D(3,4,5,35)           179.3737         estimate D2E/DX2                !
 ! D15   D(34,4,5,6)          -179.7688         estimate D2E/DX2                !
 ! D16   D(34,4,5,35)           -0.3722         estimate D2E/DX2                !
 ! D17   D(4,5,6,7)              0.0509         estimate D2E/DX2                !
 ! D18   D(4,5,6,8)            179.5996         estimate D2E/DX2                !
 ! D19   D(35,5,6,7)          -179.3348         estimate D2E/DX2                !
 ! D20   D(35,5,6,8)             0.2139         estimate D2E/DX2                !
 ! D21   D(5,6,7,2)             -0.0165         estimate D2E/DX2                !
 ! D22   D(5,6,7,36)           179.7977         estimate D2E/DX2                !
 ! D23   D(8,6,7,2)           -179.5979         estimate D2E/DX2                !
 ! D24   D(8,6,7,36)             0.2162         estimate D2E/DX2                !
 ! D25   D(5,6,8,9)             -0.9552         estimate D2E/DX2                !
 ! D26   D(5,6,8,37)           122.1263         estimate D2E/DX2                !
 ! D27   D(5,6,8,38)          -123.0073         estimate D2E/DX2                !
 ! D28   D(7,6,8,9)            178.6059         estimate D2E/DX2                !
 ! D29   D(7,6,8,37)           -58.3125         estimate D2E/DX2                !
 ! D30   D(7,6,8,38)            56.5539         estimate D2E/DX2                !
 ! D31   D(6,8,9,10)            78.4509         estimate D2E/DX2                !
 ! D32   D(6,8,9,22)           -94.3454         estimate D2E/DX2                !
 ! D33   D(37,8,9,10)          -44.3914         estimate D2E/DX2                !
 ! D34   D(37,8,9,22)          142.8123         estimate D2E/DX2                !
 ! D35   D(38,8,9,10)         -159.6393         estimate D2E/DX2                !
 ! D36   D(38,8,9,22)           27.5644         estimate D2E/DX2                !
 ! D37   D(8,9,10,11)         -178.0569         estimate D2E/DX2                !
 ! D38   D(8,9,10,12)            3.4632         estimate D2E/DX2                !
 ! D39   D(22,9,10,11)          -5.5263         estimate D2E/DX2                !
 ! D40   D(22,9,10,12)         175.9937         estimate D2E/DX2                !
 ! D41   D(8,9,22,23)           34.2444         estimate D2E/DX2                !
 ! D42   D(8,9,22,27)         -143.9788         estimate D2E/DX2                !
 ! D43   D(10,9,22,23)        -138.5712         estimate D2E/DX2                !
 ! D44   D(10,9,22,27)          43.2057         estimate D2E/DX2                !
 ! D45   D(9,10,12,13)        -172.9933         estimate D2E/DX2                !
 ! D46   D(9,10,12,39)         -52.7632         estimate D2E/DX2                !
 ! D47   D(9,10,12,40)          66.1428         estimate D2E/DX2                !
 ! D48   D(11,10,12,13)          8.5383         estimate D2E/DX2                !
 ! D49   D(11,10,12,39)        128.7685         estimate D2E/DX2                !
 ! D50   D(11,10,12,40)       -112.3256         estimate D2E/DX2                !
 ! D51   D(10,12,13,14)        -74.257          estimate D2E/DX2                !
 ! D52   D(10,12,13,21)         81.5447         estimate D2E/DX2                !
 ! D53   D(39,12,13,14)        164.657          estimate D2E/DX2                !
 ! D54   D(39,12,13,21)        -39.5413         estimate D2E/DX2                !
 ! D55   D(40,12,13,14)         46.5071         estimate D2E/DX2                !
 ! D56   D(40,12,13,21)       -157.6912         estimate D2E/DX2                !
 ! D57   D(12,13,14,15)        163.9083         estimate D2E/DX2                !
 ! D58   D(21,13,14,15)          4.7485         estimate D2E/DX2                !
 ! D59   D(12,13,21,16)       -162.9908         estimate D2E/DX2                !
 ! D60   D(12,13,21,20)         20.3694         estimate D2E/DX2                !
 ! D61   D(14,13,21,16)         -4.0211         estimate D2E/DX2                !
 ! D62   D(14,13,21,20)        179.3391         estimate D2E/DX2                !
 ! D63   D(13,14,15,16)         -3.2484         estimate D2E/DX2                !
 ! D64   D(14,15,16,17)        179.6485         estimate D2E/DX2                !
 ! D65   D(14,15,16,21)          0.5276         estimate D2E/DX2                !
 ! D66   D(15,16,17,18)       -179.5378         estimate D2E/DX2                !
 ! D67   D(15,16,17,41)          0.4892         estimate D2E/DX2                !
 ! D68   D(21,16,17,18)         -0.5177         estimate D2E/DX2                !
 ! D69   D(21,16,17,41)        179.5093         estimate D2E/DX2                !
 ! D70   D(15,16,21,13)          2.1979         estimate D2E/DX2                !
 ! D71   D(15,16,21,20)        179.4154         estimate D2E/DX2                !
 ! D72   D(17,16,21,13)       -177.0607         estimate D2E/DX2                !
 ! D73   D(17,16,21,20)          0.1568         estimate D2E/DX2                !
 ! D74   D(16,17,18,19)          0.4647         estimate D2E/DX2                !
 ! D75   D(16,17,18,42)       -179.4038         estimate D2E/DX2                !
 ! D76   D(41,17,18,19)       -179.5625         estimate D2E/DX2                !
 ! D77   D(41,17,18,42)          0.569          estimate D2E/DX2                !
 ! D78   D(17,18,19,20)         -0.0339         estimate D2E/DX2                !
 ! D79   D(17,18,19,43)       -179.951          estimate D2E/DX2                !
 ! D80   D(42,18,19,20)        179.835          estimate D2E/DX2                !
 ! D81   D(42,18,19,43)         -0.082          estimate D2E/DX2                !
 ! D82   D(18,19,20,21)         -0.3362         estimate D2E/DX2                !
 ! D83   D(18,19,20,44)        179.8815         estimate D2E/DX2                !
 ! D84   D(43,19,20,21)        179.5807         estimate D2E/DX2                !
 ! D85   D(43,19,20,44)         -0.2015         estimate D2E/DX2                !
 ! D86   D(19,20,21,13)        176.4555         estimate D2E/DX2                !
 ! D87   D(19,20,21,16)          0.2726         estimate D2E/DX2                !
 ! D88   D(44,20,21,13)         -3.7627         estimate D2E/DX2                !
 ! D89   D(44,20,21,16)       -179.9455         estimate D2E/DX2                !
 ! D90   D(9,22,23,24)        -176.6273         estimate D2E/DX2                !
 ! D91   D(9,22,23,45)           3.4047         estimate D2E/DX2                !
 ! D92   D(27,22,23,24)          1.6707         estimate D2E/DX2                !
 ! D93   D(27,22,23,45)       -178.2973         estimate D2E/DX2                !
 ! D94   D(9,22,27,26)         176.4733         estimate D2E/DX2                !
 ! D95   D(9,22,27,47)          -4.8727         estimate D2E/DX2                !
 ! D96   D(23,22,27,26)         -1.83           estimate D2E/DX2                !
 ! D97   D(23,22,27,47)        176.824          estimate D2E/DX2                !
 ! D98   D(22,23,24,25)         -0.1604         estimate D2E/DX2                !
 ! D99   D(22,23,24,46)       -179.8748         estimate D2E/DX2                !
 ! D100  D(45,23,24,25)        179.808          estimate D2E/DX2                !
 ! D101  D(45,23,24,46)          0.0936         estimate D2E/DX2                !
 ! D102  D(23,24,25,26)         -1.4252         estimate D2E/DX2                !
 ! D103  D(23,24,25,28)        178.4584         estimate D2E/DX2                !
 ! D104  D(46,24,25,26)        178.2888         estimate D2E/DX2                !
 ! D105  D(46,24,25,28)         -1.8275         estimate D2E/DX2                !
 ! D106  D(24,25,26,27)          1.3375         estimate D2E/DX2                !
 ! D107  D(28,25,26,27)       -178.5477         estimate D2E/DX2                !
 ! D108  D(24,25,28,29)         -5.5972         estimate D2E/DX2                !
 ! D109  D(24,25,28,32)        175.085          estimate D2E/DX2                !
 ! D110  D(26,25,28,29)        174.2897         estimate D2E/DX2                !
 ! D111  D(26,25,28,32)         -5.0282         estimate D2E/DX2                !
 ! D112  D(25,26,27,22)          0.3214         estimate D2E/DX2                !
 ! D113  D(25,26,27,47)       -178.3974         estimate D2E/DX2                !
 ! D114  D(25,28,29,30)       -179.4859         estimate D2E/DX2                !
 ! D115  D(25,28,29,48)          0.2342         estimate D2E/DX2                !
 ! D116  D(32,28,29,30)         -0.0485         estimate D2E/DX2                !
 ! D117  D(32,28,29,48)        179.6716         estimate D2E/DX2                !
 ! D118  D(25,28,32,31)        179.5065         estimate D2E/DX2                !
 ! D119  D(25,28,32,49)         -0.4882         estimate D2E/DX2                !
 ! D120  D(29,28,32,31)          0.0576         estimate D2E/DX2                !
 ! D121  D(29,28,32,49)       -179.937          estimate D2E/DX2                !
 ! D122  D(28,29,30,31)          0.0259         estimate D2E/DX2                !
 ! D123  D(28,29,30,50)        179.6868         estimate D2E/DX2                !
 ! D124  D(48,29,30,31)       -179.7255         estimate D2E/DX2                !
 ! D125  D(48,29,30,50)         -0.0647         estimate D2E/DX2                !
 ! D126  D(29,30,31,32)          0.0107         estimate D2E/DX2                !
 ! D127  D(50,30,31,32)       -179.6759         estimate D2E/DX2                !
 ! D128  D(30,31,32,28)         -0.0427         estimate D2E/DX2                !
 ! D129  D(30,31,32,49)        179.9522         estimate D2E/DX2                !
 --------------------------------------------------------------------------------
 Trust Radius=3.00D-01 FncErr=1.00D-07 GrdErr=1.00D-07
 Number of steps in this run=    281 maximum allowed number of steps=    300.
 GradGradGradGradGradGradGradGradGradGradGradGradGradGradGradGradGradGrad

 Leave Link  103 at Sat Aug 27 11:18:30 2022, MaxMem=  209715200 cpu:       0.1
 (Enter /opt/gaussian/l202.exe)
                          Input orientation:                          
 ---------------------------------------------------------------------
 Center     Atomic      Atomic             Coordinates (Angstroms)
 Number     Number       Type             X           Y           Z
 ---------------------------------------------------------------------
      1         17           0       23.777400  -15.314300   -2.914000
      2          6           0       23.100100  -13.844000   -2.398700
      3          6           0       23.288300  -13.417100   -1.078900
      4          6           0       22.724400  -12.211800   -0.669000
      5          6           0       21.980800  -11.435400   -1.559700
      6          6           0       21.794900  -11.861700   -2.876300
      7          6           0       22.359000  -13.074500   -3.296600
      8          6           0       21.002800  -11.097100   -3.903300
      9          7           0       20.381900   -9.859200   -3.497300
     10          6           0       21.124500   -8.677400   -3.381000
     11          8           0       20.599000   -7.621200   -2.997900
     12          6           0       22.608400   -8.750600   -3.785900
     13          7           0       23.375900   -7.567600   -3.506500
     14          7           0       23.278800   -6.404400   -4.235300
     15          7           0       23.781300   -5.424200   -3.635700
     16          6           0       24.229400   -5.837300   -2.337700
     17          6           0       24.852800   -5.171900   -1.283600
     18          6           0       25.157300   -5.915400   -0.147100
     19          6           0       24.862600   -7.285200   -0.056500
     20          6           0       24.249300   -7.980100   -1.094500
     21          6           0       23.928900   -7.250700   -2.239300
     22          6           0       19.032100   -9.918000   -3.071400
     23          6           0       18.524300  -11.032700   -2.374500
     24          6           0       17.173600  -11.071300   -2.040500
     25          6           0       16.331100   -9.994700   -2.399800
     26          7           0       16.817500   -8.896300   -3.046100
     27          6           0       18.114200   -8.863800   -3.362800
     28          6           0       14.921900  -10.044500   -2.085100
     29          6           0       14.183600  -11.108700   -1.528600
     30          7           0       12.868800  -10.660400   -1.434700
     31          7           0       12.719100   -9.409900   -1.883800
     32          6           0       13.941500   -8.991300   -2.291600
     33          1           0       23.872400  -14.028600   -0.374600
     34          1           0       22.862100  -11.869000    0.368000
     35          1           0       21.537800  -10.491600   -1.204700
     36          1           0       22.213600  -13.418400   -4.332500
     37          1           0       21.686300  -10.881900   -4.778700
     38          1           0       20.187800  -11.783700   -4.284900
     39          1           0       23.095200   -9.603600   -3.228100
     40          1           0       22.656700   -8.946600   -4.897200
     41          1           0       25.091900   -4.101000   -1.352700
     42          1           0       25.640900   -5.417700    0.707200
     43          1           0       25.124300   -7.825900    0.866400
     44          1           0       24.025300   -9.052000   -1.013200
     45          1           0       19.182400  -11.869900   -2.092100
     46          1           0       16.766100  -11.933400   -1.495700
     47          1           0       18.458400   -7.935900   -3.861500
     48          1           0       14.484100  -12.106100   -1.211800
     49          1           0       14.121900   -7.999100   -2.709300
     50          1           0       12.087700  -11.165000   -1.088500
 ---------------------------------------------------------------------
                    Distance matrix (angstroms):
                    1          2          3          4          5
     1  Cl   0.000000
     2  C    1.698838   0.000000
     3  C    2.684433   1.399834   0.000000
     4  C    3.971692   2.407715   1.392390   0.000000
     5  C    4.484168   2.785338   2.422367   1.396096   0.000000
     6  C    3.981479   2.420984   2.807162   2.420478   1.396326
     7  C    2.678609   1.395559   2.428820   2.789633   2.417955
     8  C    5.144113   3.769343   4.310817   3.829773   2.561912
     9  N    6.451959   4.947137   5.191770   4.361343   2.965667
    10  C    7.162710   5.617977   5.696179   4.733562   3.414227
    11  O    8.324245   6.733334   6.671383   5.569085   4.304174
    12  C    6.723758   5.301775   5.437493   4.659230   3.543727
    13  N    7.779693   6.379380   6.333843   5.481282   4.549309
    14  N    9.021128   7.665030   7.690313   6.837525   5.844194
    15  N    9.916398   8.537402   8.406350   7.482637   6.609546
    16  C    9.505259   8.086179   7.741034   6.758982   6.082780
    17  C   10.328745   8.917439   8.394813   7.380245   6.896089
    18  C    9.894401   8.494967   7.786971   6.770232   6.523495
    19  C    8.591240   7.184021   6.412793   5.405409   5.271484
    20  C    7.571246   6.116120   5.521298   4.518147   4.159519
    21  C    8.093196   6.647099   6.307249   5.341271   4.665690
    22  C    7.187677   5.693384   5.859095   4.966500   3.644526
    23  C    6.798398   5.370469   5.482667   4.683999   3.573998
    24  C    7.897862   6.552830   6.619442   5.830363   4.844885
    25  C    9.165693   7.786942   7.865127   6.984661   5.890713
    26  N    9.468283   8.023087   8.135033   7.178761   5.942733
    27  C    8.595476   7.112741   7.260857   6.302349   4.981455
    28  C   10.338169   9.023165   9.076537   8.220799   7.213787
    29  C   10.566333   9.367119   9.403537   8.654537   7.804103
    30  N   11.951764  10.758443  10.783875  10.006298   9.145753
    31  N   12.578126  11.300068  11.331968  10.460995   9.486136
    32  C   11.709511  10.365333  10.412541   9.494408   8.434432
    33  H    2.847912   2.174283   1.100520   2.169179   3.421593
    34  H    4.845554   3.407623   2.161430   1.100837   2.163499
    35  H    5.585333   3.886516   3.411543   2.157332   1.101378
    36  H    2.837613   2.169470   3.426499   3.890762   3.416856
    37  H    5.243660   4.054290   4.762579   4.442513   3.279490
    38  H    5.218212   4.035353   4.749688   4.437605   3.280682
    39  H    5.759874   4.320755   4.381681   3.672764   2.716788
    40  H    6.762888   5.515762   5.913011   5.342639   4.217804
    41  H   11.397529   9.999372   9.493032   8.476885   7.969643
    42  H   10.701795   9.332996   8.527326   7.520618   7.399181
    43  H    8.495981   7.139733   6.198113   5.230018   5.366195
    44  H    6.549114   5.073349   4.427368   3.434407   3.187356
    45  H    5.801158   4.397664   4.503201   3.832476   2.881542
    46  H    7.912041   6.677227   6.701804   6.021817   5.238816
    47  H    9.144961   7.654463   7.817567   6.831847   5.472850
    48  H    9.977748   8.869300   8.902265   8.258835   7.534679
    49  H   12.115392  10.717621  10.771992   9.793501   8.654019
    50  H   12.537872  11.409059  11.424775  10.696315   9.908006
                    6          7          8          9         10
     6  C    0.000000
     7  C    1.402050   0.000000
     8  C    1.505578   2.473353   0.000000
     9  N    2.528283   3.779862   1.443173   0.000000
    10  C    3.293012   4.567888   2.478418   1.400583   0.000000
    11  O    4.407585   5.738057   3.614510   2.303297   1.240352
    12  C    3.341870   4.358638   2.845663   2.503914   1.539890
    13  N    4.619092   5.603935   4.271583   3.770352   2.513207
    14  N    5.816439   6.798340   5.226072   4.568623   3.246131
    15  N    6.779667   7.788775   6.322457   5.589660   4.207941
    16  C    6.519990   7.536242   6.366125   5.685385   4.335325
    17  C    7.526013   8.527737   7.536134   6.845451   5.530627
    18  C    7.356137   8.306777   7.630133   7.041438   5.860907
    19  C    6.189217   7.090998   6.650301   6.208160   5.192679
    20  C    4.926024   5.863053   5.305168   4.925571   3.934296
    21  C    5.120649   6.123652   5.111335   4.579088   3.347180
    22  C    3.383652   4.591565   2.442538   1.416619   2.452158
    23  C    3.411139   4.441187   2.912789   2.467480   3.649866
    24  C    4.762322   5.699032   4.258340   3.726210   4.810126
    25  C    5.793604   6.828250   5.029968   4.199029   5.067022
    26  N    5.796287   6.944662   4.805731   3.719638   4.325543
    27  C    4.771964   5.979356   3.691040   2.480197   3.016120
    28  C    7.153065   8.121520   6.433596   5.642716   6.482327
    29  C    7.766286   8.592285   7.220860   6.622383   7.584108
    30  N    9.121217   9.967871   8.511560   7.832172   8.710738
    31  N    9.453387  10.409273   8.691646   7.843708   8.569067
    32  C    8.381943   9.409402   7.542806   6.609517   7.271920
    33  H    3.907680   3.426189   5.411102   6.270466   6.724934
    34  H    3.415326   3.890454   4.721952   5.013106   5.221165
    35  H    2.176585   3.423710   2.816966   2.644248   2.863288
    36  H    2.172359   1.101134   2.653052   4.089082   4.956669
    37  H    2.142645   2.730685   1.131286   2.095080   2.670020
    38  H    2.138459   2.712381   1.131929   2.088466   3.368017
    39  H    2.629365   3.548779   2.657927   2.738576   2.182861
    40  H    3.650280   4.437353   2.889269   2.822636   2.172319
    41  H    8.568549   9.579728   8.495394   7.742111   6.387308
    42  H    8.316148   9.242720   8.661655   8.066091   6.909189
    43  H    6.432759   7.247431   7.101940   6.757703   5.896088
    44  H    4.042306   4.916399   4.655171   4.482933   3.763169
    45  H    2.727672   3.604535   2.681701   2.730623   3.952856
    46  H    5.215364   5.985472   4.944245   4.624145   5.757738
    47  H    5.245451   6.476033   4.058190   2.744372   2.808699
    48  H    7.501872   8.203550   7.124304   6.712385   7.781794
    49  H    8.592002   9.693009   7.640028   6.577881   7.067367
    50  H    9.895017  10.678085   9.349156   8.735055   9.649221
                   11         12         13         14         15
    11  O    0.000000
    12  C    2.436017   0.000000
    13  N    2.823601   1.437571   0.000000
    14  N    3.192662   2.481139   1.376086   0.000000
    15  N    3.919264   3.530325   2.185224   1.254121   0.000000
    16  C    4.098532   3.634865   2.255769   2.196845   1.433963
    17  C    5.199299   4.909779   3.586349   3.564978   2.596949
    18  C    5.640471   5.270305   4.145928   4.525623   3.782193
    19  C    5.190666   4.597525   3.767297   4.554844   4.176506
    20  C    4.132364   3.244974   2.598216   3.645453   3.634466
    21  C    3.435255   2.526933   1.418461   2.263376   2.303871
    22  C    2.781343   3.829263   4.958053   5.633339   6.562589
    23  C    4.041205   4.886707   6.068473   6.891227   7.789862
    24  C    4.955116   6.161909   7.272798   7.991907   8.837200
    25  C    4.919979   6.547790   7.532915   8.033047   8.827366
    26  N    3.990983   5.839782   6.707460   7.026533   7.803693
    27  C    2.802042   4.515491   5.420911   5.786449   6.634858
    28  C    6.239796   7.978044   8.923314   9.365440  10.111404
    29  C    7.448413   9.035114  10.047381  10.591474  11.352060
    30  N    8.452001  10.199769  11.147059  11.589866  12.302229
    31  N    8.156806  10.092121  10.935932  11.228083  11.888113
    32  C    6.833618   8.798069   9.618254   9.882064  10.552368
    33  H    7.658435   6.410300   7.197210   8.566551   9.202107
    34  H    5.873220   5.200353   5.811866   7.157225   7.642643
    35  H    3.512280   3.292394   4.150502   5.377808   6.051578
    36  H    6.164059   4.716248   6.022049   7.095089   8.176212
    37  H    3.871128   2.525542   3.931644   4.783236   5.956674
    38  H    4.376284   3.912544   5.342788   6.204322   7.333345
    39  H    3.195922   1.129480   2.074029   3.359024   4.254910
    40  H    3.098089   1.129485   2.086369   2.699611   3.906841
    41  H    5.940088   5.805774   4.427282   4.111249   2.946289
    42  H    6.633546   6.363350   5.244765   5.566094   4.724292
    43  H    5.954247   5.369238   4.716553   5.608375   5.276430
    44  H    4.210196   3.128308   2.973501   4.236623   4.483077
    45  H    4.569320   4.933200   6.172176   7.158595   8.067195
    46  H    5.961778   7.036171   8.172697   8.971650   9.806239
    47  H    2.329594   4.229888   4.944034   5.071634   5.890067
    48  H    7.790795   9.159128  10.243424  10.908606  11.703034
    49  H    6.494530   8.587462   9.298292   9.419159  10.039539
    50  H    9.415230  11.126114  12.091793  12.562101  13.273481
                   16         17         18         19         20
    16  C    0.000000
    17  C    1.393740   0.000000
    18  C    2.380300   1.391813   0.000000
    19  C    2.775109   2.443749   1.404069   0.000000
    20  C    2.477405   2.878534   2.446429   1.391570   0.000000
    21  C    1.448338   2.467461   2.769349   2.374363   1.394721
    22  C    6.648485   7.720249   7.879747   7.072198   5.906163
    23  C    7.716327   8.694191   8.668608   7.719516   6.613047
    24  C    8.790188   9.713183   9.690600   8.797246   7.779201
    25  C    8.925860   9.855185   9.980839   9.253050   8.274075
    26  N    8.049570   9.030150   9.318918   8.732525   7.738205
    27  C    6.899725   7.960021   8.284869   7.678835   6.600421
    28  C   10.217333  11.090870  11.205745  10.514108   9.604344
    29  C   11.373671  12.212184  12.218879  11.437975  10.549640
    30  N   12.375013  13.181909  13.235565  12.535655  11.696817
    31  N   12.060535  12.866529  13.035969  12.462663  11.645292
    32  C   10.760610  11.604325  11.825997  11.277272  10.426232
    33  H    8.430813   8.957042   8.217465   6.823132   6.102840
    34  H    6.750683   7.179263   6.401455   5.019305   4.380271
    35  H    5.494625   6.268545   5.929663   4.759586   3.697568
    36  H    8.094180   9.179648   9.081737   7.932056   6.648596
    37  H    6.154172   7.405845   7.626643   6.732333   5.344412
    38  H    7.448879   8.630523   8.732369   7.744006   6.414188
    39  H    4.032894   5.148806   5.229497   4.307868   2.918895
    40  H    4.323444   5.668273   6.164789   5.573026   4.234504
    41  H    2.174596   1.099441   2.179403   3.445554   3.977947
    42  H    3.382279   2.155181   1.100637   2.162532   3.427618
    43  H    3.875775   3.426358   2.162934   1.101176   2.152796
    44  H    3.482851   3.976562   3.445259   2.176678   1.098069
    45  H    7.869231   8.813076   8.656704   7.578114   6.465232
    46  H    9.673275  10.543130  10.413803   9.446183   8.472770
    47  H    6.326968   7.427894   7.921771   7.477648   6.418159
    48  H   11.642009  12.473902  12.384488  11.501698  10.601734
    49  H   10.342776  11.188293  11.518973  11.086462  10.255348
    50  H   13.317874  14.103301  14.115912  13.390890  12.571720
                   21         22         23         24         25
    21  C    0.000000
    22  C    5.637866   0.000000
    23  C    6.597841   1.409286   0.000000
    24  C    7.763413   2.418032   1.391918   0.000000
    25  C    8.079719   2.784301   2.426563   1.413496   0.000000
    26  N    7.343768   2.439050   2.815745   2.422532   1.364101
    27  C    6.138003   1.427863   2.418480   2.739756   2.320722
    28  C    9.431604   4.228775   3.746676   2.475169   1.444770
    29  C   10.505243   5.225510   4.423008   3.033734   2.571331
    30  N   11.601692   6.419985   5.745129   4.366593   3.655420
    31  N   11.421390   6.443798   6.047695   4.756824   3.695239
    32  C   10.138076   5.232692   5.017593   3.851743   2.593975
    33  H    7.029952   6.899150   6.448038   7.509645   8.788913
    34  H    5.409692   5.504977   5.199732   6.228662   7.336735
    35  H    4.158268   3.176809   3.277561   4.481167   5.365156
    36  H    6.735300   4.895418   4.810017   6.013630   7.075370
    37  H    4.966228   3.299811   3.975068   5.281863   5.926589
    38  H    6.223214   2.507800   2.642132   3.824951   4.650619
    39  H    2.684943   4.078257   4.864575   6.215294   6.825840
    40  H    3.399853   4.173115   5.271865   6.537543   6.881042
    41  H    3.472641   8.573949   9.603432  10.571548  10.610548
    42  H    3.869457   8.843458   9.574502  10.545531  10.829347
    43  H    3.377160   7.549705   8.021658   9.066219   9.627675
    44  H    2.181123   5.469752   6.003108   7.216558   7.874773
    45  H    6.624797   2.188957   1.101703   2.162337   3.426509
    46  H    8.589897   3.417517   2.162133   1.098217   2.182929
    47  H    5.746947   2.209550   3.435940   3.846750   3.301610
    48  H   10.669345   5.378680   4.339041   2.998494   3.046434
    49  H    9.846738   5.284256   5.356860   4.381618   2.993121
    50  H   12.524380   7.328819   6.565144   5.175081   4.592990
                   26         27         28         29         30
    26  N    0.000000
    27  C    1.335210   0.000000
    28  C    2.415612   3.635567   0.000000
    29  C    3.759647   4.884003   1.409717   0.000000
    30  N    4.615289   5.870227   2.239994   1.392296   0.000000
    31  N    4.290875   5.620745   2.301210   2.270870   1.337106
    32  C    2.974840   4.309890   1.453636   2.263662   2.161217
    33  H    9.124091   8.292247   9.945366  10.184811  11.556288
    34  H    7.551835   6.744824   8.508424   8.915801  10.226265
    35  H    5.311965   4.362129   6.689180   7.387150   8.673693
    36  H    7.156962   6.204013   8.342835   8.813482  10.165092
    37  H    5.536219   4.340207   7.328972   8.179554   9.432905
    38  H    4.607670   3.698094   5.966041   6.641026   7.934306
    39  H    6.320041   5.037441   8.264604   9.196208  10.436109
    40  H    6.125794   4.795367   8.303037   9.370996  10.522785
    41  H    9.712271   8.684070  11.802140  12.966488  13.872153
    42  H   10.200015   9.224517  12.004215  12.986763  13.971406
    43  H    9.244260   8.252568  10.850000  11.670978  12.787757
    44  H    7.490615   6.363737   9.219865  10.067508  11.279721
    45  H    3.917291   3.434002   4.635083   5.087726   6.461935
    46  H    3.410331   3.837431   2.704886   2.711184   4.100390
    47  H    2.068767   1.108230   4.484264   5.812314   6.675020
    48  H    4.371753   5.321366   2.281341   1.088793   2.179203
    49  H    2.860885   4.136814   2.283262   3.326781   3.205836
    50  H    5.599125   6.840078   3.206466   2.142348   0.992267
                   31         32         33         34         35
    31  N    0.000000
    32  C    1.354913   0.000000
    33  H   12.165779  11.299206   0.000000
    34  H   10.676995   9.743292   2.497205   0.000000
    35  H    8.910708   7.818953   4.318541   2.474750   0.000000
    36  H   10.592910   9.601673   4.334620   4.991582   4.336588
    37  H    9.537185   8.351165   5.837538   5.370791   3.598314
    38  H    8.196444   7.126500   5.822912   5.367368   3.602729
    39  H   10.464612   9.221831   5.322323   4.256561   2.703366
    40  H   10.394764   9.096475   6.910757   6.025358   4.156142
    41  H   13.474148  12.211797  10.049930   8.262847   7.313911
    42  H   13.770398  12.595213   8.856945   7.032500   6.799651
    43  H   12.804751  11.678448   6.448319   4.659679   4.925281
    44  H   11.345316  10.164694   5.019735   3.346078   2.880413
    45  H    6.918760   5.982739   5.441130   4.426317   2.869686
    46  H    4.785069   4.155451   7.493079   6.374852   4.993254
    47  H    6.246882   4.897024   8.865149   7.262955   4.803425
    48  H    3.291854   3.341012   9.619620   8.528943   7.236114
    49  H    2.153986   1.091549  11.699485  10.041763   7.966929
    50  H    2.027694   3.099838  12.148622  10.895169   9.474775
                   36         37         38         39         40
    36  H    0.000000
    37  H    2.628873   0.000000
    38  H    2.603531   1.817301   0.000000
    39  H    4.068122   2.454264   3.784526   0.000000
    40  H    4.529042   2.168203   3.810448   1.846571   0.000000
    41  H   10.196949   8.325635   9.574543   6.146751   6.478697
    42  H   10.057642   8.694334   9.756194   6.284022   7.264151
    43  H    8.171707   7.281905   8.158989   4.903304   6.368995
    44  H    5.776284   4.795669   5.735208   2.464778   4.119421
    45  H    4.074975   3.803088   2.413842   4.662254   5.337137
    46  H    6.318854   6.007671   4.417021   6.963238   7.429020
    47  H    6.661920   4.465368   4.239771   4.968132   4.440711
    48  H    8.438369   8.129768   6.486916   9.191247   9.505578
    49  H    9.873156   8.355423   7.321261   9.130372   8.861573
    50  H   10.869002  10.287412   8.729913  11.321701  11.451256
                   41         42         43         44         45
    41  H    0.000000
    42  H    2.505651   0.000000
    43  H    4.335935   2.468126   0.000000
    44  H    5.075953   4.333368   2.498803   0.000000
    45  H    9.789010   9.548779   7.772569   5.705985   0.000000
    46  H   11.431793  11.228054   9.607840   7.825040   2.489625
    47  H    8.062497   8.877086   8.173088   6.352076   4.373935
    48  H   13.290105  13.148819  11.655595  10.020053   4.785890
    49  H   11.720770  12.289160  11.570153  10.102608   6.400991
    50  H   14.801321  14.830550  13.598682  12.123396   7.199921
                   46         47         48         49         50
    46  H    0.000000
    47  H    4.943773   0.000000
    48  H    2.306068   6.340863   0.000000
    49  H    4.893193   4.487404   4.386473   0.000000
    50  H    4.758537   7.661751   2.577519   4.097302   0.000000
 Stoichiometry    C23H18ClN7O
 Framework group  C1[X(C23H18ClN7O)]
 Deg. of freedom   144
 Full point group                 C1      NOp   1
 Largest Abelian subgroup         C1      NOp   1
 Largest concise Abelian subgroup C1      NOp   1
                         Standard orientation:                         
 ---------------------------------------------------------------------
 Center     Atomic      Atomic             Coordinates (Angstroms)
 Number     Number       Type             X           Y           Z
 ---------------------------------------------------------------------
      1         17           0       -2.087191    5.970204   -0.426802
      2          6           0       -1.685405    4.395066    0.066716
      3          6           0       -1.954052    3.988355    1.378947
      4          6           0       -1.616077    2.695759    1.771017
      5          6           0       -1.017570    1.813063    0.870061
      6          6           0       -0.751311    2.219544   -0.438986
      7          6           0       -1.088089    3.519713   -0.841335
      8          6           0       -0.102209    1.341905   -1.475896
      9          7           0        0.286072    0.007143   -1.088088
     10          6           0       -0.655716   -1.025139   -0.992899
     11          8           0       -0.328829   -2.163787   -0.625338
     12          6           0       -2.100565   -0.682626   -1.400767
     13          7           0       -3.067989   -1.714151   -1.142589
     14          7           0       -3.175423   -2.864749   -1.889712
     15          7           0       -3.847788   -3.748842   -1.307367
     16          6           0       -4.222502   -3.282460   -0.004169
     17          6           0       -4.960352   -3.842248    1.037333
     18          6           0       -5.134027   -3.073892    2.184769
     19          6           0       -4.600672   -1.780032    2.298206
     20          6           0       -3.867599   -1.189666    1.273248
     21          6           0       -3.675722   -1.946855    0.117784
     22          6           0        1.622349   -0.181934   -0.657481
     23          6           0        2.316554    0.813697    0.058678
     24          6           0        3.650639    0.605992    0.397076
     25          6           0        4.290015   -0.597820    0.022906
     26          7           0        3.619484   -1.582000   -0.642338
     27          6           0        2.339524   -1.378176   -0.963187
     28          6           0        5.683767   -0.804629    0.342352
     29          6           0        6.596588    0.102412    0.917970
     30          7           0        7.810015   -0.574280    1.008373
     31          7           0        7.737217   -1.824423    0.539659
     32          6           0        6.462142   -2.012319    0.121727
     33          1           0       -2.423916    4.683254    2.091328
     34          1           0       -1.818463    2.367129    2.801979
     35          1           0       -0.751694    0.800128    1.211099
     36          1           0       -0.877937    3.848037   -1.871158
     37          1           0       -0.808149    1.265311   -2.356572
     38          1           0        0.824153    1.878131   -1.844104
     39          1           0       -2.430861    0.234796   -0.830710
     40          1           0       -2.106922   -0.464165   -2.508906
     41          1           0       -5.385901   -4.852255    0.950355
     42          1           0       -5.703327   -3.490522    3.029588
     43          1           0       -4.767131   -1.215561    3.228933
     44          1           0       -3.456799   -0.176173    1.372398
     45          1           0        1.816439    1.750300    0.352634
     46          1           0        4.202034    1.373285    0.956812
     47          1           0        1.838442   -2.222190   -1.477708
     48          1           0        6.476682    1.132416    1.249907
     49          1           0        6.110334   -2.950010   -0.312375
     50          1           0        8.666507   -0.222228    1.364847
 ---------------------------------------------------------------------
 Rotational constants (GHZ):      0.1325415      0.0730112      0.0522693
 Leave Link  202 at Sat Aug 27 11:18:30 2022, MaxMem=  209715200 cpu:       0.1
 (Enter /opt/gaussian/l301.exe)
 Standard basis: 6-31G (6D, 7F)
 Ernie: Thresh=  0.10000D-02 Tol=  0.10000D-05 Strict=F.
 There are   328 symmetry adapted basis functions of A   symmetry.
 Integral buffers will be    131072 words long.
 Raffenetti 1 integral format.
 Two-electron integral symmetry is turned on.
   328 basis functions,   800 primitive gaussians,   328 cartesian basis functions
   115 alpha electrons      115 beta electrons
       nuclear repulsion energy      3048.7996022668 Hartrees.
 IExCor=    0 DFT=F Ex=HF Corr=None ExCW=0 ScaHFX=  1.000000
 ScaDFX=  1.000000  1.000000  1.000000  1.000000 ScalE2=  1.000000  1.000000
 IRadAn=      0 IRanWt=     -1 IRanGd=            0 ICorTp=0
 NAtoms=   50 NActive=   50 NUniq=   50 SFac= 1.00D+00 NAtFMM=   60 NAOKFM=F Big=F
 Leave Link  301 at Sat Aug 27 11:18:30 2022, MaxMem=  209715200 cpu:       0.2
 (Enter /opt/gaussian/l302.exe)
 NPDir=0 NMtPBC=     1 NCelOv=     1 NCel=       1 NClECP=     1 NCelD=      1
         NCelK=      1 NCelE2=     1 NClLst=     1 CellRange=     0.0.
 One-electron integrals computed using PRISM.
 NBasis=   328 RedAO= T  NBF=   328
 NBsUse=   328 1.00D-06 NBFU=   328
 Leave Link  302 at Sat Aug 27 11:18:30 2022, MaxMem=  209715200 cpu:       1.9
 (Enter /opt/gaussian/l303.exe)
 DipDrv:  MaxL=1.
 Leave Link  303 at Sat Aug 27 11:18:30 2022, MaxMem=  209715200 cpu:       0.4
 (Enter /opt/gaussian/l401.exe)
 Harris functional with IExCor=  205 diagonalized for initial guess.
 ExpMin= 1.43D-01 ExpMax= 2.52D+04 ExpMxC= 3.78D+03 IAcc=1 IRadAn=         1 AccDes= 0.00D+00
 HarFok:  IExCor=  205 AccDes= 0.00D+00 IRadAn=         1 IDoV= 1
 ScaDFX=  1.000000  1.000000  1.000000  1.000000
 FoFCou: FMM=F IPFlag=           0 FMFlag=      100000 FMFlg1=           0
         NFxFlg=           0 DoJE=T BraDBF=F KetDBF=T FulRan=T
         Omega=  0.000000  0.000000  1.000000  0.000000  0.000000 ICntrl=     500 IOpCl=  0
         NMat0=    1 NMatS0=    1 NMatT0=    0 NMatD0=    1 NMtDS0=    0 NMtDT0=    0
         I1Cent=           4 NGrid=           0.
 Petite list used in FoFCou.
 Harris En= -1797.25418838578    
 Initial guess orbital symmetries:
       Occupied  (A) (A) (A) (A) (A) (A) (A) (A) (A) (A) (A) (A)
                 (A) (A) (A) (A) (A) (A) (A) (A) (A) (A) (A) (A)
                 (A) (A) (A) (A) (A) (A) (A) (A) (A) (A) (A) (A)
                 (A) (A) (A) (A) (A) (A) (A) (A) (A) (A) (A) (A)
                 (A) (A) (A) (A) (A) (A) (A) (A) (A) (A) (A) (A)
                 (A) (A) (A) (A) (A) (A) (A) (A) (A) (A) (A) (A)
                 (A) (A) (A) (A) (A) (A) (A) (A) (A) (A) (A) (A)
                 (A) (A) (A) (A) (A) (A) (A) (A) (A) (A) (A) (A)
                 (A) (A) (A) (A) (A) (A) (A) (A) (A) (A) (A) (A)
                 (A) (A) (A) (A) (A) (A) (A)
       Virtual   (A) (A) (A) (A) (A) (A) (A) (A) (A) (A) (A) (A)
                 (A) (A) (A) (A) (A) (A) (A) (A) (A) (A) (A) (A)
                 (A) (A) (A) (A) (A) (A) (A) (A) (A) (A) (A) (A)
                 (A) (A) (A) (A) (A) (A) (A) (A) (A) (A) (A) (A)
                 (A) (A) (A) (A) (A) (A) (A) (A) (A) (A) (A) (A)
                 (A) (A) (A) (A) (A) (A) (A) (A) (A) (A) (A) (A)
                 (A) (A) (A) (A) (A) (A) (A) (A) (A) (A) (A) (A)
                 (A) (A) (A) (A) (A) (A) (A) (A) (A) (A) (A) (A)
                 (A) (A) (A) (A) (A) (A) (A) (A) (A) (A) (A) (A)
                 (A) (A) (A) (A) (A) (A) (A) (A) (A) (A) (A) (A)
                 (A) (A) (A) (A) (A) (A) (A) (A) (A) (A) (A) (A)
                 (A) (A) (A) (A) (A) (A) (A) (A) (A) (A) (A) (A)
                 (A) (A) (A) (A) (A) (A) (A) (A) (A) (A) (A) (A)
                 (A) (A) (A) (A) (A) (A) (A) (A) (A) (A) (A) (A)
                 (A) (A) (A) (A) (A) (A) (A) (A) (A) (A) (A) (A)
                 (A) (A) (A) (A) (A) (A) (A) (A) (A) (A) (A) (A)
                 (A) (A) (A) (A) (A) (A) (A) (A) (A) (A) (A) (A)
                 (A) (A) (A) (A) (A) (A) (A) (A) (A)
 The electronic state of the initial guess is 1-A.
 Leave Link  401 at Sat Aug 27 11:18:31 2022, MaxMem=  209715200 cpu:       4.5
 (Enter /opt/gaussian/l502.exe)
 Closed shell SCF:
 Requested convergence on RMS density matrix=1.00D-08 within 128 cycles.
 Requested convergence on MAX density matrix=1.00D-06.
 Requested convergence on             energy=1.00D-06.
 No special actions if energy rises.
 Using DIIS extrapolation, IDIIS=  1040.
 Integral symmetry usage will be decided dynamically.
 IEnd=      346051 IEndB=      346051 NGot=   209715200 MDV=   209493702
 LenX=   209493702 LenY=   209385677
 Fock matrices will be formed incrementally for  20 cycles.
 Integral accuracy reduced to 1.0D-05 until final iterations.

 Cycle   1  Pass 0  IDiag  1:
 FoFCou: FMM=F IPFlag=           0 FMFlag=      100000 FMFlg1=           0
         NFxFlg=           0 DoJE=F BraDBF=F KetDBF=F FulRan=T
         Omega=  0.000000  0.000000  1.000000  0.000000  0.000000 ICntrl=       0 IOpCl=  0
         NMat0=    1 NMatS0=    1 NMatT0=    0 NMatD0=    1 NMtDS0=    0 NMtDT0=    0
         I1Cent=           0 NGrid=           0.
 Symmetry not used in FoFCou.
 E= -1795.36937657315    
 DIIS: error= 3.46D-02 at cycle   1 NSaved=   1.
 NSaved= 1 IEnMin= 1 EnMin= -1795.36937657315     IErMin= 1 ErrMin= 3.46D-02
 ErrMax= 3.46D-02 EMaxC= 1.00D-01 BMatC= 1.03D+00 BMatP= 1.03D+00
 IDIUse=3 WtCom= 6.54D-01 WtEn= 3.46D-01
 Coeff-Com:  0.100D+01
 Coeff-En:   0.100D+01
 Coeff:      0.100D+01
 Gap=     0.421 Goal=   None    Shift=    0.000
 GapD=    0.421 DampG=2.000 DampE=0.500 DampFc=1.0000 IDamp=-1.
 RMSDP=5.81D-03 MaxDP=1.67D-01              OVMax= 1.64D-01

 Cycle   2  Pass 0  IDiag  1:
 RMSU=  4.08D-03    CP:  9.73D-01
 E= -1796.04858501053     Delta-E=       -0.679208437379 Rises=F Damp=F
 DIIS: error= 2.16D-02 at cycle   2 NSaved=   2.
 NSaved= 2 IEnMin= 2 EnMin= -1796.04858501053     IErMin= 2 ErrMin= 2.16D-02
 ErrMax= 2.16D-02 EMaxC= 1.00D-01 BMatC= 1.83D-01 BMatP= 1.03D+00
 IDIUse=3 WtCom= 7.84D-01 WtEn= 2.16D-01
 Coeff-Com:  0.240D+00 0.760D+00
 Coeff-En:   0.000D+00 0.100D+01
 Coeff:      0.188D+00 0.812D+00
 Gap=     0.433 Goal=   None    Shift=    0.000
 RMSDP=2.47D-03 MaxDP=8.70D-02 DE=-6.79D-01 OVMax= 1.01D-01

 Cycle   3  Pass 0  IDiag  1:
 RMSU=  1.55D-03    CP:  9.73D-01  8.04D-01
 E= -1796.19204359612     Delta-E=       -0.143458585597 Rises=F Damp=F
 DIIS: error= 1.08D-02 at cycle   3 NSaved=   3.
 NSaved= 3 IEnMin= 3 EnMin= -1796.19204359612     IErMin= 3 ErrMin= 1.08D-02
 ErrMax= 1.08D-02 EMaxC= 1.00D-01 BMatC= 3.37D-02 BMatP= 1.83D-01
 IDIUse=3 WtCom= 8.92D-01 WtEn= 1.08D-01
 Coeff-Com:  0.351D-02 0.286D+00 0.710D+00
 Coeff-En:   0.000D+00 0.000D+00 0.100D+01
 Coeff:      0.313D-02 0.255D+00 0.742D+00
 Gap=     0.385 Goal=   None    Shift=    0.000
 RMSDP=8.34D-04 MaxDP=3.44D-02 DE=-1.43D-01 OVMax= 3.69D-02

 Cycle   4  Pass 0  IDiag  1:
 RMSU=  3.54D-04    CP:  9.73D-01  8.99D-01  8.27D-01
 E= -1796.22226459503     Delta-E=       -0.030220998909 Rises=F Damp=F
 DIIS: error= 3.23D-03 at cycle   4 NSaved=   4.
 NSaved= 4 IEnMin= 4 EnMin= -1796.22226459503     IErMin= 4 ErrMin= 3.23D-03
 ErrMax= 3.23D-03 EMaxC= 1.00D-01 BMatC= 2.92D-03 BMatP= 3.37D-02
 IDIUse=3 WtCom= 9.68D-01 WtEn= 3.23D-02
 Coeff-Com: -0.134D-01 0.276D-01 0.267D+00 0.719D+00
 Coeff-En:   0.000D+00 0.000D+00 0.000D+00 0.100D+01
 Coeff:     -0.130D-01 0.267D-01 0.258D+00 0.728D+00
 Gap=     0.382 Goal=   None    Shift=    0.000
 RMSDP=2.70D-04 MaxDP=9.56D-03 DE=-3.02D-02 OVMax= 8.82D-03

 Cycle   5  Pass 0  IDiag  1:
 RMSU=  1.23D-04    CP:  9.72D-01  8.93D-01  9.02D-01  7.71D-01
 E= -1796.22513140843     Delta-E=       -0.002866813400 Rises=F Damp=F
 DIIS: error= 8.71D-04 at cycle   5 NSaved=   5.
 NSaved= 5 IEnMin= 5 EnMin= -1796.22513140843     IErMin= 5 ErrMin= 8.71D-04
 ErrMax= 8.71D-04 EMaxC= 1.00D-01 BMatC= 1.16D-04 BMatP= 2.92D-03
 IDIUse=3 WtCom= 9.91D-01 WtEn= 8.71D-03
 Coeff-Com: -0.140D-02-0.161D-01-0.132D-01 0.792D-01 0.952D+00
 Coeff-En:   0.000D+00 0.000D+00 0.000D+00 0.000D+00 0.100D+01
 Coeff:     -0.139D-02-0.160D-01-0.131D-01 0.785D-01 0.952D+00
 Gap=     0.383 Goal=   None    Shift=    0.000
 RMSDP=8.27D-05 MaxDP=1.94D-03 DE=-2.87D-03 OVMax= 5.43D-03

 Cycle   6  Pass 0  IDiag  1:
 RMSU=  4.40D-05    CP:  9.72D-01  8.94D-01  9.18D-01  8.35D-01  1.15D+00
 E= -1796.22543111751     Delta-E=       -0.000299709081 Rises=F Damp=F
 DIIS: error= 2.87D-04 at cycle   6 NSaved=   6.
 NSaved= 6 IEnMin= 6 EnMin= -1796.22543111751     IErMin= 6 ErrMin= 2.87D-04
 ErrMax= 2.87D-04 EMaxC= 1.00D-01 BMatC= 3.11D-05 BMatP= 1.16D-04
 IDIUse=3 WtCom= 9.97D-01 WtEn= 2.87D-03
 Coeff-Com:  0.251D-02-0.934D-02-0.535D-01-0.150D+00 0.159D+00 0.105D+01
 Coeff-En:   0.000D+00 0.000D+00 0.000D+00 0.000D+00 0.000D+00 0.100D+01
 Coeff:      0.250D-02-0.931D-02-0.533D-01-0.149D+00 0.159D+00 0.105D+01
 Gap=     0.383 Goal=   None    Shift=    0.000
 RMSDP=5.64D-05 MaxDP=1.98D-03 DE=-3.00D-04 OVMax= 3.00D-03

 Cycle   7  Pass 0  IDiag  1:
 RMSU=  1.73D-05    CP:  9.72D-01  8.93D-01  9.29D-01  8.46D-01  1.40D+00
                    CP:  1.20D+00
 E= -1796.22553084718     Delta-E=       -0.000099729667 Rises=F Damp=F
 DIIS: error= 1.59D-04 at cycle   7 NSaved=   7.
 NSaved= 7 IEnMin= 7 EnMin= -1796.22553084718     IErMin= 7 ErrMin= 1.59D-04
 ErrMax= 1.59D-04 EMaxC= 1.00D-01 BMatC= 4.16D-06 BMatP= 3.11D-05
 IDIUse=3 WtCom= 9.98D-01 WtEn= 1.59D-03
 Coeff-Com:  0.834D-04 0.223D-02 0.605D-02-0.952D-02-0.121D+00-0.477D-01
 Coeff-Com:  0.117D+01
 Coeff-En:   0.000D+00 0.000D+00 0.000D+00 0.000D+00 0.000D+00 0.000D+00
 Coeff-En:   0.100D+01
 Coeff:      0.833D-04 0.223D-02 0.604D-02-0.950D-02-0.121D+00-0.476D-01
 Coeff:      0.117D+01
 Gap=     0.383 Goal=   None    Shift=    0.000
 RMSDP=2.11D-05 MaxDP=6.63D-04 DE=-9.97D-05 OVMax= 1.55D-03

 Cycle   8  Pass 0  IDiag  1:
 RMSU=  7.73D-06    CP:  9.72D-01  8.92D-01  9.31D-01  8.46D-01  1.46D+00
                    CP:  1.37D+00  1.35D+00
 E= -1796.22554651701     Delta-E=       -0.000015669830 Rises=F Damp=F
 DIIS: error= 5.34D-05 at cycle   8 NSaved=   8.
 NSaved= 8 IEnMin= 8 EnMin= -1796.22554651701     IErMin= 8 ErrMin= 5.34D-05
 ErrMax= 5.34D-05 EMaxC= 1.00D-01 BMatC= 8.09D-07 BMatP= 4.16D-06
 IDIUse=1 WtCom= 1.00D+00 WtEn= 0.00D+00
 Coeff-Com: -0.530D-03 0.250D-02 0.140D-01 0.303D-01-0.525D-01-0.249D+00
 Coeff-Com:  0.213D+00 0.104D+01
 Coeff:     -0.530D-03 0.250D-02 0.140D-01 0.303D-01-0.525D-01-0.249D+00
 Coeff:      0.213D+00 0.104D+01
 Gap=     0.383 Goal=   None    Shift=    0.000
 RMSDP=9.42D-06 MaxDP=2.65D-04 DE=-1.57D-05 OVMax= 7.15D-04

 Initial convergence to 1.0D-05 achieved.  Increase integral accuracy.
 Cycle   9  Pass 1  IDiag  1:
 E= -1796.22555606682     Delta-E=       -0.000009549813 Rises=F Damp=F
 DIIS: error= 8.00D-05 at cycle   1 NSaved=   1.
 NSaved= 1 IEnMin= 1 EnMin= -1796.22555606682     IErMin= 1 ErrMin= 8.00D-05
 ErrMax= 8.00D-05 EMaxC= 1.00D-01 BMatC= 1.55D-06 BMatP= 1.55D-06
 IDIUse=1 WtCom= 1.00D+00 WtEn= 0.00D+00
 Coeff-Com:  0.100D+01
 Coeff:      0.100D+01
 Gap=     0.383 Goal=   None    Shift=    0.000
 RMSDP=9.42D-06 MaxDP=2.65D-04 DE=-9.55D-06 OVMax= 1.91D-04

 Cycle  10  Pass 1  IDiag  1:
 RMSU=  3.37D-05    CP:  1.00D+00
 E= -1796.22555777642     Delta-E=       -0.000001709594 Rises=F Damp=F
 DIIS: error= 1.36D-05 at cycle   2 NSaved=   2.
 NSaved= 2 IEnMin= 2 EnMin= -1796.22555777642     IErMin= 2 ErrMin= 1.36D-05
 ErrMax= 1.36D-05 EMaxC= 1.00D-01 BMatC= 3.81D-08 BMatP= 1.55D-06
 IDIUse=1 WtCom= 1.00D+00 WtEn= 0.00D+00
 Coeff-Com: -0.342D-01 0.103D+01
 Coeff:     -0.342D-01 0.103D+01
 Gap=     0.383 Goal=   None    Shift=    0.000
 RMSDP=2.90D-06 MaxDP=6.26D-05 DE=-1.71D-06 OVMax= 1.29D-04

 Cycle  11  Pass 1  IDiag  1:
 RMSU=  9.97D-07    CP:  1.00D+00  1.05D+00
 E= -1796.22555789688     Delta-E=       -0.000000120463 Rises=F Damp=F
 DIIS: error= 8.00D-06 at cycle   3 NSaved=   3.
 NSaved= 3 IEnMin= 3 EnMin= -1796.22555789688     IErMin= 3 ErrMin= 8.00D-06
 ErrMax= 8.00D-06 EMaxC= 1.00D-01 BMatC= 1.89D-08 BMatP= 3.81D-08
 IDIUse=1 WtCom= 1.00D+00 WtEn= 0.00D+00
 Coeff-Com: -0.275D-01 0.315D+00 0.713D+00
 Coeff:     -0.275D-01 0.315D+00 0.713D+00
 Gap=     0.383 Goal=   None    Shift=    0.000
 RMSDP=6.72D-07 MaxDP=1.57D-05 DE=-1.20D-07 OVMax= 5.79D-05

 Cycle  12  Pass 1  IDiag  1:
 RMSU=  4.58D-07    CP:  1.00D+00  1.06D+00  1.09D+00
 E= -1796.22555793783     Delta-E=       -0.000000040952 Rises=F Damp=F
 DIIS: error= 6.30D-06 at cycle   4 NSaved=   4.
 NSaved= 4 IEnMin= 4 EnMin= -1796.22555793783     IErMin= 4 ErrMin= 6.30D-06
 ErrMax= 6.30D-06 EMaxC= 1.00D-01 BMatC= 5.61D-09 BMatP= 1.89D-08
 IDIUse=1 WtCom= 1.00D+00 WtEn= 0.00D+00
 Coeff-Com:  0.263D-01-0.625D+00-0.389D+00 0.199D+01
 Coeff:      0.263D-01-0.625D+00-0.389D+00 0.199D+01
 Gap=     0.383 Goal=   None    Shift=    0.000
 RMSDP=1.17D-06 MaxDP=2.63D-05 DE=-4.10D-08 OVMax= 1.31D-04

 Cycle  13  Pass 1  IDiag  1:
 RMSU=  2.88D-07    CP:  1.00D+00  1.06D+00  1.70D+00  2.05D+00
 E= -1796.22555797834     Delta-E=       -0.000000040512 Rises=F Damp=F
 DIIS: error= 1.29D-06 at cycle   5 NSaved=   5.
 NSaved= 5 IEnMin= 5 EnMin= -1796.22555797834     IErMin= 5 ErrMin= 1.29D-06
 ErrMax= 1.29D-06 EMaxC= 1.00D-01 BMatC= 4.31D-10 BMatP= 5.61D-09
 IDIUse=1 WtCom= 1.00D+00 WtEn= 0.00D+00
 Coeff-Com:  0.863D-02-0.178D+00-0.166D+00 0.499D+00 0.835D+00
 Coeff:      0.863D-02-0.178D+00-0.166D+00 0.499D+00 0.835D+00
 Gap=     0.383 Goal=   None    Shift=    0.000
 RMSDP=1.88D-07 MaxDP=4.44D-06 DE=-4.05D-08 OVMax= 1.90D-05

 Cycle  14  Pass 1  IDiag  1:
 RMSU=  7.10D-08    CP:  1.00D+00  1.06D+00  1.76D+00  2.23D+00  1.17D+00
 E= -1796.22555797965     Delta-E=       -0.000000001303 Rises=F Damp=F
 DIIS: error= 8.38D-07 at cycle   6 NSaved=   6.
 NSaved= 6 IEnMin= 6 EnMin= -1796.22555797965     IErMin= 6 ErrMin= 8.38D-07
 ErrMax= 8.38D-07 EMaxC= 1.00D-01 BMatC= 6.35D-11 BMatP= 4.31D-10
 IDIUse=1 WtCom= 1.00D+00 WtEn= 0.00D+00
 Coeff-Com: -0.417D-02 0.102D+00 0.550D-01-0.321D+00 0.627D-01 0.111D+01
 Coeff:     -0.417D-02 0.102D+00 0.550D-01-0.321D+00 0.627D-01 0.111D+01
 Gap=     0.383 Goal=   None    Shift=    0.000
 RMSDP=8.20D-08 MaxDP=2.00D-06 DE=-1.30D-09 OVMax= 8.32D-06

 Cycle  15  Pass 1  IDiag  1:
 RMSU=  3.49D-08    CP:  1.00D+00  1.06D+00  1.76D+00  2.27D+00  1.30D+00
                    CP:  1.19D+00
 E= -1796.22555797993     Delta-E=       -0.000000000286 Rises=F Damp=F
 DIIS: error= 1.92D-07 at cycle   7 NSaved=   7.
 NSaved= 7 IEnMin= 7 EnMin= -1796.22555797993     IErMin= 7 ErrMin= 1.92D-07
 ErrMax= 1.92D-07 EMaxC= 1.00D-01 BMatC= 1.20D-11 BMatP= 6.35D-11
 IDIUse=1 WtCom= 1.00D+00 WtEn= 0.00D+00
 Coeff-Com: -0.173D-02 0.379D-01 0.285D-01-0.112D+00-0.117D+00 0.167D+00
 Coeff-Com:  0.997D+00
 Coeff:     -0.173D-02 0.379D-01 0.285D-01-0.112D+00-0.117D+00 0.167D+00
 Coeff:      0.997D+00
 Gap=     0.383 Goal=   None    Shift=    0.000
 RMSDP=3.12D-08 MaxDP=7.52D-07 DE=-2.86D-10 OVMax= 2.96D-06

 Cycle  16  Pass 1  IDiag  1:
 RMSU=  1.20D-08    CP:  1.00D+00  1.06D+00  1.77D+00  2.28D+00  1.33D+00
                    CP:  1.34D+00  1.27D+00
 E= -1796.22555797998     Delta-E=       -0.000000000049 Rises=F Damp=F
 DIIS: error= 1.29D-07 at cycle   8 NSaved=   8.
 NSaved= 8 IEnMin= 8 EnMin= -1796.22555797998     IErMin= 8 ErrMin= 1.29D-07
 ErrMax= 1.29D-07 EMaxC= 1.00D-01 BMatC= 2.29D-12 BMatP= 1.20D-11
 IDIUse=1 WtCom= 1.00D+00 WtEn= 0.00D+00
 Coeff-Com:  0.465D-03-0.126D-01-0.436D-02 0.437D-01-0.530D-01-0.193D+00
 Coeff-Com:  0.278D+00 0.941D+00
 Coeff:      0.465D-03-0.126D-01-0.436D-02 0.437D-01-0.530D-01-0.193D+00
 Coeff:      0.278D+00 0.941D+00
 Gap=     0.383 Goal=   None    Shift=    0.000
 RMSDP=1.27D-08 MaxDP=3.32D-07 DE=-4.91D-11 OVMax= 1.19D-06

 Cycle  17  Pass 1  IDiag  1:
 RMSU=  5.20D-09    CP:  1.00D+00  1.06D+00  1.77D+00  2.29D+00  1.33D+00
                    CP:  1.39D+00  1.45D+00  1.07D+00
 E= -1796.22555797999     Delta-E=       -0.000000000004 Rises=F Damp=F
 DIIS: error= 5.34D-08 at cycle   9 NSaved=   9.
 NSaved= 9 IEnMin= 9 EnMin= -1796.22555797999     IErMin= 9 ErrMin= 5.34D-08
 ErrMax= 5.34D-08 EMaxC= 1.00D-01 BMatC= 2.45D-13 BMatP= 2.29D-12
 IDIUse=1 WtCom= 1.00D+00 WtEn= 0.00D+00
 Coeff-Com:  0.154D-03-0.334D-02-0.262D-02 0.102D-01 0.862D-02-0.920D-02
 Coeff-Com: -0.950D-01-0.224D-02 0.109D+01
 Coeff:      0.154D-03-0.334D-02-0.262D-02 0.102D-01 0.862D-02-0.920D-02
 Coeff:     -0.950D-01-0.224D-02 0.109D+01
 Gap=     0.383 Goal=   None    Shift=    0.000
 RMSDP=4.68D-09 MaxDP=1.24D-07 DE=-3.64D-12 OVMax= 4.73D-07

 SCF Done:  E(RHF) =  -1796.22555798     A.U. after   17 cycles
             Convg  =    0.4678D-08             -V/T =  2.0003
 KE= 1.795661871195D+03 PE=-1.031058087730D+04 EE= 3.669893845856D+03
 Leave Link  502 at Sat Aug 27 11:19:49 2022, MaxMem=  209715200 cpu:     624.1
 (Enter /opt/gaussian/l601.exe)
 Copying SCF densities to generalized density rwf, IOpCl= 0 IROHF=0.

 **********************************************************************

            Population analysis using the SCF density.

 **********************************************************************

 Orbital symmetries:
       Occupied  (A) (A) (A) (A) (A) (A) (A) (A) (A) (A) (A) (A)
                 (A) (A) (A) (A) (A) (A) (A) (A) (A) (A) (A) (A)
                 (A) (A) (A) (A) (A) (A) (A) (A) (A) (A) (A) (A)
                 (A) (A) (A) (A) (A) (A) (A) (A) (A) (A) (A) (A)
                 (A) (A) (A) (A) (A) (A) (A) (A) (A) (A) (A) (A)
                 (A) (A) (A) (A) (A) (A) (A) (A) (A) (A) (A) (A)
                 (A) (A) (A) (A) (A) (A) (A) (A) (A) (A) (A) (A)
                 (A) (A) (A) (A) (A) (A) (A) (A) (A) (A) (A) (A)
                 (A) (A) (A) (A) (A) (A) (A) (A) (A) (A) (A) (A)
                 (A) (A) (A) (A) (A) (A) (A)
       Virtual   (A) (A) (A) (A) (A) (A) (A) (A) (A) (A) (A) (A)
                 (A) (A) (A) (A) (A) (A) (A) (A) (A) (A) (A) (A)
                 (A) (A) (A) (A) (A) (A) (A) (A) (A) (A) (A) (A)
                 (A) (A) (A) (A) (A) (A) (A) (A) (A) (A) (A) (A)
                 (A) (A) (A) (A) (A) (A) (A) (A) (A) (A) (A) (A)
                 (A) (A) (A) (A) (A) (A) (A) (A) (A) (A) (A) (A)
                 (A) (A) (A) (A) (A) (A) (A) (A) (A) (A) (A) (A)
                 (A) (A) (A) (A) (A) (A) (A) (A) (A) (A) (A) (A)
                 (A) (A) (A) (A) (A) (A) (A) (A) (A) (A) (A) (A)
                 (A) (A) (A) (A) (A) (A) (A) (A) (A) (A) (A) (A)
                 (A) (A) (A) (A) (A) (A) (A) (A) (A) (A) (A) (A)
                 (A) (A) (A) (A) (A) (A) (A) (A) (A) (A) (A) (A)
                 (A) (A) (A) (A) (A) (A) (A) (A) (A) (A) (A) (A)
                 (A) (A) (A) (A) (A) (A) (A) (A) (A) (A) (A) (A)
                 (A) (A) (A) (A) (A) (A) (A) (A) (A) (A) (A) (A)
                 (A) (A) (A) (A) (A) (A) (A) (A) (A) (A) (A) (A)
                 (A) (A) (A) (A) (A) (A) (A) (A) (A) (A) (A) (A)
                 (A) (A) (A) (A) (A) (A) (A) (A) (A)
 The electronic state is 1-A.
 Alpha  occ. eigenvalues -- -104.84348 -20.56482 -15.67649 -15.66234 -15.65199
[...]
     3  C    0.000000   0.000000   0.371251  -0.025175   0.003141   0.002737
     4  C    0.000000   0.000000  -0.018663   0.377483  -0.020402  -0.000110
     5  C    0.000000   0.000000   0.002890  -0.023243   0.375040   0.002269
     6  C    0.000000   0.000000  -0.000178   0.002470  -0.026696  -0.028743
     7  C    0.000000   0.000000   0.003064   0.000102   0.003205   0.373403
     8  C    0.000000   0.000000   0.000001  -0.000121  -0.001457  -0.000001
     9  N    0.000000   0.000000   0.000000   0.000015  -0.003288   0.000061
    10  C    0.000000   0.000000   0.000000  -0.000001   0.000752  -0.000003
    11  O    0.000000   0.000000   0.000000   0.000000   0.000329   0.000000
    12  C    0.000000   0.000000   0.000000   0.000001  -0.000430  -0.000002
    13  N    0.000000   0.000000   0.000000   0.000000   0.000003   0.000000
    14  N    0.000000   0.000000   0.000000   0.000000   0.000000   0.000000
    15  N    0.000000   0.000000   0.000000   0.000000   0.000000   0.000000
    16  C    0.000000   0.000000   0.000000   0.000000   0.000000   0.000000
    17  C    0.000000   0.000000   0.000000   0.000000   0.000000   0.000000
    18  C    0.000000   0.000000   0.000000   0.000000   0.000000   0.000000
    19  C    0.000000   0.000000   0.000000   0.000000   0.000000   0.000000
    20  C    0.000000   0.000000   0.000000  -0.000001   0.000005   0.000000
    21  C    0.000000   0.000000   0.000000   0.000000  -0.000004   0.000000
    22  C    0.000000   0.000073   0.000000  -0.000001   0.000477  -0.000001
    23  C    0.000000  -0.000176   0.000000  -0.000002   0.000430   0.000000
    24  C   -0.000110   0.005187   0.000000   0.000000   0.000016   0.000000
    25  C    0.013515   0.004323   0.000000   0.000000  -0.000002   0.000000
    26  N    0.000172   0.006040   0.000000   0.000000  -0.000001   0.000000
    27  C   -0.000007   0.000394   0.000000   0.000000   0.000001   0.000000
    28  C   -0.040856   0.417481   0.000000   0.000000   0.000000   0.000000
    29  C   -0.167240  -0.021474   0.000000   0.000000   0.000000   0.000000
    30  N    0.197864  -0.267165   0.000000   0.000000   0.000000   0.000000
    31  N    6.850675   0.450197   0.000000   0.000000   0.000000   0.000000
    32  C    0.450197   4.907262   0.000000   0.000000   0.000000   0.000000
    33  H    0.000000   0.000000   0.418348  -0.000844  -0.000079  -0.000085
    34  H    0.000000   0.000000  -0.000844   0.443069  -0.000155   0.000004
    35  H    0.000000   0.000000  -0.000079  -0.000155   0.431872  -0.000090
    36  H    0.000000   0.000000  -0.000085   0.000004  -0.000090   0.422402
    37  H    0.000000   0.000000   0.000000   0.000002  -0.000071   0.000471
    38  H    0.000000   0.000000   0.000000   0.000002  -0.000040   0.000245
    39  H    0.000000   0.000000   0.000000  -0.000001  -0.000019   0.000005
    40  H    0.000000   0.000000   0.000000   0.000000   0.000011  -0.000001
    41  H    0.000000   0.000000   0.000000   0.000000   0.000000   0.000000
    42  H    0.000000   0.000000   0.000000   0.000000   0.000000   0.000000
    43  H    0.000000   0.000000   0.000000   0.000000   0.000000   0.000000
    44  H    0.000000   0.000000   0.000000   0.000003   0.000177   0.000000
    45  H    0.000000   0.000001   0.000000   0.000005  -0.000405   0.000001
    46  H    0.000010  -0.000007   0.000000   0.000000   0.000000   0.000000
    47  H    0.000000  -0.000026   0.000000   0.000000   0.000000   0.000000
    48  H    0.001587   0.002517   0.000000   0.000000   0.000000   0.000000
    49  H   -0.030690   0.387457   0.000000   0.000000   0.000000   0.000000
    50  H   -0.024168   0.003445   0.000000   0.000000   0.000000   0.000000
             37         38         39         40         41         42
     1  Cl   0.000000   0.000002   0.000001   0.000000   0.000000   0.000000
     2  C    0.000421   0.000085  -0.000090  -0.000004   0.000000   0.000000
     3  C   -0.000021   0.000002  -0.000039   0.000000   0.000000   0.000000
     4  C   -0.000013   0.000001   0.000096   0.000003   0.000000   0.000000
     5  C    0.001065  -0.000375   0.002821   0.000107   0.000000   0.000000
     6  C   -0.073342  -0.055836   0.004211  -0.000134   0.000000   0.000000
     7  C    0.000761  -0.001659   0.000038  -0.000049   0.000000   0.000000
     8  C    0.430096   0.421081  -0.002814  -0.002898   0.000000   0.000000
     9  N   -0.051931  -0.043374   0.004295   0.004292   0.000000   0.000000
    10  C   -0.000733   0.001649  -0.050113  -0.039659   0.000000   0.000000
    11  O    0.000077  -0.000055   0.001337   0.001386   0.000000   0.000000
    12  C   -0.001148   0.000223   0.398479   0.390597   0.000001   0.000000
    13  N   -0.000078  -0.000004  -0.044021  -0.037876  -0.000108  -0.000006
    14  N   -0.000031   0.000000   0.001346   0.009436  -0.000085   0.000002
    15  N    0.000000   0.000000  -0.000128   0.000004   0.001100  -0.000066
    16  C    0.000000   0.000000   0.000078  -0.000185  -0.020148   0.002794
    17  C    0.000000   0.000000  -0.000006  -0.000003   0.361613  -0.019864
    18  C    0.000000   0.000000  -0.000001   0.000000  -0.020440   0.374847
    19  C    0.000000   0.000000  -0.000021   0.000001   0.002055  -0.026263
    20  C    0.000000   0.000000  -0.000190   0.000042   0.000029   0.002595
    21  C   -0.000006   0.000000   0.001283   0.003815   0.003141   0.000376
    22  C    0.002704   0.004954  -0.000196  -0.000206   0.000000   0.000000
    23  C    0.000253  -0.000971   0.000020  -0.000008   0.000000   0.000000
    24  C    0.000010  -0.000177   0.000000   0.000000   0.000000   0.000000
    25  C   -0.000002  -0.000018   0.000000   0.000000   0.000000   0.000000
    26  N   -0.000001  -0.000055   0.000000   0.000000   0.000000   0.000000
    27  C    0.000137   0.000562  -0.000011   0.000043   0.000000   0.000000
    28  C    0.000000   0.000000   0.000000   0.000000   0.000000   0.000000
    29  C    0.000000   0.000000   0.000000   0.000000   0.000000   0.000000
    30  N    0.000000   0.000000   0.000000   0.000000   0.000000   0.000000
    31  N    0.000000   0.000000   0.000000   0.000000   0.000000   0.000000
    32  C    0.000000   0.000000   0.000000   0.000000   0.000000   0.000000
    33  H    0.000000   0.000000   0.000000   0.000000   0.000000   0.000000
    34  H    0.000002   0.000002  -0.000001   0.000000   0.000000   0.000000
    35  H   -0.000071  -0.000040  -0.000019   0.000011   0.000000   0.000000
    36  H    0.000471   0.000245   0.000005  -0.000001   0.000000   0.000000
    37  H    0.513426  -0.022036  -0.001583   0.002000   0.000000   0.000000
    38  H   -0.022036   0.467986   0.000109   0.000058   0.000000   0.000000
    39  H   -0.001583   0.000109   0.463433  -0.015965   0.000000   0.000000
    40  H    0.002000   0.000058  -0.015965   0.433533   0.000000   0.000000
    41  H    0.000000   0.000000   0.000000   0.000000   0.430863  -0.000097
    42  H    0.000000   0.000000   0.000000   0.000000  -0.000097   0.460792
    43  H    0.000000   0.000000   0.000000   0.000000  -0.000088  -0.000272
    44  H   -0.000001   0.000000   0.000324   0.000016   0.000009  -0.000099
    45  H    0.000063  -0.000511  -0.000001   0.000000   0.000000   0.000000
    46  H    0.000000  -0.000002   0.000000   0.000000   0.000000   0.000000
    47  H    0.000012   0.000016   0.000000  -0.000006   0.000000   0.000000
    48  H    0.000000   0.000000   0.000000   0.000000   0.000000   0.000000
    49  H    0.000000   0.000000   0.000000   0.000000   0.000000   0.000000
    50  H    0.000000   0.000000   0.000000   0.000000   0.000000   0.000000
             43         44         45         46         47         48
     1  Cl   0.000000   0.000000   0.000000   0.000000   0.000000   0.000000
     2  C    0.000000   0.000000  -0.000029   0.000000   0.000000   0.000000
     3  C    0.000000   0.000000  -0.000020   0.000000   0.000000   0.000000
     4  C    0.000000   0.000076   0.000205   0.000000   0.000000   0.000000
     5  C    0.000000   0.000408   0.003799  -0.000001   0.000001   0.000000
     6  C    0.000000   0.000012   0.001325   0.000000  -0.000004   0.000000
     7  C    0.000000  -0.000001  -0.000038   0.000000   0.000000   0.000000
     8  C    0.000000  -0.000004  -0.000295   0.000004   0.000016   0.000000
     9  N    0.000000  -0.000018  -0.002265  -0.000100  -0.000859   0.000000
    10  C    0.000000   0.000149   0.000110   0.000000   0.001901   0.000000
    11  O    0.000000   0.000548   0.000004   0.000000   0.001923   0.000000
    12  C    0.000001  -0.000031   0.000009   0.000000  -0.000070   0.000000
    13  N   -0.000101  -0.002985   0.000000   0.000000  -0.000006   0.000000
    14  N    0.000001  -0.000004   0.000000   0.000000   0.000000   0.000000
    15  N   -0.000004  -0.000104   0.000000   0.000000   0.000000   0.000000
    16  C    0.000466   0.000853   0.000000   0.000000   0.000000   0.000000
    17  C    0.002350   0.000167   0.000000   0.000000   0.000000   0.000000
    18  C   -0.024209   0.002047   0.000000   0.000000   0.000000   0.000000
    19  C    0.373805  -0.015948   0.000000   0.000000   0.000000   0.000000
    20  C   -0.023035   0.371373   0.000000   0.000000   0.000000   0.000000
    21  C    0.002812  -0.031996   0.000000   0.000000   0.000001   0.000000
    22  C    0.000000   0.000000  -0.028583   0.001508  -0.056774   0.000001
    23  C    0.000000   0.000000   0.370619  -0.018336   0.002354   0.000014
    24  C    0.000000   0.000000  -0.014184   0.361844  -0.000978  -0.000945
    25  C    0.000000   0.000000   0.001048  -0.015938   0.003784   0.000568
    26  N    0.000000   0.000000   0.000055   0.002721  -0.034100   0.000080
    27  C    0.000000   0.000000   0.002004   0.000147   0.404508   0.000000
    28  C    0.000000   0.000000  -0.000123   0.000178   0.000223  -0.012767
    29  C    0.000000   0.000000  -0.000001   0.001237   0.000002   0.372717
    30  N    0.000000   0.000000   0.000000   0.000028   0.000000  -0.033328
    31  N    0.000000   0.000000   0.000000   0.000010   0.000000   0.001587
    32  C    0.000000   0.000000   0.000001  -0.000007  -0.000026   0.002517
    33  H    0.000000   0.000000   0.000000   0.000000   0.000000   0.000000
    34  H    0.000000   0.000003   0.000005   0.000000   0.000000   0.000000
    35  H    0.000000   0.000177  -0.000405   0.000000   0.000000   0.000000
    36  H    0.000000   0.000000   0.000001   0.000000   0.000000   0.000000
    37  H    0.000000  -0.000001   0.000063   0.000000   0.000012   0.000000
    38  H    0.000000   0.000000  -0.000511  -0.000002   0.000016   0.000000
    39  H    0.000000   0.000324  -0.000001   0.000000   0.000000   0.000000
    40  H    0.000000   0.000016   0.000000   0.000000  -0.000006   0.000000
    41  H   -0.000088   0.000009   0.000000   0.000000   0.000000   0.000000
    42  H   -0.000272  -0.000099   0.000000   0.000000   0.000000   0.000000
    43  H    0.463829  -0.000201   0.000000   0.000000   0.000000   0.000000
    44  H   -0.000201   0.456028   0.000000   0.000000   0.000000   0.000000
    45  H    0.000000   0.000000   0.436016   0.000129  -0.000084  -0.000001
    46  H    0.000000   0.000000   0.000129   0.450861   0.000008   0.001720
    47  H    0.000000   0.000000  -0.000084   0.000008   0.436517   0.000000
    48  H    0.000000   0.000000  -0.000001   0.001720   0.000000   0.413439
    49  H    0.000000   0.000000   0.000000  -0.000002  -0.000006  -0.000068
    50  H    0.000000   0.000000   0.000000   0.000002   0.000000   0.000657
             49         50
     1  Cl   0.000000   0.000000
     2  C    0.000000   0.000000
     3  C    0.000000   0.000000
     4  C    0.000000   0.000000
     5  C    0.000000   0.000000
     6  C    0.000000   0.000000
     7  C    0.000000   0.000000
     8  C    0.000000   0.000000
     9  N    0.000000   0.000000
    10  C    0.000000   0.000000
    11  O    0.000000   0.000000
    12  C    0.000000   0.000000
    13  N    0.000000   0.000000
    14  N    0.000000   0.000000
    15  N    0.000000   0.000000
    16  C    0.000000   0.000000
    17  C    0.000000   0.000000
    18  C    0.000000   0.000000
    19  C    0.000000   0.000000
    20  C    0.000000   0.000000
    21  C    0.000000   0.000000
    22  C    0.000007   0.000000
    23  C    0.000000   0.000000
    24  C    0.000122   0.000001
    25  C    0.001477   0.000040
    26  N    0.001304   0.000001
    27  C   -0.000047   0.000000
    28  C   -0.026066   0.003305
    29  C    0.002168  -0.023686
    30  N    0.003443   0.338307
    31  N   -0.030690  -0.024168
    32  C    0.387457   0.003445
    33  H    0.000000   0.000000
    34  H    0.000000   0.000000
    35  H    0.000000   0.000000
    36  H    0.000000   0.000000
    37  H    0.000000   0.000000
    38  H    0.000000   0.000000
    39  H    0.000000   0.000000
    40  H    0.000000   0.000000
    41  H    0.000000   0.000000
    42  H    0.000000   0.000000
    43  H    0.000000   0.000000
    44  H    0.000000   0.000000
    45  H    0.000000   0.000000
    46  H   -0.000002   0.000002
    47  H   -0.000006   0.000000
    48  H   -0.000068   0.000657
    49  H    0.400312  -0.000051
    50  H   -0.000051   0.294586
 Mulliken atomic charges:
              1
     1  Cl   0.109691
     2  C   -0.315923
     3  C   -0.150753
     4  C   -0.191755
     5  C   -0.215901
     6  C   -0.026885
     7  C   -0.163846
     8  C   -0.077698
     9  N   -0.990474
    10  C    0.784842
    11  O   -0.564250
    12  C   -0.130218
    13  N   -0.885631
    14  N    0.095073
    15  N   -0.332069
    16  C   -0.020971
    17  C   -0.077356
    18  C   -0.233525
    19  C   -0.204581
    20  C   -0.063400
    21  C    0.490864
    22  C    0.264736
    23  C   -0.158146
    24  C   -0.190361
    25  C    0.284427
    26  N   -0.607547
    27  C    0.131938
    28  C   -0.313107
    29  C    0.249229
    30  N   -0.695083
    31  N   -0.250952
    32  C    0.104468
    33  H    0.244748
    34  H    0.222959
    35  H    0.238086
    36  H    0.242693
    37  H    0.199502
    38  H    0.228136
    39  H    0.237326
    40  H    0.251649
    41  H    0.242155
    42  H    0.205262
    43  H    0.204646
    44  H    0.219203
    45  H    0.231148
    46  H    0.213989
    47  H    0.241646
    48  H    0.253811
    49  H    0.260640
    50  H    0.407563
 Sum of Mulliken atomic charges =   0.00000
 Mulliken charges with hydrogens summed into heavy atoms:
              1
     1  Cl   0.109691
     2  C   -0.315923
     3  C    0.093996
     4  C    0.031204
     5  C    0.022186
     6  C   -0.026885
     7  C    0.078847
     8  C    0.349940
     9  N   -0.990474
    10  C    0.784842
    11  O   -0.564250
    12  C    0.358757
    13  N   -0.885631
    14  N    0.095073
    15  N   -0.332069
    16  C   -0.020971
    17  C    0.164800
    18  C   -0.028264
    19  C    0.000065
    20  C    0.155804
    21  C    0.490864
    22  C    0.264736
    23  C    0.073002
    24  C    0.023628
    25  C    0.284427
    26  N   -0.607547
    27  C    0.373584
    28  C   -0.313107
    29  C    0.503039
    30  N   -0.287520
    31  N   -0.250952
    32  C    0.365108
 Sum of Mulliken charges with hydrogens summed into heavy atoms =   0.00000
 Electronic spatial extent (au):  <R**2>=          19900.7017
 Charge=              0.0000 electrons
 Dipole moment (field-independent basis, Debye):
    X=              0.4204    Y=              7.5229    Z=              5.5188  Tot=              9.3396
 Quadrupole moment (field-independent basis, Debye-Ang):
   XX=           -196.3648   YY=           -219.3217   ZZ=           -185.3884
   XY=             25.5615   XZ=             -0.2014   YZ=             -6.7488
 Traceless Quadrupole moment (field-independent basis, Debye-Ang):
   XX=              3.9935   YY=            -18.9634   ZZ=             14.9699
   XY=             25.5615   XZ=             -0.2014   YZ=             -6.7488
 Octapole moment (field-independent basis, Debye-Ang**2):
  XXX=             87.1188  YYY=            -66.4167  ZZZ=             41.7029  XYY=            -11.1077
  XXY=            144.6009  XXZ=            216.3917  XZZ=             14.9845  YZZ=             50.2575
  YYZ=             66.7234  XYZ=             53.1327
 Hexadecapole moment (field-independent basis, Debye-Ang**3):
 XXXX=         -16063.4568 YYYY=          -9885.6905 ZZZZ=          -1514.8100 XXXY=           1450.6190
 XXXZ=           1006.0104 YYYX=            406.9390 YYYZ=            -45.1342 ZZZX=           -129.6160
 ZZZY=            -99.2545 XXYY=          -4583.3433 XXZZ=          -2931.5852 YYZZ=          -1781.3268
 XXYZ=           -147.0513 YYXZ=           -305.6345 ZZXY=           -109.5946
 N-N= 3.042023026451D+03 E-N=-1.029905478169D+04  KE= 1.797713826651D+03
 No NMR shielding tensors so no spin-rotation constants.
 Leave Link  601 at Sat Aug 27 11:51:21 2022, MaxMem=  209715200 cpu:       1.4
 (Enter /opt/gaussian/l9999.exe)
 1\1\GINC-LQCAPF-6\FOpt\RHF\6-31G\C23H18Cl1N7O1\LQCAPF-6\27-Aug-2022\0\
 \#p opt hf/6-31G\\Mol39.out\\0,1\Cl,24.1886547121,-15.3552746831,-3.71
 44499396\C,23.3061527015,-14.0183204213,-2.8780037219\C,23.4234558135,
 -13.8905972678,-1.507528881\C,22.7423441167,-12.8590409471,-0.88323876
 77\C,21.9598034067,-11.9786233127,-1.6209645424\C,21.8493938328,-12.11
 92582442,-2.9985546345\C,22.5390626567,-13.1545776937,-3.6277130813\C,
 20.9929580371,-11.2036518152,-3.8628259914\N,20.4496885117,-10.0225194
 238,-3.1901799816\C,21.2049067008,-8.9075741091,-2.9161051298\O,20.765
 6866098,-7.9621343554,-2.2817642364\C,22.6358954218,-8.8963785026,-3.4
 370005237\N,23.2817153201,-7.6393317555,-3.2196087253\N,23.42109755,-6
 .7705102033,-4.2630060535\N,23.9915735656,-5.7135561785,-3.8595455851\
 C,24.252847735,-5.8333183389,-2.503772188\C,24.8642175048,-4.948643626
 9,-1.6163817511\C,24.9897841615,-5.3543411989,-0.3105466623\C,24.51154
 01456,-6.615992886,0.1086431502\C,23.9048935212,-7.4921486439,-0.75917
 18784\C,23.7863794473,-7.0736236574,-2.086834221\C,19.0592075464,-10.0
 311709566,-2.8446041995\C,18.5038338174,-11.0578755237,-2.0963834256\C
 ,17.1453012149,-11.0535333156,-1.8321747973\C,16.3583602305,-10.012688
 7291,-2.3158309973\N,16.9116293292,-9.0275883469,-3.0329071333\C,18.20
 95041152,-9.0284815173,-3.2945412893\C,14.9201422418,-9.9229668235,-2.
 0897516651\C,14.0853664041,-10.7829450432,-1.4212296014\N,12.846580219
 3,-10.2567859973,-1.4912932248\N,12.8267256495,-9.0875312737,-2.175889
 9365\C,14.0675700299,-8.8772636879,-2.5402769102\H,24.0288137321,-14.5
 738025285,-0.9487255252\H,22.8200185084,-12.740386037,0.1797386009\H,2
 1.4384015805,-11.1877906331,-1.1188658472\H,22.4777209083,-13.28507771
 71,-4.6905492824\H,21.5620077532,-10.905665856,-4.7346549158\H,20.1477
 544294,-11.7625975097,-4.2386427549\H,23.2075498885,-9.688857837,-2.97
 25140234\H,22.6443899973,-9.0608556467,-4.50393186\H,25.2153550142,-3.
 9947947716,-1.9546069019\H,25.4514855003,-4.70859096,0.4098487931\H,24
 .6211262215,-6.8917688369,1.1395721394\H,23.5278443335,-8.4376774033,-
 0.4256211974\H,19.1169313552,-11.8538144304,-1.7230537332\H,16.7132961
 644,-11.8458610179,-1.2553468895\H,18.5848489768,-8.2048838756,-3.8633
 882371\H,14.2772228948,-11.7022208803,-0.9173181858\H,14.3445824794,-8
 .0158710393,-3.0993289347\H,12.0047779917,-10.6133345396,-1.1167747189
 \\Version=EM64L-G09RevC.01\State=1-A\HF=-1796.2738417\RMSD=7.281e-09\R
 MSF=3.350e-06\Dipole=0.2637636,-3.1763061,1.8284814\Quadrupole=-1.9289
 627,-9.925172,11.8541346,20.5352382,2.1801354,2.066545\PG=C01 [X(C23H1
 8Cl1N7O1)]\\@


 WE THE UNWILLING
 LED BY THE UNQUALIFIED
 HAVE BEEN DOING THE UNBELIEVABLE SO LONG WITH SO LITTLE
 THAT WE NOW ATTEMPT THE IMPOSSIBLE WITH NOTHING.

                                    -- ANONYMOUS
 Job cpu time:  0 days  4 hours 21 minutes 15.0 seconds.
 File lengths (MBytes):  RWF=     73 Int=      0 D2E=      0 Chk=     10 Scr=      1
 Normal termination of Gaussian 09 at Sat Aug 27 11:51:21 2022.
