 Entering Gaussian System, Link 0=g09
 Input=Mol31.gjf
 Output=Mol31.log
 Initial command:
 /opt/gaussian/l1.exe /home/scr/lqcapf-6/Gau-290054.inp -scrdir=/home/scr/lqcapf-6/
 Entering Link 1 = /opt/gaussian/l1.exe PID=    290056.
  
 Copyright (c) 1988,1990,1992,1993,1995,1998,2003,2009,2011,
            Gaussian, Inc.  All Rights Reserved.
  
 This is part of the Gaussian(R) 09 program.  It is based on
 the Gaussian(R) 03 system (copyright 2003, Gaussian, Inc.),
 the Gaussian(R) 98 system (copyright 1998, Gaussian, Inc.),
 the Gaussian(R) 94 system (copyright 1995, Gaussian, Inc.),
 the Gaussian 92(TM) system (copyright 1992, Gaussian, Inc.),
 the Gaussian 90(TM) system (copyright 1990, Gaussian, Inc.),
 the Gaussian 88(TM) system (copyright 1988, Gaussian, Inc.),
 the Gaussian 86(TM) system (copyright 1986, Carnegie Mellon
 University), and the Gaussian 82(TM) system (copyright 1983,
 Carnegie Mellon University). Gaussian is a federally registered
 trademark of Gaussian, Inc.
  
 This software contains proprietary and confidential information,
 including trade secrets, belonging to Gaussian, Inc.
  
 This software is provided under written license and may be
 used, copied, transmitted, or stored only in accord with that
 written license.
  
 The following legend is applicable only to US Government
 contracts under FAR:
  
                    RESTRICTED RIGHTS LEGEND
  
 Use, reproduction and disclosure by the US Government is
 subject to restrictions as set forth in subparagraphs (a)
 and (c) of the Commercial Computer Software - Restricted
 Rights clause in FAR 52.227-19.
  
 Gaussian, Inc.
 340 Quinnipiac St., Bldg. 40, Wallingford CT 06492
  
  
 ---------------------------------------------------------------
 Warning -- This program may not be used in any manner that
 competes with the business of Gaussian, Inc. or will provide
 assistance to any competitor of Gaussian, Inc.  The licensee
 of this program is prohibited from giving any competitor of
 Gaussian, Inc. access to this program.  By using this program,
 the user acknowledges that Gaussian, Inc. is engaged in the
 business of creating and licensing software in the field of
 computational chemistry and represents and warrants to the
 licensee that it is not a competitor of Gaussian, Inc. and that
 it will not use this program in any manner prohibited above.
 ---------------------------------------------------------------
  

 Cite this work as:
 Gaussian 09, Revision C.01,
 M. J. Frisch, G. W. Trucks, H. B. Schlegel, G. E. Scuseria, 
 M. A. Robb, J. R. Cheeseman, G. Scalmani, V. Barone, B. Mennucci, 
 G. A. Petersson, H. Nakatsuji, M. Caricato, X. Li, H. P. Hratchian, 
 A. F. Izmaylov, J. Bloino, G. Zheng, J. L. Sonnenberg, M. Hada, 
 M. Ehara, K. Toyota, R. Fukuda, J. Hasegawa, M. Ishida, T. Nakajima, 
 Y. Honda, O. Kitao, H. Nakai, T. Vreven, J. A. Montgomery, Jr., 
 J. E. Peralta, F. Ogliaro, M. Bearpark, J. J. Heyd, E. Brothers, 
 K. N. Kudin, V. N. Staroverov, T. Keith, R. Kobayashi, J. Normand, 
 K. Raghavachari, A. Rendell, J. C. Burant, S. S. Iyengar, J. Tomasi, 
 M. Cossi, N. Rega, J. M. Millam, M. Klene, J. E. Knox, J. B. Cross, 
 V. Bakken, C. Adamo, J. Jaramillo, R. Gomperts, R. E. Stratmann, 
 O. Yazyev, A. J. Austin, R. Cammi, C. Pomelli, J. W. Ochterski, 
 R. L. Martin, K. Morokuma, V. G. Zakrzewski, G. A. Voth, 
 P. Salvador, J. J. Dannenberg, S. Dapprich, A. D. Daniels, 
 O. Farkas, J. B. Foresman, J. V. Ortiz, J. Cioslowski, 
 and D. J. Fox, Gaussian, Inc., Wallingford CT, 2010.
 
 ******************************************
 Gaussian 09:  EM64L-G09RevC.01 23-Sep-2011
                27-Aug-2022 
 ******************************************
 %nprocshared=8
 Will use up to    8 processors via shared memory.
 %mem=1600MB
 ---------------
 #p opt hf/6-31G
 ---------------
 1/18=20,19=15,38=1/1,3;
 2/9=110,12=2,17=6,18=5,40=1/2;
 3/5=1,6=6,11=9,16=1,25=1,30=1,71=1/1,2,3;
 4//1;
 5/5=2,38=5/2;
 6/7=2,8=2,9=2,10=2,28=1/1;
 7//1,2,3,16;
 1/18=20,19=15/3(2);
 2/9=110/2;
 99//99;
 2/9=110/2;
 3/5=1,6=6,11=9,16=1,25=1,30=1,71=1/1,2,3;
 4/5=5,16=3/1;
 5/5=2,38=5/2;
 7//1,2,3,16;
 1/18=20,19=15/3(-5);
 2/9=110/2;
 6/7=2,8=2,9=2,10=2,19=2,28=1/1;
 99/9=1/99;
 Leave Link    1 at Sat Aug 27 03:58:55 2022, MaxMem=  209715200 cpu:       0.1
 (Enter /opt/gaussian/l101.exe)
 ---------
 Mol31.out
 ---------
 Charge =  0 Multiplicity = 1
 Symbolic Z-Matrix:
 F                     25.4057  -13.1627  -1.2428 
 C                     24.1936  -12.631   -0.9587 
 C                     23.6379  -12.8097   0.321 
 C                     22.3883  -12.2509   0.5923 
 C                     21.6908  -11.5308  -0.3825 
 C                     22.2521  -11.3597  -1.6506 
 C                     23.5038  -11.9038  -1.9453 
 C                     21.5     -10.6405  -2.7405 
 N                     20.874   -9.3965   -2.3644 
 C                     21.6192  -8.2419   -2.0952 
 O                     21.1153  -7.2777   -1.5005 
 C                     23.069   -8.2198   -2.6123 
 N                     23.727   -6.9442   -2.5267 
 N                     23.45    -5.8872   -3.3611 
 N                     23.923   -4.807    -2.9331 
 C                     24.5434  -5.0288   -1.6606 
 C                     25.2183  -4.1996   -0.7653 
 C                     25.7112  -4.7805    0.3983 
 C                     25.5433  -6.1473    0.6729 
 C                     24.8863  -7.0034   -0.2045 
 C                     24.3818  -6.4397   -1.3761 
 C                     19.4838  -9.4316   -2.0541 
 C                     18.5523  -9.7732   -3.0578 
 C                     17.1921  -9.7874   -2.7736 
 C                     16.7191  -9.4647   -1.4937 
 C                     17.6449  -9.1261   -0.4977 
 C                     19.0093  -9.1077   -0.7674 
 C                     15.2888  -9.4575   -1.2172 
 C                     14.4173  -10.3877  -1.8039 
 C                     13.0533  -10.3129  -1.5245 
 C                     12.5971  -9.3027   -0.659 
 N                     13.4144  -8.4033   -0.0766 
 C                     14.7269  -8.4864   -0.354 
 Cl                    21.7029  -12.4542   2.132 
 H                     24.1872  -13.3836   1.0822 
 H                     20.7012  -11.1018  -0.1509 
 H                     23.9578  -11.7817  -2.9399 
 H                     22.2026  -10.4469  -3.6034 
 H                     20.6959  -11.3428  -3.1142 
 H                     23.6709  -8.959    -2.0085 
 H                     23.0712  -8.5328   -3.6978 
 H                     25.3524  -3.1289   -0.9752 
 H                     26.2494  -4.1536    1.1256 
 H                     25.9412  -6.5533    1.6153 
 H                     24.7675  -8.0717    0.0148 
 H                     18.8912  -10.0128  -4.0777 
 H                     16.4746  -10.0336  -3.5718 
 H                     17.2936  -8.8701    0.5142 
 H                     19.7156  -8.7994    0.0206 
 H                     14.8076  -11.1684  -2.4732 
 H                     12.3455  -11.0255  -1.9673 
 H                     11.5238  -9.203    -0.4173 
 H                     15.3707  -7.7291    0.1303 
 
 NAtoms=     53 NQM=        0 NQMF=       0 NMMI=     53 NMMIF=      0
                NMic=       0 NMicF=      0.
                    Isotopes and Nuclear Properties:
 (Nuclear quadrupole moments (NQMom) in fm**2, nuclear magnetic moments (NMagM)
  in nuclear magnetons)

  Atom         1           2           3           4           5           6           7           8           9          10
 IAtWgt=          19          12          12          12          12          12          12          12          14          12
 AtmWgt=  18.9984033  12.0000000  12.0000000  12.0000000  12.0000000  12.0000000  12.0000000  12.0000000  14.0030740  12.0000000
 NucSpn=           1           0           0           0           0           0           0           0           2           0
 AtZEff=   0.0000000   0.0000000   0.0000000   0.0000000   0.0000000   0.0000000   0.0000000   0.0000000   0.0000000   0.0000000
 NQMom=    0.0000000   0.0000000   0.0000000   0.0000000   0.0000000   0.0000000   0.0000000   0.0000000   2.0440000   0.0000000
 NMagM=    2.6288670   0.0000000   0.0000000   0.0000000   0.0000000   0.0000000   0.0000000   0.0000000   0.4037610   0.0000000

  Atom        11          12          13          14          15          16          17          18          19          20
 IAtWgt=          16          12          14          14          14          12          12          12          12          12
 AtmWgt=  15.9949146  12.0000000  14.0030740  14.0030740  14.0030740  12.0000000  12.0000000  12.0000000  12.0000000  12.0000000
 NucSpn=           0           0           2           2           2           0           0           0           0           0
 AtZEff=   0.0000000   0.0000000   0.0000000   0.0000000   0.0000000   0.0000000   0.0000000   0.0000000   0.0000000   0.0000000
 NQMom=    0.0000000   0.0000000   2.0440000   2.0440000   2.0440000   0.0000000   0.0000000   0.0000000   0.0000000   0.0000000
 NMagM=    0.0000000   0.0000000   0.4037610   0.4037610   0.4037610   0.0000000   0.0000000   0.0000000   0.0000000   0.0000000

  Atom        21          22          23          24          25          26          27          28          29          30
 IAtWgt=          12          12          12          12          12          12          12          12          12          12
 AtmWgt=  12.0000000  12.0000000  12.0000000  12.0000000  12.0000000  12.0000000  12.0000000  12.0000000  12.0000000  12.0000000
 NucSpn=           0           0           0           0           0           0           0           0           0           0
 AtZEff=   0.0000000   0.0000000   0.0000000   0.0000000   0.0000000   0.0000000   0.0000000   0.0000000   0.0000000   0.0000000
 NQMom=    0.0000000   0.0000000   0.0000000   0.0000000   0.0000000   0.0000000   0.0000000   0.0000000   0.0000000   0.0000000
 NMagM=    0.0000000   0.0000000   0.0000000   0.0000000   0.0000000   0.0000000   0.0000000   0.0000000   0.0000000   0.0000000

  Atom        31          32          33          34          35          36          37          38          39          40
 IAtWgt=          12          14          12          35           1           1           1           1           1           1
 AtmWgt=  12.0000000  14.0030740  12.0000000  34.9688527   1.0078250   1.0078250   1.0078250   1.0078250   1.0078250   1.0078250
 NucSpn=           0           2           0           3           1           1           1           1           1           1
 AtZEff=   0.0000000   0.0000000   0.0000000   0.0000000   0.0000000   0.0000000   0.0000000   0.0000000   0.0000000   0.0000000
 NQMom=    0.0000000   2.0440000   0.0000000  -8.1650000   0.0000000   0.0000000   0.0000000   0.0000000   0.0000000   0.0000000
 NMagM=    0.0000000   0.4037610   0.0000000   0.8218740   2.7928460   2.7928460   2.7928460   2.7928460   2.7928460   2.7928460

  Atom        41          42          43          44          45          46          47          48          49          50
 IAtWgt=           1           1           1           1           1           1           1           1           1           1
 AtmWgt=   1.0078250   1.0078250   1.0078250   1.0078250   1.0078250   1.0078250   1.0078250   1.0078250   1.0078250   1.0078250
 NucSpn=           1           1           1           1           1           1           1           1           1           1
 AtZEff=   0.0000000   0.0000000   0.0000000   0.0000000   0.0000000   0.0000000   0.0000000   0.0000000   0.0000000   0.0000000
 NQMom=    0.0000000   0.0000000   0.0000000   0.0000000   0.0000000   0.0000000   0.0000000   0.0000000   0.0000000   0.0000000
 NMagM=    2.7928460   2.7928460   2.7928460   2.7928460   2.7928460   2.7928460   2.7928460   2.7928460   2.7928460   2.7928460

  Atom        51          52          53
 IAtWgt=           1           1           1
 AtmWgt=   1.0078250   1.0078250   1.0078250
 NucSpn=           1           1           1
 AtZEff=   0.0000000   0.0000000   0.0000000
 NQMom=    0.0000000   0.0000000   0.0000000
 NMagM=    2.7928460   2.7928460   2.7928460
 Leave Link  101 at Sat Aug 27 03:58:55 2022, MaxMem=  209715200 cpu:       0.8
 (Enter /opt/gaussian/l103.exe)

 GradGradGradGradGradGradGradGradGradGradGradGradGradGradGradGradGradGrad
 Berny optimization.
 Initialization pass.
                           ----------------------------
                           !    Initial Parameters    !
                           ! (Angstroms and Degrees)  !
 --------------------------                            --------------------------
 ! Name  Definition              Value          Derivative Info.                !
 --------------------------------------------------------------------------------
 ! R1    R(1,2)                  1.3537         estimate D2E/DX2                !
 ! R2    R(2,3)                  1.4065         estimate D2E/DX2                !
 ! R3    R(2,7)                  1.4064         estimate D2E/DX2                !
 ! R4    R(3,4)                  1.3955         estimate D2E/DX2                !
 ! R5    R(3,35)                 1.1002         estimate D2E/DX2                !
 ! R6    R(4,5)                  1.3983         estimate D2E/DX2                !
 ! R7    R(4,34)                 1.6976         estimate D2E/DX2                !
 ! R8    R(5,6)                  1.3973         estimate D2E/DX2                !
 ! R9    R(5,36)                 1.1032         estimate D2E/DX2                !
 ! R10   R(6,7)                  1.3963         estimate D2E/DX2                !
 ! R11   R(6,8)                  1.5069         estimate D2E/DX2                !
 ! R12   R(7,37)                 1.1001         estimate D2E/DX2                !
 ! R13   R(8,9)                  1.4425         estimate D2E/DX2                !
 ! R14   R(8,38)                 1.1295         estimate D2E/DX2                !
 ! R15   R(8,39)                 1.1311         estimate D2E/DX2                !
 ! R16   R(9,10)                 1.4003         estimate D2E/DX2                !
 ! R17   R(9,22)                 1.4248         estimate D2E/DX2                !
 ! R18   R(10,11)                1.2399         estimate D2E/DX2                !
 ! R19   R(10,12)                1.5394         estimate D2E/DX2                !
 ! R20   R(12,13)                1.4379         estimate D2E/DX2                !
 ! R21   R(12,40)                1.1284         estimate D2E/DX2                !
 ! R22   R(12,41)                1.1297         estimate D2E/DX2                !
 ! R23   R(13,14)                1.3748         estimate D2E/DX2                !
 ! R24   R(13,21)                1.4167         estimate D2E/DX2                !
 ! R25   R(14,15)                1.2545         estimate D2E/DX2                !
 ! R26   R(15,16)                1.433          estimate D2E/DX2                !
 ! R27   R(16,17)                1.3945         estimate D2E/DX2                !
 ! R28   R(16,21)                1.4483         estimate D2E/DX2                !
 ! R29   R(17,18)                1.3908         estimate D2E/DX2                !
 ! R30   R(17,42)                1.0993         estimate D2E/DX2                !
 ! R31   R(18,19)                1.4042         estimate D2E/DX2                !
 ! R32   R(18,43)                1.1007         estimate D2E/DX2                !
 ! R33   R(19,20)                1.3908         estimate D2E/DX2                !
 ! R34   R(19,44)                1.1006         estimate D2E/DX2                !
 ! R35   R(20,21)                1.3946         estimate D2E/DX2                !
 ! R36   R(20,45)                1.097          estimate D2E/DX2                !
 ! R37   R(22,23)                1.4113         estimate D2E/DX2                !
 ! R38   R(22,27)                1.4091         estimate D2E/DX2                !
 ! R39   R(23,24)                1.3896         estimate D2E/DX2                !
 ! R40   R(23,46)                1.1011         estimate D2E/DX2                !
 ! R41   R(24,25)                1.4021         estimate D2E/DX2                !
 ! R42   R(24,47)                1.1012         estimate D2E/DX2                !
 ! R43   R(25,26)                1.4013         estimate D2E/DX2                !
 ! R44   R(25,28)                1.4568         estimate D2E/DX2                !
 ! R45   R(26,27)                1.3909         estimate D2E/DX2                !
 ! R46   R(26,48)                1.1013         estimate D2E/DX2                !
 ! R47   R(27,49)                1.1022         estimate D2E/DX2                !
 ! R48   R(28,29)                1.4032         estimate D2E/DX2                !
 ! R49   R(28,33)                1.4156         estimate D2E/DX2                !
 ! R50   R(29,30)                1.3943         estimate D2E/DX2                !
 ! R51   R(29,50)                1.0999         estimate D2E/DX2                !
 ! R52   R(30,31)                1.4063         estimate D2E/DX2                !
 ! R53   R(30,51)                1.0977         estimate D2E/DX2                !
 ! R54   R(31,32)                1.3476         estimate D2E/DX2                !
 ! R55   R(31,52)                1.1047         estimate D2E/DX2                !
 ! R56   R(32,33)                1.3441         estimate D2E/DX2                !
 ! R57   R(33,53)                1.1057         estimate D2E/DX2                !
 ! A1    A(1,2,3)              119.6554         estimate D2E/DX2                !
 ! A2    A(1,2,7)              119.6705         estimate D2E/DX2                !
 ! A3    A(3,2,7)              120.674          estimate D2E/DX2                !
 ! A4    A(2,3,4)              118.6715         estimate D2E/DX2                !
 ! A5    A(2,3,35)             119.8997         estimate D2E/DX2                !
 ! A6    A(4,3,35)             121.4285         estimate D2E/DX2                !
 ! A7    A(3,4,5)              121.155          estimate D2E/DX2                !
 ! A8    A(3,4,34)             119.3354         estimate D2E/DX2                !
 ! A9    A(5,4,34)             119.5094         estimate D2E/DX2                !
 ! A10   A(4,5,6)              119.6931         estimate D2E/DX2                !
 ! A11   A(4,5,36)             120.0907         estimate D2E/DX2                !
 ! A12   A(6,5,36)             120.2161         estimate D2E/DX2                !
 ! A13   A(5,6,7)              120.2607         estimate D2E/DX2                !
 ! A14   A(5,6,8)              120.9538         estimate D2E/DX2                !
 ! A15   A(7,6,8)              118.7338         estimate D2E/DX2                !
 ! A16   A(2,7,6)              119.5445         estimate D2E/DX2                !
 ! A17   A(2,7,37)             119.2876         estimate D2E/DX2                !
 ! A18   A(6,7,37)             121.1656         estimate D2E/DX2                !
 ! A19   A(6,8,9)              116.0786         estimate D2E/DX2                !
 ! A20   A(6,8,38)             108.8989         estimate D2E/DX2                !
 ! A21   A(6,8,39)             107.303          estimate D2E/DX2                !
 ! A22   A(9,8,38)             108.7428         estimate D2E/DX2                !
 ! A23   A(9,8,39)             108.2449         estimate D2E/DX2                !
 ! A24   A(38,8,39)            107.2313         estimate D2E/DX2                !
 ! A25   A(8,9,10)             122.0215         estimate D2E/DX2                !
 ! A26   A(8,9,22)             117.3192         estimate D2E/DX2                !
 ! A27   A(10,9,22)            119.8461         estimate D2E/DX2                !
 ! A28   A(9,10,11)            121.1402         estimate D2E/DX2                !
 ! A29   A(9,10,12)            116.6441         estimate D2E/DX2                !
 ! A30   A(11,10,12)           122.1887         estimate D2E/DX2                !
 ! A31   A(10,12,13)           115.0698         estimate D2E/DX2                !
 ! A32   A(10,12,40)           108.253          estimate D2E/DX2                !
 ! A33   A(10,12,41)           108.7            estimate D2E/DX2                !
 ! A34   A(13,12,40)           107.7705         estimate D2E/DX2                !
 ! A35   A(13,12,41)           107.584          estimate D2E/DX2                !
 ! A36   A(40,12,41)           109.3666         estimate D2E/DX2                !
 ! A37   A(12,13,14)           123.6227         estimate D2E/DX2                !
 ! A38   A(12,13,21)           125.1535         estimate D2E/DX2                !
 ! A39   A(14,13,21)           108.1943         estimate D2E/DX2                !
 ! A40   A(13,14,15)           112.2701         estimate D2E/DX2                !
 ! A41   A(14,15,16)           109.447          estimate D2E/DX2                !
 ! A42   A(15,16,17)           133.443          estimate D2E/DX2                !
 ! A43   A(15,16,21)           106.0761         estimate D2E/DX2                !
 ! A44   A(17,16,21)           120.4733         estimate D2E/DX2                !
 ! A45   A(16,17,18)           117.4065         estimate D2E/DX2                !
 ! A46   A(16,17,42)           121.0381         estimate D2E/DX2                !
 ! A47   A(18,17,42)           121.5554         estimate D2E/DX2                !
 ! A48   A(17,18,19)           121.8558         estimate D2E/DX2                !
 ! A49   A(17,18,43)           119.2224         estimate D2E/DX2                !
 ! A50   A(19,18,43)           118.9217         estimate D2E/DX2                !
 ! A51   A(18,19,20)           122.1584         estimate D2E/DX2                !
 ! A52   A(18,19,44)           118.9009         estimate D2E/DX2                !
 ! A53   A(20,19,44)           118.9402         estimate D2E/DX2                !
 ! A54   A(19,20,21)           116.8758         estimate D2E/DX2                !
 ! A55   A(19,20,45)           121.632          estimate D2E/DX2                !
 ! A56   A(21,20,45)           121.4919         estimate D2E/DX2                !
 ! A57   A(13,21,16)           103.8234         estimate D2E/DX2                !
 ! A58   A(13,21,20)           134.8731         estimate D2E/DX2                !
 ! A59   A(16,21,20)           121.2256         estimate D2E/DX2                !
 ! A60   A(9,22,23)            119.6737         estimate D2E/DX2                !
 ! A61   A(9,22,27)            121.449          estimate D2E/DX2                !
 ! A62   A(23,22,27)           118.8668         estimate D2E/DX2                !
 ! A63   A(22,23,24)           120.2031         estimate D2E/DX2                !
 ! A64   A(22,23,46)           120.5476         estimate D2E/DX2                !
 ! A65   A(24,23,46)           119.2395         estimate D2E/DX2                !
 ! A66   A(23,24,25)           120.9656         estimate D2E/DX2                !
 ! A67   A(23,24,47)           119.4603         estimate D2E/DX2                !
 ! A68   A(25,24,47)           119.5595         estimate D2E/DX2                !
 ! A69   A(24,25,26)           118.785          estimate D2E/DX2                !
 ! A70   A(24,25,28)           120.3708         estimate D2E/DX2                !
 ! A71   A(26,25,28)           120.8332         estimate D2E/DX2                !
 ! A72   A(25,26,27)           120.893          estimate D2E/DX2                !
 ! A73   A(25,26,48)           119.8989         estimate D2E/DX2                !
 ! A74   A(27,26,48)           119.2081         estimate D2E/DX2                !
 ! A75   A(22,27,26)           120.2864         estimate D2E/DX2                !
 ! A76   A(22,27,49)           120.0879         estimate D2E/DX2                !
 ! A77   A(26,27,49)           119.5816         estimate D2E/DX2                !
 ! A78   A(25,28,29)           121.8127         estimate D2E/DX2                !
 ! A79   A(25,28,33)           120.587          estimate D2E/DX2                !
 ! A80   A(29,28,33)           117.593          estimate D2E/DX2                !
 ! A81   A(28,29,30)           119.2237         estimate D2E/DX2                !
 ! A82   A(28,29,50)           120.3022         estimate D2E/DX2                !
 ! A83   A(30,29,50)           120.4737         estimate D2E/DX2                !
 ! A84   A(29,30,31)           118.633          estimate D2E/DX2                !
 ! A85   A(29,30,51)           121.0068         estimate D2E/DX2                !
 ! A86   A(31,30,51)           120.3602         estimate D2E/DX2                !
 ! A87   A(30,31,32)           123.2744         estimate D2E/DX2                !
 ! A88   A(30,31,52)           120.975          estimate D2E/DX2                !
 ! A89   A(32,31,52)           115.7505         estimate D2E/DX2                !
 ! A90   A(31,32,33)           117.5016         estimate D2E/DX2                !
 ! A91   A(28,33,32)           123.7715         estimate D2E/DX2                !
 ! A92   A(28,33,53)           120.3862         estimate D2E/DX2                !
 ! A93   A(32,33,53)           115.839          estimate D2E/DX2                !
 ! D1    D(1,2,3,4)            179.893          estimate D2E/DX2                !
 ! D2    D(1,2,3,35)            -0.2962         estimate D2E/DX2                !
 ! D3    D(7,2,3,4)             -0.0041         estimate D2E/DX2                !
 ! D4    D(7,2,3,35)           179.8066         estimate D2E/DX2                !
 ! D5    D(1,2,7,6)            179.8221         estimate D2E/DX2                !
 ! D6    D(1,2,7,37)             0.3609         estimate D2E/DX2                !
 ! D7    D(3,2,7,6)             -0.2808         estimate D2E/DX2                !
 ! D8    D(3,2,7,37)          -179.742          estimate D2E/DX2                !
 ! D9    D(2,3,4,5)              0.2784         estimate D2E/DX2                !
 ! D10   D(2,3,4,34)          -179.9072         estimate D2E/DX2                !
 ! D11   D(35,3,4,5)          -179.5293         estimate D2E/DX2                !
 ! D12   D(35,3,4,34)            0.2851         estimate D2E/DX2                !
 ! D13   D(3,4,5,6)             -0.2651         estimate D2E/DX2                !
 ! D14   D(3,4,5,36)           179.6225         estimate D2E/DX2                !
 ! D15   D(34,4,5,6)           179.9208         estimate D2E/DX2                !
 ! D16   D(34,4,5,36)           -0.1916         estimate D2E/DX2                !
 ! D17   D(4,5,6,7)             -0.0275         estimate D2E/DX2                !
 ! D18   D(4,5,6,8)            177.3268         estimate D2E/DX2                !
 ! D19   D(36,5,6,7)          -179.915          estimate D2E/DX2                !
 ! D20   D(36,5,6,8)            -2.5607         estimate D2E/DX2                !
 ! D21   D(5,6,7,2)              0.2959         estimate D2E/DX2                !
 ! D22   D(5,6,7,37)           179.7467         estimate D2E/DX2                !
 ! D23   D(8,6,7,2)           -177.1166         estimate D2E/DX2                !
 ! D24   D(8,6,7,37)             2.3342         estimate D2E/DX2                !
 ! D25   D(5,6,8,9)             46.3735         estimate D2E/DX2                !
 ! D26   D(5,6,8,38)           169.445          estimate D2E/DX2                !
 ! D27   D(5,6,8,39)           -74.795          estimate D2E/DX2                !
 ! D28   D(7,6,8,9)           -136.2326         estimate D2E/DX2                !
 ! D29   D(7,6,8,38)           -13.1611         estimate D2E/DX2                !
 ! D30   D(7,6,8,39)           102.5989         estimate D2E/DX2                !
 ! D31   D(6,8,9,10)            71.295          estimate D2E/DX2                !
 ! D32   D(6,8,9,22)           -98.3539         estimate D2E/DX2                !
 ! D33   D(38,8,9,10)          -51.8581         estimate D2E/DX2                !
 ! D34   D(38,8,9,22)          138.493          estimate D2E/DX2                !
 ! D35   D(39,8,9,10)         -168.0407         estimate D2E/DX2                !
 ! D36   D(39,8,9,22)           22.3104         estimate D2E/DX2                !
 ! D37   D(8,9,10,11)         -164.0856         estimate D2E/DX2                !
 ! D38   D(8,9,10,12)           17.7645         estimate D2E/DX2                !
 ! D39   D(22,9,10,11)           5.3087         estimate D2E/DX2                !
 ! D40   D(22,9,10,12)        -172.8412         estimate D2E/DX2                !
 ! D41   D(8,9,22,23)          -64.2856         estimate D2E/DX2                !
 ! D42   D(8,9,22,27)          116.9042         estimate D2E/DX2                !
 ! D43   D(10,9,22,23)         125.8301         estimate D2E/DX2                !
 ! D44   D(10,9,22,27)         -52.9801         estimate D2E/DX2                !
 ! D45   D(9,10,12,13)         169.6523         estimate D2E/DX2                !
 ! D46   D(9,10,12,40)         -69.7449         estimate D2E/DX2                !
 ! D47   D(9,10,12,41)          48.9585         estimate D2E/DX2                !
 ! D48   D(11,10,12,13)         -8.4766         estimate D2E/DX2                !
 ! D49   D(11,10,12,40)        112.1262         estimate D2E/DX2                !
 ! D50   D(11,10,12,41)       -129.1704         estimate D2E/DX2                !
 ! D51   D(10,12,13,14)        -73.8758         estimate D2E/DX2                !
 ! D52   D(10,12,13,21)         84.0805         estimate D2E/DX2                !
 ! D53   D(40,12,13,14)        165.2576         estimate D2E/DX2                !
 ! D54   D(40,12,13,21)        -36.7861         estimate D2E/DX2                !
 ! D55   D(41,12,13,14)         47.4267         estimate D2E/DX2                !
 ! D56   D(41,12,13,21)       -154.6171         estimate D2E/DX2                !
 ! D57   D(12,13,14,15)        165.7586         estimate D2E/DX2                !
 ! D58   D(21,13,14,15)          4.6037         estimate D2E/DX2                !
 ! D59   D(12,13,21,16)       -164.7605         estimate D2E/DX2                !
 ! D60   D(12,13,21,20)         18.5687         estimate D2E/DX2                !
 ! D61   D(14,13,21,16)         -3.967          estimate D2E/DX2                !
 ! D62   D(14,13,21,20)        179.3622         estimate D2E/DX2                !
 ! D63   D(13,14,15,16)         -3.0797         estimate D2E/DX2                !
 ! D64   D(14,15,16,17)        179.3681         estimate D2E/DX2                !
 ! D65   D(14,15,16,21)          0.4031         estimate D2E/DX2                !
 ! D66   D(15,16,17,18)       -179.3152         estimate D2E/DX2                !
 ! D67   D(15,16,17,42)          0.7248         estimate D2E/DX2                !
 ! D68   D(21,16,17,18)         -0.4691         estimate D2E/DX2                !
 ! D69   D(21,16,17,42)        179.5709         estimate D2E/DX2                !
 ! D70   D(15,16,21,13)          2.2328         estimate D2E/DX2                !
 ! D71   D(15,16,21,20)        179.4743         estimate D2E/DX2                !
 ! D72   D(17,16,21,13)       -176.8953         estimate D2E/DX2                !
 ! D73   D(17,16,21,20)          0.3462         estimate D2E/DX2                !
 ! D74   D(16,17,18,19)          0.0278         estimate D2E/DX2                !
 ! D75   D(16,17,18,43)        179.9608         estimate D2E/DX2                !
 ! D76   D(42,17,18,19)        179.9876         estimate D2E/DX2                !
 ! D77   D(42,17,18,43)         -0.0795         estimate D2E/DX2                !
 ! D78   D(17,18,19,20)          0.5781         estimate D2E/DX2                !
 ! D79   D(17,18,19,44)       -179.1689         estimate D2E/DX2                !
 ! D80   D(43,18,19,20)       -179.355          estimate D2E/DX2                !
 ! D81   D(43,18,19,44)          0.8979         estimate D2E/DX2                !
 ! D82   D(18,19,20,21)         -0.6874         estimate D2E/DX2                !
 ! D83   D(18,19,20,45)        179.4691         estimate D2E/DX2                !
 ! D84   D(44,19,20,21)        179.0596         estimate D2E/DX2                !
 ! D85   D(44,19,20,45)         -0.7839         estimate D2E/DX2                !
 ! D86   D(19,20,21,13)        176.4531         estimate D2E/DX2                !
 ! D87   D(19,20,21,16)          0.2342         estimate D2E/DX2                !
 ! D88   D(45,20,21,13)         -3.7032         estimate D2E/DX2                !
 ! D89   D(45,20,21,16)       -179.9221         estimate D2E/DX2                !
 ! D90   D(9,22,23,24)        -178.8392         estimate D2E/DX2                !
 ! D91   D(9,22,23,46)           0.0154         estimate D2E/DX2                !
 ! D92   D(27,22,23,24)          0.0018         estimate D2E/DX2                !
 ! D93   D(27,22,23,46)        178.8564         estimate D2E/DX2                !
 ! D94   D(9,22,27,26)         178.8131         estimate D2E/DX2                !
 ! D95   D(9,22,27,49)           1.2364         estimate D2E/DX2                !
 ! D96   D(23,22,27,26)         -0.0065         estimate D2E/DX2                !
 ! D97   D(23,22,27,49)       -177.5831         estimate D2E/DX2                !
 ! D98   D(22,23,24,25)          0.0248         estimate D2E/DX2                !
 ! D99   D(22,23,24,47)        178.6281         estimate D2E/DX2                !
 ! D100  D(46,23,24,25)       -178.8448         estimate D2E/DX2                !
 ! D101  D(46,23,24,47)         -0.2414         estimate D2E/DX2                !
 ! D102  D(23,24,25,26)         -0.0459         estimate D2E/DX2                !
 ! D103  D(23,24,25,28)        178.7581         estimate D2E/DX2                !
 ! D104  D(47,24,25,26)       -178.6479         estimate D2E/DX2                !
 ! D105  D(47,24,25,28)          0.1562         estimate D2E/DX2                !
 ! D106  D(24,25,26,27)          0.0411         estimate D2E/DX2                !
 ! D107  D(24,25,26,48)       -179.9618         estimate D2E/DX2                !
 ! D108  D(28,25,26,27)       -178.7572         estimate D2E/DX2                !
 ! D109  D(28,25,26,48)          1.2399         estimate D2E/DX2                !
 ! D110  D(24,25,28,29)         36.2528         estimate D2E/DX2                !
 ! D111  D(24,25,28,33)       -142.7407         estimate D2E/DX2                !
 ! D112  D(26,25,28,29)       -144.968          estimate D2E/DX2                !
 ! D113  D(26,25,28,33)         36.0385         estimate D2E/DX2                !
 ! D114  D(25,26,27,22)         -0.0153         estimate D2E/DX2                !
 ! D115  D(25,26,27,49)        177.5736         estimate D2E/DX2                !
 ! D116  D(48,26,27,22)        179.9876         estimate D2E/DX2                !
 ! D117  D(48,26,27,49)         -2.4234         estimate D2E/DX2                !
 ! D118  D(25,28,29,30)       -178.5804         estimate D2E/DX2                !
 ! D119  D(25,28,29,50)          1.6435         estimate D2E/DX2                !
 ! D120  D(33,28,29,30)          0.4419         estimate D2E/DX2                !
 ! D121  D(33,28,29,50)       -179.3342         estimate D2E/DX2                !
 ! D122  D(25,28,33,32)        178.5621         estimate D2E/DX2                !
 ! D123  D(25,28,33,53)         -0.7529         estimate D2E/DX2                !
 ! D124  D(29,28,33,32)         -0.4728         estimate D2E/DX2                !
 ! D125  D(29,28,33,53)       -179.7879         estimate D2E/DX2                !
 ! D126  D(28,29,30,31)         -0.0439         estimate D2E/DX2                !
 ! D127  D(28,29,30,51)       -179.9929         estimate D2E/DX2                !
 ! D128  D(50,29,30,31)        179.7318         estimate D2E/DX2                !
 ! D129  D(50,29,30,51)         -0.2172         estimate D2E/DX2                !
 ! D130  D(29,30,31,32)         -0.3916         estimate D2E/DX2                !
 ! D131  D(29,30,31,52)        179.5201         estimate D2E/DX2                !
 ! D132  D(51,30,31,32)        179.5577         estimate D2E/DX2                !
 ! D133  D(51,30,31,52)         -0.5305         estimate D2E/DX2                !
 ! D134  D(30,31,32,33)          0.379          estimate D2E/DX2                !
 ! D135  D(52,31,32,33)       -179.537          estimate D2E/DX2                !
 ! D136  D(31,32,33,28)          0.0646         estimate D2E/DX2                !
 ! D137  D(31,32,33,53)        179.408          estimate D2E/DX2                !
 --------------------------------------------------------------------------------
 Trust Radius=3.00D-01 FncErr=1.00D-07 GrdErr=1.00D-07
 Number of steps in this run=    297 maximum allowed number of steps=    318.
 GradGradGradGradGradGradGradGradGradGradGradGradGradGradGradGradGradGrad

 Leave Link  103 at Sat Aug 27 03:58:55 2022, MaxMem=  209715200 cpu:       0.1
 (Enter /opt/gaussian/l202.exe)
 Stoichiometry    C26H19ClFN5O
 Framework group  C1[X(C26H19ClFN5O)]
 Deg. of freedom   153
 Full point group                 C1      NOp   1
 Largest Abelian subgroup         C1      NOp   1
 Largest concise Abelian subgroup C1      NOp   1
                         Standard orientation:                         
 ---------------------------------------------------------------------
 Center     Atomic      Atomic             Coordinates (Angstroms)
 Number     Number       Type             X           Y           Z
 ---------------------------------------------------------------------
      1          9           0       -3.648734    4.671449   -1.236640
      2          6           0       -2.572120    3.991297   -0.777402
      3          6           0       -2.004553    4.340835    0.461170
      4          6           0       -0.896570    3.624626    0.915900
      5          6           0       -0.349443    2.582333    0.161206
      6          6           0       -0.921072    2.243747   -1.068026
      7          6           0       -2.033852    2.941077   -1.542470
      8          6           0       -0.319147    1.165837   -1.932075
      9          7           0        0.038524   -0.059527   -1.260198
     10          6           0       -0.927447   -0.956260   -0.787269
     11          8           0       -0.634934   -1.841608    0.029958
     12          6           0       -2.346522   -0.810839   -1.365957
     13          7           0       -3.249742   -1.881308   -1.040785
     14          7           0       -3.183944   -3.131797   -1.608367
     15          7           0       -3.869891   -3.974907   -0.981958
     16          6           0       -4.445269   -3.356596    0.175618
     17          6           0       -5.282827   -3.815814    1.191610
     18          6           0       -5.659629   -2.903931    2.171840
     19          6           0       -5.221502   -1.570011    2.150875
     20          6           0       -4.396211   -1.077603    1.145481
     21          6           0       -4.004490   -1.977120    0.154346
     22          6           0        1.403926   -0.227335   -0.889128
     23          6           0        2.395229   -0.308020   -1.890430
     24          6           0        3.727285   -0.495794   -1.541888
     25          6           0        4.112452   -0.608826   -0.198430
     26          6           0        3.127415   -0.528115    0.795028
     27          6           0        1.790251   -0.340278    0.461300
     28          6           0        5.508904   -0.832424    0.151121
     29          6           0        6.556339   -0.245827   -0.575367
     30          6           0        7.874164   -0.520395   -0.211904
     31          6           0        8.107960   -1.379586    0.876601
     32          7           0        7.119875   -1.948304    1.595166
     33          6           0        5.854142   -1.675400    1.234672
     34         17           0       -0.199608    4.030728    2.409588
     35          1           0       -2.433989    5.166708    1.047715
     36          1           0        0.530576    2.031823    0.534693
     37          1           0       -2.493222    2.689749   -2.509976
     38          1           0       -1.037741    0.924256   -2.769324
     39          1           0        0.614065    1.595781   -2.405061
     40          1           0       -2.792466    0.147786   -0.971689
     41          1           0       -2.274544   -0.755201   -2.492015
     42          1           0       -5.628611   -4.859086    1.212970
     43          1           0       -6.320728   -3.234346    2.987562
     44          1           0       -5.538441   -0.893287    2.958879
     45          1           0       -4.065989   -0.031530    1.132963
     46          1           0        2.121983   -0.242112   -2.955066
     47          1           0        4.487677   -0.579730   -2.333913
     48          1           0        3.409566   -0.613894    1.856123
     49          1           0        1.028369   -0.320107    1.257529
     50          1           0        6.338703    0.425431   -1.419071
     51          1           0        8.715844   -0.077356   -0.759756
     52          1           0        9.136448   -1.629729    1.192788
     53          1           0        5.065681   -2.164279    1.836216
 ---------------------------------------------------------------------
 Rotational constants (GHZ):      0.1309472      0.0620526      0.0489189
 Leave Link  202 at Sat Aug 27 03:58:55 2022, MaxMem=  209715200 cpu:       0.0
 (Enter /opt/gaussian/l301.exe)
 Standard basis: 6-31G (6D, 7F)
 Ernie: Thresh=  0.10000D-02 Tol=  0.10000D-05 Strict=F.
 There are   348 symmetry adapted basis functions of A   symmetry.
 Integral buffers will be    131072 words long.
 Raffenetti 1 integral format.
 Two-electron integral symmetry is turned on.
   348 basis functions,   848 primitive gaussians,   348 cartesian basis functions
   122 alpha electrons      122 beta electrons
       nuclear repulsion energy      3344.6537452797 Hartrees.
 IExCor=    0 DFT=F Ex=HF Corr=None ExCW=0 ScaHFX=  1.000000
 ScaDFX=  1.000000  1.000000  1.000000  1.000000 ScalE2=  1.000000  1.000000
 IRadAn=      0 IRanWt=     -1 IRanGd=            0 ICorTp=0
 NAtoms=   53 NActive=   53 NUniq=   53 SFac= 1.00D+00 NAtFMM=   60 NAOKFM=F Big=F
 Leave Link  301 at Sat Aug 27 03:58:55 2022, MaxMem=  209715200 cpu:       0.2
 (Enter /opt/gaussian/l302.exe)
 NPDir=0 NMtPBC=     1 NCelOv=     1 NCel=       1 NClECP=     1 NCelD=      1
         NCelK=      1 NCelE2=     1 NClLst=     1 CellRange=     0.0.
 One-electron integrals computed using PRISM.
 NBasis=   348 RedAO= T  NBF=   348
 NBsUse=   348 1.00D-06 NBFU=   348
 Leave Link  302 at Sat Aug 27 03:58:55 2022, MaxMem=  209715200 cpu:       2.1
 (Enter /opt/gaussian/l303.exe)
 DipDrv:  MaxL=1.
 Leave Link  303 at Sat Aug 27 03:58:55 2022, MaxMem=  209715200 cpu:       0.5
 (Enter /opt/gaussian/l401.exe)
 Harris functional with IExCor=  205 diagonalized for initial guess.
 ExpMin= 1.43D-01 ExpMax= 2.52D+04 ExpMxC= 3.78D+03 IAcc=1 IRadAn=         1 AccDes= 0.00D+00
 HarFok:  IExCor=  205 AccDes= 0.00D+00 IRadAn=         1 IDoV= 1
 ScaDFX=  1.000000  1.000000  1.000000  1.000000
 FoFCou: FMM=F IPFlag=           0 FMFlag=      100000 FMFlg1=           0
         NFxFlg=           0 DoJE=T BraDBF=F KetDBF=T FulRan=T
         Omega=  0.000000  0.000000  1.000000  0.000000  0.000000 ICntrl=     500 IOpCl=  0
         NMat0=    1 NMatS0=    1 NMatT0=    0 NMatD0=    1 NMtDS0=    0 NMtDT0=    0
         I1Cent=           4 NGrid=           0.
 Petite list used in FoFCou.
 Harris En= -1902.03258972801    
 Initial guess orbital symmetries:
       Occupied  (A) (A) (A) (A) (A) (A) (A) (A) (A) (A) (A) (A)
                 (A) (A) (A) (A) (A) (A) (A) (A) (A) (A) (A) (A)
                 (A) (A) (A) (A) (A) (A) (A) (A) (A) (A) (A) (A)
                 (A) (A) (A) (A) (A) (A) (A) (A) (A) (A) (A) (A)
                 (A) (A) (A) (A) (A) (A) (A) (A) (A) (A) (A) (A)
                 (A) (A) (A) (A) (A) (A) (A) (A) (A) (A) (A) (A)
                 (A) (A) (A) (A) (A) (A) (A) (A) (A) (A) (A) (A)
                 (A) (A) (A) (A) (A) (A) (A) (A) (A) (A) (A) (A)
                 (A) (A) (A) (A) (A) (A) (A) (A) (A) (A) (A) (A)
                 (A) (A) (A) (A) (A) (A) (A) (A) (A) (A) (A) (A)
                 (A) (A)
       Virtual   (A) (A) (A) (A) (A) (A) (A) (A) (A) (A) (A) (A)
                 (A) (A) (A) (A) (A) (A) (A) (A) (A) (A) (A) (A)
                 (A) (A) (A) (A) (A) (A) (A) (A) (A) (A) (A) (A)
                 (A) (A) (A) (A) (A) (A) (A) (A) (A) (A) (A) (A)
                 (A) (A) (A) (A) (A) (A) (A) (A) (A) (A) (A) (A)
                 (A) (A) (A) (A) (A) (A) (A) (A) (A) (A) (A) (A)
                 (A) (A) (A) (A) (A) (A) (A) (A) (A) (A) (A) (A)
                 (A) (A) (A) (A) (A) (A) (A) (A) (A) (A) (A) (A)
                 (A) (A) (A) (A) (A) (A) (A) (A) (A) (A) (A) (A)
                 (A) (A) (A) (A) (A) (A) (A) (A) (A) (A) (A) (A)
                 (A) (A) (A) (A) (A) (A) (A) (A) (A) (A) (A) (A)
                 (A) (A) (A) (A) (A) (A) (A) (A) (A) (A) (A) (A)
                 (A) (A) (A) (A) (A) (A) (A) (A) (A) (A) (A) (A)
                 (A) (A) (A) (A) (A) (A) (A) (A) (A) (A) (A) (A)
                 (A) (A) (A) (A) (A) (A) (A) (A) (A) (A) (A) (A)
                 (A) (A) (A) (A) (A) (A) (A) (A) (A) (A) (A) (A)
                 (A) (A) (A) (A) (A) (A) (A) (A) (A) (A) (A) (A)
                 (A) (A) (A) (A) (A) (A) (A) (A) (A) (A) (A) (A)
                 (A) (A) (A) (A) (A) (A) (A) (A) (A) (A)
 The electronic state of the initial guess is 1-A.
 Leave Link  401 at Sat Aug 27 03:58:56 2022, MaxMem=  209715200 cpu:       5.0
 (Enter /opt/gaussian/l502.exe)
 Closed shell SCF:
 Requested convergence on RMS density matrix=1.00D-08 within 128 cycles.
 Requested convergence on MAX density matrix=1.00D-06.
 Requested convergence on             energy=1.00D-06.
 No special actions if energy rises.
 Using DIIS extrapolation, IDIIS=  1040.
 Integral symmetry usage will be decided dynamically.
 IEnd=      386925 IEndB=      386925 NGot=   209715200 MDV=   209466368
 LenX=   209466368 LenY=   209344823
 Fock matrices will be formed incrementally for  20 cycles.
 Integral accuracy reduced to 1.0D-05 until final iterations.

 Cycle   1  Pass 0  IDiag  1:
 FoFCou: FMM=F IPFlag=           0 FMFlag=      100000 FMFlg1=           0
         NFxFlg=           0 DoJE=F BraDBF=F KetDBF=F FulRan=T
         Omega=  0.000000  0.000000  1.000000  0.000000  0.000000 ICntrl=       0 IOpCl=  0
         NMat0=    1 NMatS0=    1 NMatT0=    0 NMatD0=    1 NMtDS0=    0 NMtDT0=    0
         I1Cent=           0 NGrid=           0.
 Symmetry not used in FoFCou.
 E= -1900.06892547353    
 DIIS: error= 3.77D-02 at cycle   1 NSaved=   1.
 NSaved= 1 IEnMin= 1 EnMin= -1900.06892547353     IErMin= 1 ErrMin= 3.77D-02
 ErrMax= 3.77D-02 EMaxC= 1.00D-01 BMatC= 1.10D+00 BMatP= 1.10D+00
 IDIUse=3 WtCom= 6.23D-01 WtEn= 3.77D-01
 Coeff-Com:  0.100D+01
 Coeff-En:   0.100D+01
 Coeff:      0.100D+01
 Gap=     0.571 Goal=   None    Shift=    0.000
 GapD=    0.571 DampG=2.000 DampE=0.500 DampFc=1.0000 IDamp=-1.
 RMSDP=5.46D-03 MaxDP=1.68D-01              OVMax= 1.64D-01

 Cycle   2  Pass 0  IDiag  1:
 RMSU=  3.83D-03    CP:  9.70D-01
 E= -1900.80841761411     Delta-E=       -0.739492140581 Rises=F Damp=F
 DIIS: error= 1.83D-02 at cycle   2 NSaved=   2.
 NSaved= 2 IEnMin= 2 EnMin= -1900.80841761411     IErMin= 2 ErrMin= 1.83D-02
 ErrMax= 1.83D-02 EMaxC= 1.00D-01 BMatC= 1.77D-01 BMatP= 1.10D+00
 IDIUse=3 WtCom= 8.17D-01 WtEn= 1.83D-01
 Coeff-Com:  0.229D+00 0.771D+00
 Coeff-En:   0.000D+00 0.100D+01
 Coeff:      0.187D+00 0.813D+00
 Gap=     0.448 Goal=   None    Shift=    0.000
 RMSDP=2.23D-03 MaxDP=9.63D-02 DE=-7.39D-01 OVMax= 1.03D-01

 Cycle   3  Pass 0  IDiag  1:
 RMSU=  1.43D-03    CP:  9.69D-01  8.22D-01
 E= -1900.94896420478     Delta-E=       -0.140546590670 Rises=F Damp=F
 DIIS: error= 1.05D-02 at cycle   3 NSaved=   3.
 NSaved= 3 IEnMin= 3 EnMin= -1900.94896420478     IErMin= 3 ErrMin= 1.05D-02
 ErrMax= 1.05D-02 EMaxC= 1.00D-01 BMatC= 3.02D-02 BMatP= 1.77D-01
 IDIUse=3 WtCom= 8.95D-01 WtEn= 1.05D-01
 Coeff-Com:  0.427D-02 0.276D+00 0.720D+00
 Coeff-En:   0.000D+00 0.000D+00 0.100D+01
 Coeff:      0.382D-02 0.247D+00 0.749D+00
 Gap=     0.392 Goal=   None    Shift=    0.000
 RMSDP=7.45D-04 MaxDP=3.16D-02 DE=-1.41D-01 OVMax= 3.63D-02

 Cycle   4  Pass 0  IDiag  1:
 RMSU=  3.23D-04    CP:  9.69D-01  9.10D-01  8.27D-01
 E= -1900.97556214372     Delta-E=       -0.026597938937 Rises=F Damp=F
 DIIS: error= 3.48D-03 at cycle   4 NSaved=   4.
 NSaved= 4 IEnMin= 4 EnMin= -1900.97556214372     IErMin= 4 ErrMin= 3.48D-03
 ErrMax= 3.48D-03 EMaxC= 1.00D-01 BMatC= 2.89D-03 BMatP= 3.02D-02
 IDIUse=3 WtCom= 9.65D-01 WtEn= 3.48D-02
 Coeff-Com: -0.130D-01 0.241D-01 0.271D+00 0.718D+00
 Coeff-En:   0.000D+00 0.000D+00 0.000D+00 0.100D+01
 Coeff:     -0.125D-01 0.233D-01 0.262D+00 0.727D+00
 Gap=     0.391 Goal=   None    Shift=    0.000
 RMSDP=2.44D-04 MaxDP=9.89D-03 DE=-2.66D-02 OVMax= 9.23D-03

 Cycle   5  Pass 0  IDiag  1:
 RMSU=  1.12D-04    CP:  9.68D-01  9.06D-01  9.03D-01  7.79D-01
 E= -1900.97833367383     Delta-E=       -0.002771530115 Rises=F Damp=F
 DIIS: error= 9.14D-04 at cycle   5 NSaved=   5.
 NSaved= 5 IEnMin= 5 EnMin= -1900.97833367383     IErMin= 5 ErrMin= 9.14D-04
 ErrMax= 9.14D-04 EMaxC= 1.00D-01 BMatC= 1.16D-04 BMatP= 2.89D-03
 IDIUse=3 WtCom= 9.91D-01 WtEn= 9.14D-03
 Coeff-Com: -0.150D-02-0.153D-01-0.968D-02 0.861D-01 0.940D+00
 Coeff-En:   0.000D+00 0.000D+00 0.000D+00 0.000D+00 0.100D+01
 Coeff:     -0.148D-02-0.152D-01-0.959D-02 0.853D-01 0.941D+00
 Gap=     0.391 Goal=   None    Shift=    0.000
 RMSDP=7.60D-05 MaxDP=1.94D-03 DE=-2.77D-03 OVMax= 5.30D-03

 Cycle   6  Pass 0  IDiag  1:
 RMSU=  4.02D-05    CP:  9.68D-01  9.07D-01  9.20D-01  8.39D-01  1.16D+00
 E= -1900.97862377484     Delta-E=       -0.000290101008 Rises=F Damp=F
 DIIS: error= 3.75D-04 at cycle   6 NSaved=   6.
 NSaved= 6 IEnMin= 6 EnMin= -1900.97862377484     IErMin= 6 ErrMin= 3.75D-04
 ErrMax= 3.75D-04 EMaxC= 1.00D-01 BMatC= 3.08D-05 BMatP= 1.16D-04
 IDIUse=3 WtCom= 9.96D-01 WtEn= 3.75D-03
 Coeff-Com:  0.251D-02-0.890D-02-0.554D-01-0.151D+00 0.145D+00 0.107D+01
 Coeff-En:   0.000D+00 0.000D+00 0.000D+00 0.000D+00 0.000D+00 0.100D+01
 Coeff:      0.250D-02-0.887D-02-0.551D-01-0.150D+00 0.145D+00 0.107D+01
 Gap=     0.391 Goal=   None    Shift=    0.000
 RMSDP=5.33D-05 MaxDP=1.95D-03 DE=-2.90D-04 OVMax= 3.74D-03

 Cycle   7  Pass 0  IDiag  1:
 RMSU=  1.61D-05    CP:  9.68D-01  9.06D-01  9.31D-01  8.50D-01  1.41D+00
                    CP:  1.22D+00
 E= -1900.97872406761     Delta-E=       -0.000100292769 Rises=F Damp=F
 DIIS: error= 1.70D-04 at cycle   7 NSaved=   7.
 NSaved= 7 IEnMin= 7 EnMin= -1900.97872406761     IErMin= 7 ErrMin= 1.70D-04
 ErrMax= 1.70D-04 EMaxC= 1.00D-01 BMatC= 3.82D-06 BMatP= 3.08D-05
 IDIUse=3 WtCom= 9.98D-01 WtEn= 1.70D-03
 Coeff-Com: -0.260D-03 0.295D-02 0.137D-01 0.126D-01-0.133D+00-0.194D+00
 Coeff-Com:  0.130D+01
 Coeff-En:   0.000D+00 0.000D+00 0.000D+00 0.000D+00 0.000D+00 0.000D+00
 Coeff-En:   0.100D+01
 Coeff:     -0.259D-03 0.294D-02 0.136D-01 0.126D-01-0.133D+00-0.193D+00
 Coeff:      0.130D+01
 Gap=     0.391 Goal=   None    Shift=    0.000
 RMSDP=2.14D-05 MaxDP=7.50D-04 DE=-1.00D-04 OVMax= 1.67D-03

 Cycle   8  Pass 0  IDiag  1:
 RMSU=  6.12D-06    CP:  9.68D-01  9.05D-01  9.33D-01  8.50D-01  1.48D+00
                    CP:  1.41D+00  1.46D+00
 E= -1900.97874102752     Delta-E=       -0.000016959909 Rises=F Damp=F
 DIIS: error= 4.87D-05 at cycle   8 NSaved=   8.
 NSaved= 8 IEnMin= 8 EnMin= -1900.97874102752     IErMin= 8 ErrMin= 4.87D-05
 ErrMax= 4.87D-05 EMaxC= 1.00D-01 BMatC= 8.71D-07 BMatP= 3.82D-06
 IDIUse=1 WtCom= 1.00D+00 WtEn= 0.00D+00
 Coeff-Com: -0.561D-03 0.247D-02 0.155D-01 0.329D-01-0.581D-01-0.275D+00
 Coeff-Com:  0.322D+00 0.960D+00
 Coeff:     -0.561D-03 0.247D-02 0.155D-01 0.329D-01-0.581D-01-0.275D+00
 Coeff:      0.322D+00 0.960D+00
 Gap=     0.391 Goal=   None    Shift=    0.000
 RMSDP=8.43D-06 MaxDP=2.28D-04 DE=-1.70D-05 OVMax= 6.96D-04

 Initial convergence to 1.0D-05 achieved.  Increase integral accuracy.
 Cycle   9  Pass 1  IDiag  1:
 E= -1900.97875211534     Delta-E=       -0.000011087819 Rises=F Damp=F
 DIIS: error= 7.25D-05 at cycle   1 NSaved=   1.
 NSaved= 1 IEnMin= 1 EnMin= -1900.97875211534     IErMin= 1 ErrMin= 7.25D-05
 ErrMax= 7.25D-05 EMaxC= 1.00D-01 BMatC= 1.92D-06 BMatP= 1.92D-06
 IDIUse=1 WtCom= 1.00D+00 WtEn= 0.00D+00
 Coeff-Com:  0.100D+01
 Coeff:      0.100D+01
 Gap=     0.391 Goal=   None    Shift=    0.000
 RMSDP=8.43D-06 MaxDP=2.28D-04 DE=-1.11D-05 OVMax= 1.87D-04

 Cycle  10  Pass 1  IDiag  1:
 RMSU=  3.96D-05    CP:  1.00D+00
 E= -1900.97875423008     Delta-E=       -0.000002114741 Rises=F Damp=F
 DIIS: error= 1.09D-05 at cycle   2 NSaved=   2.
 NSaved= 2 IEnMin= 2 EnMin= -1900.97875423008     IErMin= 2 ErrMin= 1.09D-05
 ErrMax= 1.09D-05 EMaxC= 1.00D-01 BMatC= 4.50D-08 BMatP= 1.92D-06
 IDIUse=1 WtCom= 1.00D+00 WtEn= 0.00D+00
 Coeff-Com: -0.369D-01 0.104D+01
 Coeff:     -0.369D-01 0.104D+01
 Gap=     0.391 Goal=   None    Shift=    0.000
 RMSDP=3.34D-06 MaxDP=5.30D-05 DE=-2.11D-06 OVMax= 1.12D-04

 Cycle  11  Pass 1  IDiag  1:
 RMSU=  1.10D-06    CP:  1.00D+00  1.05D+00
 E= -1900.97875436481     Delta-E=       -0.000000134727 Rises=F Damp=F
 DIIS: error= 8.68D-06 at cycle   3 NSaved=   3.
 NSaved= 3 IEnMin= 3 EnMin= -1900.97875436481     IErMin= 3 ErrMin= 8.68D-06
 ErrMax= 8.68D-06 EMaxC= 1.00D-01 BMatC= 2.10D-08 BMatP= 4.50D-08
 IDIUse=1 WtCom= 1.00D+00 WtEn= 0.00D+00
 Coeff-Com: -0.259D-01 0.305D+00 0.721D+00
 Coeff:     -0.259D-01 0.305D+00 0.721D+00
 Gap=     0.391 Goal=   None    Shift=    0.000
 RMSDP=6.54D-07 MaxDP=1.71D-05 DE=-1.35D-07 OVMax= 5.49D-05

 Cycle  12  Pass 1  IDiag  1:
 RMSU=  4.48D-07    CP:  1.00D+00  1.05D+00  1.07D+00
 E= -1900.97875441075     Delta-E=       -0.000000045946 Rises=F Damp=F
 DIIS: error= 5.38D-06 at cycle   4 NSaved=   4.
 NSaved= 4 IEnMin= 4 EnMin= -1900.97875441075     IErMin= 4 ErrMin= 5.38D-06
 ErrMax= 5.38D-06 EMaxC= 1.00D-01 BMatC= 6.86D-09 BMatP= 2.10D-08
 IDIUse=1 WtCom= 1.00D+00 WtEn= 0.00D+00
 Coeff-Com:  0.278D-01-0.655D+00-0.265D+00 0.189D+01
 Coeff:      0.278D-01-0.655D+00-0.265D+00 0.189D+01
 Gap=     0.391 Goal=   None    Shift=    0.000
 RMSDP=1.16D-06 MaxDP=2.40D-05 DE=-4.59D-08 OVMax= 1.23D-04

 Cycle  13  Pass 1  IDiag  1:
 RMSU=  3.47D-07    CP:  1.00D+00  1.06D+00  1.61D+00  1.99D+00
 E= -1900.97875445562     Delta-E=       -0.000000044865 Rises=F Damp=F
 DIIS: error= 1.33D-06 at cycle   5 NSaved=   5.
 NSaved= 5 IEnMin= 5 EnMin= -1900.97875445562     IErMin= 5 ErrMin= 1.33D-06
 ErrMax= 1.33D-06 EMaxC= 1.00D-01 BMatC= 3.88D-10 BMatP= 6.86D-09
 IDIUse=1 WtCom= 1.00D+00 WtEn= 0.00D+00
 Coeff-Com:  0.744D-02-0.150D+00-0.100D+00 0.357D+00 0.886D+00
 Coeff:      0.744D-02-0.150D+00-0.100D+00 0.357D+00 0.886D+00
 Gap=     0.391 Goal=   None    Shift=    0.000
 RMSDP=1.81D-07 MaxDP=4.09D-06 DE=-4.49D-08 OVMax= 1.77D-05

 Cycle  14  Pass 1  IDiag  1:
 RMSU=  6.72D-08    CP:  1.00D+00  1.06D+00  1.65D+00  2.16D+00  1.18D+00
 E= -1900.97875445704     Delta-E=       -0.000000001424 Rises=F Damp=F
 DIIS: error= 5.39D-07 at cycle   6 NSaved=   6.
 NSaved= 6 IEnMin= 6 EnMin= -1900.97875445704     IErMin= 6 ErrMin= 5.39D-07
 ErrMax= 5.39D-07 EMaxC= 1.00D-01 BMatC= 7.99D-11 BMatP= 3.88D-10
 IDIUse=1 WtCom= 1.00D+00 WtEn= 0.00D+00
 Coeff-Com: -0.417D-02 0.101D+00 0.431D-01-0.316D+00 0.124D+00 0.105D+01
 Coeff:     -0.417D-02 0.101D+00 0.431D-01-0.316D+00 0.124D+00 0.105D+01
 Gap=     0.391 Goal=   None    Shift=    0.000
 RMSDP=8.16D-08 MaxDP=1.59D-06 DE=-1.42D-09 OVMax= 8.21D-06

 Cycle  15  Pass 1  IDiag  1:
 RMSU=  3.23D-08    CP:  1.00D+00  1.06D+00  1.66D+00  2.21D+00  1.28D+00
                    CP:  1.21D+00
 E= -1900.97875445727     Delta-E=       -0.000000000232 Rises=F Damp=F
 DIIS: error= 1.99D-07 at cycle   7 NSaved=   7.
 NSaved= 7 IEnMin= 7 EnMin= -1900.97875445727     IErMin= 7 ErrMin= 1.99D-07
 ErrMax= 1.99D-07 EMaxC= 1.00D-01 BMatC= 8.51D-12 BMatP= 7.99D-11
 IDIUse=1 WtCom= 1.00D+00 WtEn= 0.00D+00
 Coeff-Com: -0.749D-03 0.142D-01 0.146D-01-0.375D-01-0.114D+00-0.630D-01
 Coeff-Com:  0.119D+01
 Coeff:     -0.749D-03 0.142D-01 0.146D-01-0.375D-01-0.114D+00-0.630D-01
 Coeff:      0.119D+01
 Gap=     0.391 Goal=   None    Shift=    0.000
 RMSDP=2.94D-08 MaxDP=7.55D-07 DE=-2.32D-10 OVMax= 3.13D-06

 Cycle  16  Pass 1  IDiag  1:
 RMSU=  1.06D-08    CP:  1.00D+00  1.06D+00  1.66D+00  2.22D+00  1.30D+00
                    CP:  1.37D+00  1.34D+00
 E= -1900.97875445729     Delta-E=       -0.000000000016 Rises=F Damp=F
 DIIS: error= 6.31D-08 at cycle   8 NSaved=   8.
 NSaved= 8 IEnMin= 8 EnMin= -1900.97875445729     IErMin= 8 ErrMin= 6.31D-08
 ErrMax= 6.31D-08 EMaxC= 1.00D-01 BMatC= 1.80D-12 BMatP= 8.51D-12
 IDIUse=1 WtCom= 1.00D+00 WtEn= 0.00D+00
 Coeff-Com:  0.424D-03-0.114D-01-0.116D-02 0.369D-01-0.507D-01-0.188D+00
 Coeff-Com:  0.367D+00 0.847D+00
 Coeff:      0.424D-03-0.114D-01-0.116D-02 0.369D-01-0.507D-01-0.188D+00
 Coeff:      0.367D+00 0.847D+00
 Gap=     0.391 Goal=   None    Shift=    0.000
 RMSDP=9.34D-09 MaxDP=2.25D-07 DE=-1.64D-11 OVMax= 9.03D-07

 SCF Done:  E(RHF) =  -1900.97875446     A.U. after   16 cycles
             Convg  =    0.9336D-08             -V/T =  2.0002
 KE= 1.900595019577D+03 PE=-1.115080632266D+04 EE= 4.004578803343D+03
 Leave Link  502 at Sat Aug 27 04:00:19 2022, MaxMem=  209715200 cpu:     661.7
 (Enter /opt/gaussian/l601.exe)
 Copying SCF densities to generalized density rwf, IOpCl= 0 IROHF=0.

 **********************************************************************

            Population analysis using the SCF density.

 **********************************************************************

 Orbital symmetries:
       Occupied  (A) (A) (A) (A) (A) (A) (A) (A) (A) (A) (A) (A)
                 (A) (A) (A) (A) (A) (A) (A) (A) (A) (A) (A) (A)
                 (A) (A) (A) (A) (A) (A) (A) (A) (A) (A) (A) (A)
                 (A) (A) (A) (A) (A) (A) (A) (A) (A) (A) (A) (A)
                 (A) (A) (A) (A) (A) (A) (A) (A) (A) (A) (A) (A)
                 (A) (A) (A) (A) (A) (A) (A) (A) (A) (A) (A) (A)
                 (A) (A) (A) (A) (A) (A) (A) (A) (A) (A) (A) (A)
                 (A) (A) (A) (A) (A) (A) (A) (A) (A) (A) (A) (A)
                 (A) (A) (A) (A) (A) (A) (A) (A) (A) (A) (A) (A)
                 (A) (A) (A) (A) (A) (A) (A) (A) (A) (A) (A) (A)
                 (A) (A)
       Virtual   (A) (A) (A) (A) (A) (A) (A) (A) (A) (A) (A) (A)
                 (A) (A) (A) (A) (A) (A) (A) (A) (A) (A) (A) (A)
                 (A) (A) (A) (A) (A) (A) (A) (A) (A) (A) (A) (A)
                 (A) (A) (A) (A) (A) (A) (A) (A) (A) (A) (A) (A)
                 (A) (A) (A) (A) (A) (A) (A) (A) (A) (A) (A) (A)
                 (A) (A) (A) (A) (A) (A) (A) (A) (A) (A) (A) (A)
                 (A) (A) (A) (A) (A) (A) (A) (A) (A) (A) (A) (A)
                 (A) (A) (A) (A) (A) (A) (A) (A) (A) (A) (A) (A)
                 (A) (A) (A) (A) (A) (A) (A) (A) (A) (A) (A) (A)
                 (A) (A) (A) (A) (A) (A) (A) (A) (A) (A) (A) (A)
                 (A) (A) (A) (A) (A) (A) (A) (A) (A) (A) (A) (A)
                 (A) (A) (A) (A) (A) (A) (A) (A) (A) (A) (A) (A)
                 (A) (A) (A) (A) (A) (A) (A) (A) (A) (A) (A) (A)
                 (A) (A) (A) (A) (A) (A) (A) (A) (A) (A) (A) (A)
                 (A) (A) (A) (A) (A) (A) (A) (A) (A) (A) (A) (A)
                 (A) (A) (A) (A) (A) (A) (A) (A) (A) (A) (A) (A)
                 (A) (A) (A) (A) (A) (A) (A) (A) (A) (A) (A) (A)
                 (A) (A) (A) (A) (A) (A) (A) (A) (A) (A) (A) (A)
                 (A) (A) (A) (A) (A) (A) (A) (A) (A) (A)
 The electronic state is 1-A.
 Alpha  occ. eigenvalues -- -104.84713 -26.33383 -20.56188 -15.67519 -15.66140
 Alpha  occ. eigenvalues --  -15.62867 -15.62708 -15.58583 -11.40248 -11.38009
 Alpha  occ. eigenvalues --  -11.34898 -11.33545 -11.32560 -11.31065 -11.30785
 Alpha  occ. eigenvalues --  -11.30234 -11.29316 -11.29037 -11.29021 -11.28980
 Alpha  occ. eigenvalues --  -11.28637 -11.28531 -11.27404 -11.27018 -11.26933
 Alpha  occ. eigenvalues --  -11.26759 -11.26740 -11.26712 -11.26548 -11.26252
 Alpha  occ. eigenvalues --  -11.26214 -11.26189 -11.25968 -11.25399 -10.58933
 Alpha  occ. eigenvalues --   -8.05807  -8.05348  -8.05338  -1.65124  -1.46810
 Alpha  occ. eigenvalues --   -1.41757  -1.29509  -1.27377  -1.24956  -1.23657
 Alpha  occ. eigenvalues --   -1.18154  -1.17407  -1.16603  -1.11240  -1.08526
 Alpha  occ. eigenvalues --   -1.06732  -1.05373  -1.04961  -1.04013  -1.03560
 Alpha  occ. eigenvalues --   -1.02683  -1.00531  -0.97595  -0.89843  -0.88717
 Alpha  occ. eigenvalues --   -0.87824  -0.87418  -0.86010  -0.85039  -0.84279
 Alpha  occ. eigenvalues --   -0.83621  -0.80795  -0.77547  -0.75120  -0.74682
 Alpha  occ. eigenvalues --   -0.73378  -0.72365  -0.72044  -0.71810  -0.71266
 Alpha  occ. eigenvalues --   -0.71177  -0.70050  -0.68695  -0.68163  -0.66608
 Alpha  occ. eigenvalues --   -0.65815  -0.64862  -0.64154  -0.63432  -0.63194
 Alpha  occ. eigenvalues --   -0.62848  -0.62458  -0.62248  -0.61801  -0.60832
 Alpha  occ. eigenvalues --   -0.60467  -0.60076  -0.58553  -0.57740  -0.57217
 Alpha  occ. eigenvalues --   -0.56335  -0.55777  -0.55044  -0.54500  -0.54107
 Alpha  occ. eigenvalues --   -0.53627  -0.53309  -0.51818  -0.51374  -0.51120
 Alpha  occ. eigenvalues --   -0.50757  -0.50012  -0.49102  -0.48034  -0.45994
 Alpha  occ. eigenvalues --   -0.43130  -0.42522  -0.41820  -0.40991  -0.39205
 Alpha  occ. eigenvalues --   -0.37548  -0.36930  -0.36630  -0.35659  -0.34109
 Alpha  occ. eigenvalues --   -0.32915  -0.31071
 Alpha virt. eigenvalues --    0.08036   0.09015   0.09173   0.09541   0.11187
 Alpha virt. eigenvalues --    0.12166   0.13864   0.14600   0.16686   0.18341
 Alpha virt. eigenvalues --    0.18825   0.19708   0.21645   0.22542   0.23355
 Alpha virt. eigenvalues --    0.23675   0.24180   0.25511   0.26268   0.27738
 Alpha virt. eigenvalues --    0.27887   0.28126   0.28801   0.29430   0.30507
 Alpha virt. eigenvalues --    0.30915   0.31233   0.31305   0.31990   0.32378
 Alpha virt. eigenvalues --    0.32783   0.34065   0.34912   0.35432   0.36143
 Alpha virt. eigenvalues --    0.36278   0.37183   0.38630   0.38726   0.39494
 Alpha virt. eigenvalues --    0.39997   0.40603   0.42178   0.42772   0.43264
 Alpha virt. eigenvalues --    0.43334   0.45010   0.45925   0.47140   0.48203
 Alpha virt. eigenvalues --    0.48716   0.49849   0.50577   0.50905   0.51738
 Alpha virt. eigenvalues --    0.52067   0.53540   0.54473   0.55849   0.55999
 Alpha virt. eigenvalues --    0.56628   0.57930   0.59669   0.59676   0.61497
 Alpha virt. eigenvalues --    0.62524   0.63045   0.63636   0.65160   0.69080
 Alpha virt. eigenvalues --    0.69466   0.70127   0.70866   0.71635   0.71899
 Alpha virt. eigenvalues --    0.72422   0.73297   0.73818   0.75316   0.75817
 Alpha virt. eigenvalues --    0.76066   0.76274   0.76468   0.77258   0.77397
 Alpha virt. eigenvalues --    0.78947   0.79066   0.79493   0.80460   0.80795
 Alpha virt. eigenvalues --    0.81721   0.82490   0.82753   0.82853   0.83006
 Alpha virt. eigenvalues --    0.83268   0.83844   0.84092   0.84183   0.85072
 Alpha virt. eigenvalues --    0.85221   0.85410   0.85542   0.85715   0.85891
 Alpha virt. eigenvalues --    0.86472   0.87091   0.87156   0.87517   0.88579
 Alpha virt. eigenvalues --    0.88830   0.89742   0.90166   0.90553   0.91412
 Alpha virt. eigenvalues --    0.91745   0.92398   0.93313   0.94303   0.94491
 Alpha virt. eigenvalues --    0.94659   0.95152   0.95989   0.96367   0.96879
 Alpha virt. eigenvalues --    0.97342   0.99211   0.99876   1.00663   1.01075
 Alpha virt. eigenvalues --    1.02221   1.03464   1.04243   1.05650   1.06168
 Alpha virt. eigenvalues --    1.08261   1.08900   1.08988   1.09385   1.09536
 Alpha virt. eigenvalues --    1.10083   1.10669   1.11014   1.11334   1.11598
 Alpha virt. eigenvalues --    1.12216   1.12598   1.12819   1.13790   1.14040
 Alpha virt. eigenvalues --    1.14500   1.15221   1.15578   1.16241   1.16814
 Alpha virt. eigenvalues --    1.17504   1.18082   1.19363   1.19963   1.21545
 Alpha virt. eigenvalues --    1.21764   1.22375   1.23639   1.23749   1.25108
 Alpha virt. eigenvalues --    1.25755   1.26430   1.27184   1.28572   1.28997
 Alpha virt. eigenvalues --    1.29192   1.30199   1.30408   1.31971   1.32972
 Alpha virt. eigenvalues --    1.34237   1.34961   1.36835   1.37176   1.37616
 Alpha virt. eigenvalues --    1.38524   1.38993   1.39478   1.41138   1.41673
 Alpha virt. eigenvalues --    1.41892   1.42816   1.44143   1.44875   1.46585
 Alpha virt. eigenvalues --    1.48345   1.49349   1.50669   1.51681   1.52421
 Alpha virt. eigenvalues --    1.53952   1.55065   1.56341   1.58041   1.58095
 Alpha virt. eigenvalues --    1.60302   1.63018   1.64662   1.65476   1.68012
 Alpha virt. eigenvalues --    1.69102   1.70069   1.70599   1.70961   1.72971
 Alpha virt. eigenvalues --    1.73465   1.77534   1.79917   1.83632   1.86630
 Alpha virt. eigenvalues --    1.87619   1.98908   2.00896   2.02287   2.07901
 Alpha virt. eigenvalues --    2.09196   2.10829   2.18393   2.21238   2.28943
 Alpha virt. eigenvalues --    2.66510
          Condensed to atoms (all electrons):
 Mulliken atomic charges:
              1
     1  F   -0.438738
     2  C    0.420229
     3  C   -0.173710
     4  C   -0.374155
     5  C   -0.138440
     6  C    0.001569
     7  C   -0.256058
     8  C   -0.143922
     9  N   -0.960420
    10  C    0.810973
    11  O   -0.571836
    12  C   -0.146471
    13  N   -0.798803
    14  N    0.115893
    15  N   -0.312097
    16  C    0.031075
    17  C   -0.102583
    18  C   -0.234759
    19  C   -0.200010
    20  C   -0.115626
    21  C    0.396026
    22  C    0.296552
    23  C   -0.188031
    24  C   -0.200841
    25  C   -0.020015
    26  C   -0.207982
    27  C   -0.155718
    28  C   -0.091566
    29  C   -0.140642
    30  C   -0.247309
    31  C    0.050321
    32  N   -0.528614
    33  C    0.057651
    34  Cl   0.186216
    35  H    0.264281
    36  H    0.273974
    37  H    0.243837
    38  H    0.189767
    39  H    0.230690
    40  H    0.233165
    41  H    0.242052
    42  H    0.247684
    43  H    0.210555
    44  H    0.212984
    45  H    0.224025
    46  H    0.220510
    47  H    0.222564
    48  H    0.231298
    49  H    0.247948
    50  H    0.226320
    51  H    0.218572
    52  H    0.213957
    53  H    0.227659
 Sum of Mulliken atomic charges =   0.00000
 Mulliken charges with hydrogens summed into heavy atoms:
              1
     1  F   -0.438738
     2  C    0.420229
     3  C    0.090571
     4  C   -0.374155
     5  C    0.135535
     6  C    0.001569
     7  C   -0.012221
     8  C    0.276535
     9  N   -0.960420
    10  C    0.810973
    11  O   -0.571836
    12  C    0.328746
    13  N   -0.798803
    14  N    0.115893
    15  N   -0.312097
    16  C    0.031075
    17  C    0.145101
    18  C   -0.024204
    19  C    0.012974
    20  C    0.108399
    21  C    0.396026
    22  C    0.296552
    23  C    0.032479
    24  C    0.021723
    25  C   -0.020015
    26  C    0.023316
    27  C    0.092230
    28  C   -0.091566
    29  C    0.085678
    30  C   -0.028737
    31  C    0.264277
    32  N   -0.528614
    33  C    0.285310
    34  Cl   0.186216
 Sum of Mulliken charges with hydrogens summed into heavy atoms =   0.00000
 Electronic spatial extent (au):  <R**2>=          21314.3288
 Charge=              0.0000 electrons
 Dipole moment (field-independent basis, Debye):
    X=              0.3703    Y=              6.5763    Z=             -2.1113  Tot=              6.9169
 Quadrupole moment (field-independent basis, Debye-Ang):
   XX=           -195.0793   YY=           -238.6169   ZZ=           -198.2920
   XY=              7.1332   XZ=            -30.9430   YZ=             -9.2211
 Traceless Quadrupole moment (field-independent basis, Debye-Ang):
   XX=             15.5834   YY=            -27.9541   ZZ=             12.3707
   XY=              7.1332   XZ=            -30.9430   YZ=             -9.2211
 Octapole moment (field-independent basis, Debye-Ang**2):
  XXX=             63.5348  YYY=             90.5240  ZZZ=            -27.7997  XYY=            -12.0214
  XXY=             57.4256  XXZ=            -26.1632  XZZ=            -42.4448  YZZ=             29.2037
  YYZ=             57.0717  XYZ=             54.3336
 Hexadecapole moment (field-independent basis, Debye-Ang**3):
 XXXX=         -18133.6322 YYYY=          -8010.8011 ZZZZ=          -2289.9877 XXXY=            709.2916
 XXXZ=          -1256.2274 YYYX=             22.6380 YYYZ=            -84.4096 ZZZX=           -132.0930
 ZZZY=            -44.7511 XXYY=          -4960.9034 XXZZ=          -3701.7970 YYZZ=          -1773.2746
 XXYZ=            -39.1430 YYXZ=           -395.2862 ZZXY=             38.8994
 N-N= 3.344653745280D+03 E-N=-1.115080632676D+04  KE= 1.900595019577D+03
 No NMR shielding tensors so no spin-rotation constants.
 Leave Link  601 at Sat Aug 27 04:00:20 2022, MaxMem=  209715200 cpu:       1.5
 (Enter /opt/gaussian/l701.exe)
 Compute integral first derivatives.
 ... and contract with generalized density number  0.
 Leave Link  701 at Sat Aug 27 04:00:20 2022, MaxMem=  209715200 cpu:       1.4
 (Enter /opt/gaussian/l702.exe)
 L702 exits ... SP integral derivatives will be done elsewhere.
 Leave Link  702 at Sat Aug 27 04:00:20 2022, MaxMem=  209715200 cpu:       0.2
 (Enter /opt/gaussian/l703.exe)
 Compute integral first derivatives, UseDBF=F ICtDFT=           0.
 Integral derivatives from FoFDir, PRISM(SPDF).
 Calling FoFJK, ICntrl=      2127 FMM=F ISym2X=0 I1Cent= 0 IOpClX= 0 NMat=1 NMatS=1 NMatT=0.
 FoFCou: FMM=F IPFlag=           0 FMFlag=      100000 FMFlg1=         800
         NFxFlg=           0 DoJE=F BraDBF=F KetDBF=F FulRan=T
         Omega=  0.000000  0.000000  1.000000  0.000000  0.000000 ICntrl=    2127 IOpCl=  0
         NMat0=    1 NMatS0=    1 NMatT0=    0 NMatD0=    1 NMtDS0=    0 NMtDT0=    0
         I1Cent=           0 NGrid=           0.
 Symmetry not used in FoFCou.
 Leave Link  703 at Sat Aug 27 04:00:53 2022, MaxMem=  209715200 cpu:     263.6
 (Enter /opt/gaussian/l716.exe)
 Dipole        = 1.45669156D-01 2.58733493D+00-8.30647586D-01
 ***** Axes restored to original set *****
 -------------------------------------------------------------------
 Center     Atomic                   Forces (Hartrees/Bohr)
 Number     Number              X              Y              Z
 -------------------------------------------------------------------
      1        9           0.007559434   -0.003277894   -0.001250586
      2        6          -0.043561290    0.018218274    0.010797371
      3        6           0.016330402   -0.005551929   -0.008430939
      4        6           0.024892399    0.009644326   -0.062055131
      5        6          -0.005518572    0.001340663    0.007004380
      6        6           0.008100136   -0.005648529    0.007772910
      7        6           0.018295184   -0.010921344    0.001834305
      8        6           0.003504058   -0.019921403   -0.044205144
      9        7           0.010857930    0.017494698    0.013625026
     10        6          -0.022082677    0.017228597    0.007964365
     11        8           0.021123672   -0.024477211   -0.018792774
     12        6           0.007381580   -0.021702072   -0.019770202
     13        7           0.006968731    0.020142849    0.051098200
     14        7          -0.004003962   -0.013974684   -0.011036240
     15        7           0.012794656   -0.001079962    0.028825648
     16        6          -0.011379476   -0.047457979   -0.006113776
     17        6          -0.001415762    0.010198641   -0.006424413
     18        6           0.006543968    0.012243069    0.007475650
     19        6           0.002865171   -0.008344740    0.010084445
     20        6          -0.003979974   -0.010506778   -0.001868535
     21        6           0.000375746    0.036111388   -0.028842766
     22        6          -0.027400149    0.006723586    0.004720039
     23        6           0.010992782    0.000504654   -0.001397145
     24        6          -0.004865755   -0.003978726   -0.005846789
     25        6           0.018995120    0.000625608   -0.003497487
     26        6          -0.000972255    0.002175517    0.007354649
     27        6           0.011286793    0.002479973    0.000169214
     28        6          -0.027467457    0.006986546    0.010431018
     29        6          -0.000780148   -0.002646376   -0.002921286
     30        6          -0.006877025    0.003588096    0.003444371
     31        6          -0.013157637   -0.000941023    0.001514239
     32        7           0.009518792   -0.019053465   -0.016249743
     33        6           0.005194733    0.005278401    0.003954321
     34       17          -0.022521313   -0.007105033    0.051435637
     35        1          -0.010789501    0.011510142   -0.014689012
     36        1           0.021782166   -0.010749338   -0.003803255
     37        1          -0.007531005   -0.002635772    0.018266438
     38        1          -0.020376089   -0.010764017    0.020701675
     39        1           0.022712457    0.022372676    0.006939951
     40        1          -0.014095502    0.018830849   -0.020452731
     41        1           0.001666025    0.007270305    0.030684443
     42        1          -0.002580222   -0.019515411    0.003364063
     43        1          -0.010206446   -0.011473903   -0.013171115
     44        1          -0.006603475    0.007188320   -0.017169608
     45        1           0.002632113    0.017717358   -0.001655308
     46        1          -0.004060832    0.005850294    0.018756570
     47        1           0.014277394    0.005664231    0.014073269
     48        1           0.007409095   -0.006110601   -0.019008805
     49        1          -0.014093855   -0.006494715   -0.017242130
     50        1          -0.007377895    0.013207503    0.012960111
     51        1           0.011610049    0.012637388    0.008139353
     52        1           0.023320469   -0.002854795   -0.005390640
     53        1          -0.015292782   -0.016046254   -0.012106101
 -------------------------------------------------------------------
 Cartesian Forces:  Max     0.062055131 RMS     0.016130385
 Leave Link  716 at Sat Aug 27 04:00:53 2022, MaxMem=  209715200 cpu:       0.2
 (Enter /opt/gaussian/l103.exe)

 GradGradGradGradGradGradGradGradGradGradGradGradGradGradGradGradGradGrad
 Berny optimization.
 Internal  Forces:  Max     0.056595844 RMS     0.010091688
 Search for a local minimum.
 Step number   1 out of a maximum of  297
 All quantities printed in internal units (Hartrees-Bohrs-Radians)
 RMS Force = .10092D-01 SwitMx=.10000D-02 MixMth= 1
 Mixed Optimization -- RFO/linear search
 Second derivative matrix not updated -- first step.
 ITU=  0
     Eigenvalues ---    0.00245   0.00675   0.00817   0.01129   0.01191
     Eigenvalues ---    0.01337   0.01363   0.01416   0.01551   0.01583
     Eigenvalues ---    0.01629   0.01688   0.01722   0.01772   0.01774
     Eigenvalues ---    0.01777   0.01849   0.01976   0.01986   0.02003
     Eigenvalues ---    0.02030   0.02051   0.02056   0.02064   0.02067
     Eigenvalues ---    0.02073   0.02079   0.02080   0.02095   0.02096
     Eigenvalues ---    0.02108   0.02111   0.02113   0.02118   0.02124
     Eigenvalues ---    0.02126   0.02131   0.02132   0.02133   0.02144
     Eigenvalues ---    0.02151   0.02158   0.02185   0.02186   0.02189
     Eigenvalues ---    0.02320   0.04737   0.04802   0.06489   0.06552
     Eigenvalues ---    0.10312   0.10583   0.13469   0.13629   0.15986
     Eigenvalues ---    0.15995   0.15998   0.15999   0.15999   0.16000
     Eigenvalues ---    0.16000   0.16000   0.16000   0.16000   0.16000
     Eigenvalues ---    0.16000   0.16000   0.16000   0.16000   0.21999
     Eigenvalues ---    0.22000   0.22001   0.22076   0.22143   0.22581
     Eigenvalues ---    0.22961   0.23196   0.23417   0.23443   0.23479
     Eigenvalues ---    0.23487   0.23501   0.23998   0.24454   0.24664
     Eigenvalues ---    0.24679   0.24754   0.24965   0.24974   0.24989
     Eigenvalues ---    0.24994   0.24994   0.24996   0.25000   0.25000
     Eigenvalues ---    0.25000   0.28571   0.30462   0.30598   0.30622
     Eigenvalues ---    0.30728   0.31663   0.33062   0.33169   0.33334
     Eigenvalues ---    0.33440   0.33537   0.33555   0.33559   0.33600
     Eigenvalues ---    0.33618   0.33656   0.33669   0.33693   0.33761
     Eigenvalues ---    0.33943   0.34013   0.35021   0.36183   0.37368
     Eigenvalues ---    0.38341   0.39242   0.39880   0.40480   0.40964
     Eigenvalues ---    0.41320   0.41612   0.41739   0.41932   0.41971
     Eigenvalues ---    0.42816   0.43171   0.43418   0.44011   0.44585
     Eigenvalues ---    0.44765   0.44942   0.45380   0.45568   0.45756
     Eigenvalues ---    0.46012   0.46055   0.46059   0.46315   0.46881
     Eigenvalues ---    0.46947   0.47275   0.48140   0.53793   0.54234
     Eigenvalues ---    0.55182   0.77233   0.87097
 RFO step:  Lambda=-6.86213185D-02 EMin= 2.44552591D-03
 Linear search not attempted -- first point.
 Maximum step size (   0.300) exceeded in Quadratic search.
    -- Step size scaled by   0.745
 Iteration  1 RMS(Cart)=  0.07029973 RMS(Int)=  0.00058461
 Iteration  2 RMS(Cart)=  0.00149917 RMS(Int)=  0.00007093
 Iteration  3 RMS(Cart)=  0.00000122 RMS(Int)=  0.00007093
 Iteration  4 RMS(Cart)=  0.00000000 RMS(Int)=  0.00007093
 Variable       Old X    -DE/DX   Delta X   Delta X   Delta X     New X
                                 (Linear)    (Quad)   (Total)
    R1        2.55819   0.00832   0.00000   0.01015   0.01015   2.56834
    R2        2.65798  -0.03024   0.00000  -0.04484  -0.04480   2.61318
    R3        2.65775  -0.02812   0.00000  -0.04140  -0.04136   2.61639
    R4        2.63707  -0.01356   0.00000  -0.01929  -0.01930   2.61778
    R5        2.07914  -0.02155   0.00000  -0.03965  -0.03965   2.03950
    R6        2.64243  -0.01478   0.00000  -0.02024  -0.02028   2.62215
    R7        3.20796   0.05660   0.00000   0.09799   0.09799   3.30596
    R8        2.64049  -0.00701   0.00000  -0.00891  -0.00895   2.63154
    R9        2.08469  -0.02452   0.00000  -0.04546  -0.04546   2.03923
   R10        2.63862  -0.00835   0.00000  -0.01138  -0.01138   2.62724
   R11        2.84765   0.01096   0.00000   0.02121   0.02121   2.86886
   R12        2.07892  -0.01991   0.00000  -0.03662  -0.03662   2.04230
   R13        2.72597   0.01975   0.00000   0.03192   0.03192   2.75789
   R14        2.13441  -0.03034   0.00000  -0.06032  -0.06032   2.07409
   R15        2.13752  -0.03233   0.00000  -0.06456  -0.06456   2.07297
   R16        2.64622  -0.01813   0.00000  -0.02577  -0.02577   2.62045
   R17        2.69256   0.00972   0.00000   0.01491   0.01491   2.70747
   R18        2.34301  -0.03663   0.00000  -0.02906  -0.02906   2.31395
   R19        2.90907  -0.01403   0.00000  -0.02951  -0.02951   2.87956
   R20        2.71717  -0.01055   0.00000  -0.01683  -0.01683   2.70034
   R21        2.13236  -0.03080   0.00000  -0.06107  -0.06107   2.07129
   R22        2.13488  -0.03149   0.00000  -0.06266  -0.06266   2.07221
   R23        2.59808  -0.01052   0.00000  -0.01260  -0.01263   2.58546
   R24        2.67726  -0.03318   0.00000  -0.05100  -0.05100   2.62625
   R25        2.37064  -0.00295   0.00000  -0.00127  -0.00129   2.36935
   R26        2.70788  -0.02600   0.00000  -0.04061  -0.04059   2.66730
   R27        2.63522  -0.01166   0.00000  -0.01710  -0.01708   2.61814
   R28        2.73697  -0.04581   0.00000  -0.07937  -0.07930   2.65767
   R29        2.62826  -0.01086   0.00000  -0.01425  -0.01426   2.61399
   R30        2.07736  -0.01996   0.00000  -0.03663  -0.03663   2.04073
   R31        2.65353  -0.00696   0.00000  -0.00847  -0.00850   2.64502
   R32        2.08010  -0.02023   0.00000  -0.03726  -0.03726   2.04284
   R33        2.62827  -0.00985   0.00000  -0.01274  -0.01276   2.61551
[...]
 ! D135  D(52,31,32,33)        179.8959         -DE/DX =    0.0                 !
 ! D136  D(31,32,33,28)         -0.1964         -DE/DX =    0.0                 !
 ! D137  D(31,32,33,53)        178.7408         -DE/DX =    0.0                 !
 --------------------------------------------------------------------------------
 GradGradGradGradGradGradGradGradGradGradGradGradGradGradGradGradGradGrad

 Largest change from initial coordinates is atom   44       0.841 Angstoms.
 Leave Link  103 at Sat Aug 27 05:02:24 2022, MaxMem=  209715200 cpu:       0.8
 (Enter /opt/gaussian/l202.exe)
 Stoichiometry    C26H19ClFN5O
 Framework group  C1[X(C26H19ClFN5O)]
 Deg. of freedom   153
 Full point group                 C1      NOp   1
 RotChk:  IX=0 Diff= 1.89D-15
 Largest Abelian subgroup         C1      NOp   1
 Largest concise Abelian subgroup C1      NOp   1
                         Standard orientation:                         
 ---------------------------------------------------------------------
 Center     Atomic      Atomic             Coordinates (Angstroms)
 Number     Number       Type             X           Y           Z
 ---------------------------------------------------------------------
      1          9           0       -4.152436    4.492242   -1.049951
      2          6           0       -2.920433    4.004095   -0.702209
      3          6           0       -2.031316    4.857335   -0.090986
      4          6           0       -0.799804    4.334568    0.252018
      5          6           0       -0.461058    3.022318   -0.000409
      6          6           0       -1.385614    2.182467   -0.618844
      7          6           0       -2.633675    2.683139   -0.972429
      8          6           0       -1.036242    0.744419   -0.960154
      9          7           0       -0.397249   -0.014474    0.128400
     10          6           0       -1.098648   -0.543130    1.172062
     11          8           0       -0.560389   -1.148663    2.093766
     12          6           0       -2.615655   -0.406991    1.197298
     13          7           0       -3.255034   -1.353574    0.311704
     14          7           0       -3.993116   -0.918946   -0.751404
     15          7           0       -4.519794   -1.913265   -1.337836
     16          6           0       -4.157271   -3.071872   -0.671424
     17          6           0       -4.488161   -4.404797   -0.919639
     18          6           0       -3.972948   -5.346684   -0.064591
     19          6           0       -3.140338   -4.975568    1.016764
     20          6           0       -2.806030   -3.666688    1.269625
     21          6           0       -3.341000   -2.714580    0.395025
     22          6           0        1.019911   -0.249937    0.052077
     23          6           0        1.538805   -0.970900   -1.013640
     24          6           0        2.904274   -1.179515   -1.117629
     25          6           0        3.779439   -0.684171   -0.153080
     26          6           0        3.242545    0.024272    0.921093
     27          6           0        1.878871    0.240843    1.024610
     28          6           0        5.242163   -0.911206   -0.262287
     29          6           0        5.922667   -0.749797   -1.467381
     30          6           0        7.289250   -0.972766   -1.520213
     31          6           0        7.947462   -1.350355   -0.361541
     32          7           0        7.305868   -1.509322    0.794292
     33          6           0        5.994160   -1.299083    0.845309
     34         17           0        0.404542    5.412478    1.053553
     35          1           0       -2.293323    5.874787    0.105202
     36          1           0        0.507047    2.659903    0.273683
     37          1           0       -3.374549    2.063993   -1.437942
     38          1           0       -1.923081    0.233090   -1.296900
     39          1           0       -0.342558    0.742424   -1.787369
     40          1           0       -2.917297   -0.603153    2.214577
     41          1           0       -2.953855    0.575194    0.915860
     42          1           0       -5.119587   -4.665356   -1.744778
     43          1           0       -4.198408   -6.384193   -0.212378
     44          1           0       -2.754756   -5.744987    1.656852
     45          1           0       -2.158702   -3.390743    2.076842
     46          1           0        0.877569   -1.385764   -1.749802
     47          1           0        3.285517   -1.757385   -1.937007
     48          1           0        3.893809    0.426090    1.672360
     49          1           0        1.482847    0.773696    1.864929
     50          1           0        5.392941   -0.436298   -2.346067
     51          1           0        7.832085   -0.848357   -2.435647
     52          1           0        9.002580   -1.529615   -0.350934
     53          1           0        5.526690   -1.461761    1.794919
 ---------------------------------------------------------------------
 Rotational constants (GHZ):      0.1128598      0.0726956      0.0480489
 Leave Link  202 at Sat Aug 27 05:02:24 2022, MaxMem=  209715200 cpu:       0.0
 (Enter /opt/gaussian/l601.exe)
 Copying SCF densities to generalized density rwf, IOpCl= 0 IROHF=0.

 **********************************************************************

            Population analysis using the SCF density.

 **********************************************************************

 Orbital symmetries:
       Occupied  (A) (A) (A) (A) (A) (A) (A) (A) (A) (A) (A) (A)
                 (A) (A) (A) (A) (A) (A) (A) (A) (A) (A) (A) (A)
                 (A) (A) (A) (A) (A) (A) (A) (A) (A) (A) (A) (A)
                 (A) (A) (A) (A) (A) (A) (A) (A) (A) (A) (A) (A)
                 (A) (A) (A) (A) (A) (A) (A) (A) (A) (A) (A) (A)
                 (A) (A) (A) (A) (A) (A) (A) (A) (A) (A) (A) (A)
                 (A) (A) (A) (A) (A) (A) (A) (A) (A) (A) (A) (A)
                 (A) (A) (A) (A) (A) (A) (A) (A) (A) (A) (A) (A)
                 (A) (A) (A) (A) (A) (A) (A) (A) (A) (A) (A) (A)
                 (A) (A) (A) (A) (A) (A) (A) (A) (A) (A) (A) (A)
                 (A) (A)
       Virtual   (A) (A) (A) (A) (A) (A) (A) (A) (A) (A) (A) (A)
                 (A) (A) (A) (A) (A) (A) (A) (A) (A) (A) (A) (A)
                 (A) (A) (A) (A) (A) (A) (A) (A) (A) (A) (A) (A)
                 (A) (A) (A) (A) (A) (A) (A) (A) (A) (A) (A) (A)
                 (A) (A) (A) (A) (A) (A) (A) (A) (A) (A) (A) (A)
                 (A) (A) (A) (A) (A) (A) (A) (A) (A) (A) (A) (A)
                 (A) (A) (A) (A) (A) (A) (A) (A) (A) (A) (A) (A)
                 (A) (A) (A) (A) (A) (A) (A) (A) (A) (A) (A) (A)
                 (A) (A) (A) (A) (A) (A) (A) (A) (A) (A) (A) (A)
                 (A) (A) (A) (A) (A) (A) (A) (A) (A) (A) (A) (A)
                 (A) (A) (A) (A) (A) (A) (A) (A) (A) (A) (A) (A)
                 (A) (A) (A) (A) (A) (A) (A) (A) (A) (A) (A) (A)
                 (A) (A) (A) (A) (A) (A) (A) (A) (A) (A) (A) (A)
                 (A) (A) (A) (A) (A) (A) (A) (A) (A) (A) (A) (A)
                 (A) (A) (A) (A) (A) (A) (A) (A) (A) (A) (A) (A)
                 (A) (A) (A) (A) (A) (A) (A) (A) (A) (A) (A) (A)
                 (A) (A) (A) (A) (A) (A) (A) (A) (A) (A) (A) (A)
                 (A) (A) (A) (A) (A) (A) (A) (A) (A) (A) (A) (A)
                 (A) (A) (A) (A) (A) (A) (A) (A) (A) (A)
 The electronic state is 1-A.
 Alpha  occ. eigenvalues -- -104.83629 -26.31587 -20.55781 -15.68370 -15.67521
 Alpha  occ. eigenvalues --  -15.63256 -15.62766 -15.57944 -11.39555 -11.36291
 Alpha  occ. eigenvalues --  -11.34458 -11.31719 -11.31014 -11.30698 -11.30273
 Alpha  occ. eigenvalues --  -11.29373 -11.28303 -11.28234 -11.28229 -11.27981
 Alpha  occ. eigenvalues --  -11.27570 -11.27323 -11.27019 -11.26835 -11.26712
 Alpha  occ. eigenvalues --  -11.26571 -11.26408 -11.26206 -11.26021 -11.25792
 Alpha  occ. eigenvalues --  -11.25705 -11.25555 -11.25465 -11.25406 -10.57549
 Alpha  occ. eigenvalues --   -8.04399  -8.04004  -8.03988  -1.62908  -1.49281
 Alpha  occ. eigenvalues --   -1.42856  -1.29170  -1.28397  -1.26461  -1.22558
 Alpha  occ. eigenvalues --   -1.19152  -1.18502  -1.14364  -1.11524  -1.08604
 Alpha  occ. eigenvalues --   -1.07824  -1.07252  -1.06042  -1.04551  -1.03600
 Alpha  occ. eigenvalues --   -1.03404  -1.01434  -0.98437  -0.90282  -0.89710
 Alpha  occ. eigenvalues --   -0.88197  -0.86839  -0.86616  -0.85939  -0.84891
 Alpha  occ. eigenvalues --   -0.84411  -0.82692  -0.78725  -0.75323  -0.74588
 Alpha  occ. eigenvalues --   -0.74121  -0.73708  -0.73065  -0.71428  -0.71064
 Alpha  occ. eigenvalues --   -0.69956  -0.69536  -0.68866  -0.68672  -0.67174
 Alpha  occ. eigenvalues --   -0.66716  -0.66359  -0.64078  -0.64003  -0.63449
 Alpha  occ. eigenvalues --   -0.63307  -0.63084  -0.62376  -0.61198  -0.61104
 Alpha  occ. eigenvalues --   -0.60714  -0.60500  -0.59903  -0.58206  -0.57206
 Alpha  occ. eigenvalues --   -0.56353  -0.55694  -0.55540  -0.55154  -0.54717
 Alpha  occ. eigenvalues --   -0.54539  -0.52574  -0.52327  -0.51952  -0.51687
 Alpha  occ. eigenvalues --   -0.51261  -0.50760  -0.48081  -0.47034  -0.46947
 Alpha  occ. eigenvalues --   -0.44380  -0.43394  -0.42172  -0.40702  -0.39277
 Alpha  occ. eigenvalues --   -0.37485  -0.36968  -0.36638  -0.35813  -0.35256
 Alpha  occ. eigenvalues --   -0.33457  -0.32215
 Alpha virt. eigenvalues --    0.08086   0.08880   0.10061   0.10806   0.11676
 Alpha virt. eigenvalues --    0.12138   0.14039   0.14555   0.16299   0.16980
 Alpha virt. eigenvalues --    0.18728   0.23122   0.23563   0.24248   0.24941
 Alpha virt. eigenvalues --    0.25716   0.26471   0.27088   0.27296   0.28532
 Alpha virt. eigenvalues --    0.28791   0.29034   0.29550   0.30403   0.30918
 Alpha virt. eigenvalues --    0.31415   0.31832   0.32140   0.32906   0.33222
 Alpha virt. eigenvalues --    0.33796   0.34887   0.35103   0.35281   0.36100
 Alpha virt. eigenvalues --    0.36439   0.37024   0.38192   0.39226   0.39794
 Alpha virt. eigenvalues --    0.40944   0.41259   0.41455   0.42663   0.43262
 Alpha virt. eigenvalues --    0.43548   0.45440   0.45717   0.47762   0.48147
 Alpha virt. eigenvalues --    0.48946   0.49805   0.51239   0.51289   0.52024
 Alpha virt. eigenvalues --    0.52704   0.54888   0.55246   0.56007   0.57420
 Alpha virt. eigenvalues --    0.58470   0.58539   0.59667   0.60175   0.61786
 Alpha virt. eigenvalues --    0.62659   0.62849   0.64697   0.65323   0.68791
 Alpha virt. eigenvalues --    0.70436   0.70698   0.71319   0.71846   0.72074
 Alpha virt. eigenvalues --    0.72698   0.73161   0.73576   0.74185   0.74613
 Alpha virt. eigenvalues --    0.76215   0.76533   0.76846   0.77459   0.77778
 Alpha virt. eigenvalues --    0.79039   0.79524   0.80216   0.80982   0.81197
 Alpha virt. eigenvalues --    0.81408   0.82050   0.82578   0.82635   0.83268
 Alpha virt. eigenvalues --    0.83913   0.84173   0.84502   0.84729   0.84792
 Alpha virt. eigenvalues --    0.85096   0.85400   0.85592   0.86161   0.86282
 Alpha virt. eigenvalues --    0.86982   0.87436   0.88046   0.88272   0.89279
 Alpha virt. eigenvalues --    0.89336   0.89788   0.90653   0.90999   0.91703
 Alpha virt. eigenvalues --    0.92347   0.92789   0.93790   0.94166   0.94993
 Alpha virt. eigenvalues --    0.95692   0.96120   0.96188   0.97346   0.98387
 Alpha virt. eigenvalues --    0.98886   0.99655   1.00266   1.00972   1.01403
 Alpha virt. eigenvalues --    1.02672   1.03540   1.04193   1.07331   1.08461
 Alpha virt. eigenvalues --    1.08957   1.09802   1.10271   1.11267   1.11622
 Alpha virt. eigenvalues --    1.11937   1.12581   1.12715   1.13046   1.13473
 Alpha virt. eigenvalues --    1.14005   1.14350   1.14553   1.15333   1.15768
 Alpha virt. eigenvalues --    1.16164   1.16889   1.17457   1.18383   1.18677
 Alpha virt. eigenvalues --    1.19321   1.19619   1.20206   1.20837   1.21284
 Alpha virt. eigenvalues --    1.22513   1.23463   1.24471   1.25324   1.25775
 Alpha virt. eigenvalues --    1.27109   1.27726   1.28160   1.28922   1.29569
 Alpha virt. eigenvalues --    1.30002   1.30198   1.31786   1.32682   1.34698
 Alpha virt. eigenvalues --    1.35283   1.36261   1.37690   1.38125   1.38553
 Alpha virt. eigenvalues --    1.38902   1.40028   1.40942   1.41795   1.42125
 Alpha virt. eigenvalues --    1.43033   1.44461   1.44779   1.45569   1.46330
 Alpha virt. eigenvalues --    1.48145   1.49063   1.50296   1.51156   1.51759
 Alpha virt. eigenvalues --    1.54927   1.55368   1.57542   1.58931   1.59685
 Alpha virt. eigenvalues --    1.61625   1.64230   1.66797   1.67905   1.70407
 Alpha virt. eigenvalues --    1.71054   1.72152   1.72818   1.73394   1.74208
 Alpha virt. eigenvalues --    1.77248   1.79549   1.82579   1.85646   1.88766
 Alpha virt. eigenvalues --    1.91816   1.98701   2.04862   2.09776   2.10496
 Alpha virt. eigenvalues --    2.11987   2.16115   2.21029   2.24769   2.35329
 Alpha virt. eigenvalues --    2.66604
          Condensed to atoms (all electrons):
 Mulliken atomic charges:
              1
     1  F   -0.448161
     2  C    0.404774
     3  C   -0.167059
     4  C   -0.323274
     5  C   -0.141627
     6  C   -0.020974
     7  C   -0.243826
     8  C   -0.126347
     9  N   -0.953143
    10  C    0.789386
    11  O   -0.590608
    12  C   -0.130335
    13  N   -0.877176
    14  N    0.059814
    15  N   -0.326580
    16  C   -0.012943
    17  C   -0.080770
    18  C   -0.230164
    19  C   -0.207572
    20  C   -0.080769
    21  C    0.438591
    22  C    0.295229
    23  C   -0.182749
    24  C   -0.201146
    25  C   -0.014133
    26  C   -0.208428
    27  C   -0.149054
    28  C   -0.092141
    29  C   -0.139945
    30  C   -0.245238
    31  C    0.059569
    32  N   -0.532157
    33  C    0.061667
    34  Cl   0.120985
    35  H    0.268428
    36  H    0.260071
    37  H    0.278494
    38  H    0.248221
    39  H    0.222874
    40  H    0.246588
    41  H    0.249366
    42  H    0.243788
    43  H    0.209434
    44  H    0.213692
    45  H    0.276135
    46  H    0.222208
    47  H    0.220096
    48  H    0.226676
    49  H    0.234945
    50  H    0.222881
    51  H    0.215901
    52  H    0.212774
    53  H    0.223734
 Sum of Mulliken atomic charges =   0.00000
 Mulliken charges with hydrogens summed into heavy atoms:
              1
     1  F   -0.448161
     2  C    0.404774
     3  C    0.101369
     4  C   -0.323274
     5  C    0.118444
     6  C   -0.020974
     7  C    0.034668
     8  C    0.344748
     9  N   -0.953143
    10  C    0.789386
    11  O   -0.590608
    12  C    0.365619
    13  N   -0.877176
    14  N    0.059814
    15  N   -0.326580
    16  C   -0.012943
    17  C    0.163018
    18  C   -0.020730
    19  C    0.006119
    20  C    0.195366
    21  C    0.438591
    22  C    0.295229
    23  C    0.039459
    24  C    0.018950
    25  C   -0.014133
    26  C    0.018248
    27  C    0.085891
    28  C   -0.092141
    29  C    0.082936
    30  C   -0.029337
    31  C    0.272343
    32  N   -0.532157
    33  C    0.285401
    34  Cl   0.120985
 Sum of Mulliken charges with hydrogens summed into heavy atoms =   0.00000
 Electronic spatial extent (au):  <R**2>=          20905.6385
 Charge=              0.0000 electrons
 Dipole moment (field-independent basis, Debye):
    X=              0.6906    Y=             -1.8524    Z=             -2.4646  Tot=              3.1595
 Quadrupole moment (field-independent basis, Debye-Ang):
   XX=           -226.0645   YY=           -203.4893   ZZ=           -204.9967
   XY=             15.1442   XZ=            -28.7606   YZ=              5.8674
 Traceless Quadrupole moment (field-independent basis, Debye-Ang):
   XX=            -14.5477   YY=              8.0276   ZZ=              6.5201
   XY=             15.1442   XZ=            -28.7606   YZ=              5.8674
 Octapole moment (field-independent basis, Debye-Ang**2):
  XXX=             56.1388  YYY=           -111.2059  ZZZ=            -15.0680  XYY=            -97.2863
  XXY=             -9.9440  XXZ=            -86.9807  XZZ=             14.4810  YZZ=             10.0733
  YYZ=              1.9133  XYZ=             15.3906
 Hexadecapole moment (field-independent basis, Debye-Ang**3):
 XXXX=         -17953.4966 YYYY=          -9686.7625 ZZZZ=          -1391.8468 XXXY=            398.0428
 XXXZ=          -1297.7242 YYYX=            412.7049 YYYZ=            -34.7588 ZZZX=            -66.1254
 ZZZY=              8.9982 XXYY=          -4689.2191 XXZZ=          -3084.1987 YYZZ=          -1959.8647
 XXYZ=            313.4064 YYXZ=            -44.9522 ZZXY=             -4.8064
 N-N= 3.376327093548D+03 E-N=-1.121593370653D+04  KE= 1.902467564756D+03
 No NMR shielding tensors so no spin-rotation constants.
 Leave Link  601 at Sat Aug 27 05:02:24 2022, MaxMem=  209715200 cpu:       1.5
 (Enter /opt/gaussian/l9999.exe)
 1\1\GINC-LQCAPF-6\FOpt\RHF\6-31G\C26H19Cl1F1N5O1\LQCAPF-6\27-Aug-2022\
 0\\#p opt hf/6-31G\\Mol31.out\\0,1\F,25.4545459087,-13.4891396906,-2.4
 350626797\C,24.2020532017,-13.13523899,-2.0072088392\C,23.4665983647,-
 14.0641196174,-1.3083337088\C,22.2101612525,-13.6759583373,-0.88612935
 46\C,21.7014654574,-12.4212392323,-1.1456978493\C,22.4730735447,-11.50
 17935922,-1.8541146427\C,23.7425238679,-11.8664702396,-2.2886939345\C,
 21.9325525683,-10.1264910772,-2.2047054063\N,21.2891684882,-9.40963871
 46,-1.090541524\C,21.9971625817,-8.7676820432,-0.1172456719\O,21.45953
 09087,-8.1971526763,0.8268828023\C,23.5174351412,-8.7263029454,-0.2040
 76862\N,23.9746254285,-7.7431323916,-1.1598248238\N,24.6797149326,-8.1
 257437207,-2.264506878\N,25.0413740934,-7.097928825,-2.914707216\C,24.
 5939670872,-5.9668226026,-2.2526463046\C,24.7463119305,-4.6138988187,-
 2.5595262844\C,24.1869628359,-3.7091058585,-1.6922430305\C,23.48468993
 ,-4.1366531515,-0.5414563506\C,23.3264595058,-5.4659448599,-0.23030283
 05\C,23.9051616488,-6.3792693536,-1.1183172744\C,19.8523470048,-9.3426
 209869,-1.0647871301\C,19.1759954722,-8.7237373496,-2.1060964273\C,17.
 7915269975,-8.6783391205,-2.1111627744\C,17.0532936633,-9.2381569815,-
 1.0703703125\C,17.7466076482,-9.8422356325,-0.0223249272\C,19.13020362
 64,-9.8957562633,-0.0173871427\C,15.5699563696,-9.1859134956,-1.073707
 4966\C,14.827588586,-9.4664549842,-2.2189484436\C,13.4440358503,-9.405
 1742627,-2.1733087193\C,12.8317163908,-9.0666428032,-0.9779847378\N,13
 .5322614533,-8.7947279386,0.1211798778\C,14.8598339989,-8.849789374,0.
 0775801474\Cl,21.2028532292,-14.8578077314,0.0322180196\H,23.860416478
 1,-15.0370235814,-1.1065611411\H,20.7198188722,-12.1641300896,-0.80811
 21972\H,24.3693745608,-11.1821134961,-2.8250250964\H,22.7260345463,-9.
 5278225819,-2.6210255154\H,21.1852760446,-10.2333318335,-2.9764875391\
 H,23.8668602294,-8.4616014693,0.781904374\H,23.9478756601,-9.671832167
 5,-0.4850938046\H,25.2809918501,-4.3105647307,-3.4367676429\H,24.27705
 50338,-2.6581813385,-1.8833967407\H,23.0584740301,-3.3954621418,0.1061
 292714\H,22.776546831,-5.7870096089,0.6306794767\H,19.7284427034,-8.26
 07123902,-2.9008850202\H,17.2862709184,-8.1770754232,-2.9137283227\H,1
 7.2035935334,-10.290635581,0.7864252274\H,19.6463040283,-10.3498992283
 ,0.8037692034\H,15.325421601,-9.746595708,-3.1270586651\H,12.854668759
 6,-9.623066295,-3.0412582266\H,11.7663881085,-9.0105012004,-0.89169760
 24\H,15.3725272419,-8.6014574726,0.9843486914\\Version=EM64L-G09RevC.0
 1\State=1-A\HF=-1901.0280948\RMSD=4.212e-09\RMSF=1.983e-06\Dipole=-0.4
 255087,0.6585759,-0.9645651\Quadrupole=-9.9825557,8.2024573,1.7800984,
 9.6004224,22.5099657,-2.6755858\PG=C01 [X(C26H19Cl1F1N5O1)]\\@


 IN NATURE THERE ARE NEITHER REWARDS OR
 PUNISHMENTS -- THERE ARE CONSEQUENCES.

                            -- ROBERT GREEN INGERSOLL
 Job cpu time:  0 days  8 hours 24 minutes 50.8 seconds.
 File lengths (MBytes):  RWF=     82 Int=      0 D2E=      0 Chk=     12 Scr=      1
 Normal termination of Gaussian 09 at Sat Aug 27 05:02:24 2022.
