 Entering Gaussian System, Link 0=g09
 Input=Mol34.gjf
 Output=Mol34.log
 Initial command:
 /opt/gaussian/l1.exe /home/scr/lqcapf-6/Gau-306530.inp -scrdir=/home/scr/lqcapf-6/
 Entering Link 1 = /opt/gaussian/l1.exe PID=    306532.
  
 Copyright (c) 1988,1990,1992,1993,1995,1998,2003,2009,2011,
            Gaussian, Inc.  All Rights Reserved.
  
 This is part of the Gaussian(R) 09 program.  It is based on
 the Gaussian(R) 03 system (copyright 2003, Gaussian, Inc.),
 the Gaussian(R) 98 system (copyright 1998, Gaussian, Inc.),
 the Gaussian(R) 94 system (copyright 1995, Gaussian, Inc.),
 the Gaussian 92(TM) system (copyright 1992, Gaussian, Inc.),
 the Gaussian 90(TM) system (copyright 1990, Gaussian, Inc.),
 the Gaussian 88(TM) system (copyright 1988, Gaussian, Inc.),
 the Gaussian 86(TM) system (copyright 1986, Carnegie Mellon
 University), and the Gaussian 82(TM) system (copyright 1983,
 Carnegie Mellon University). Gaussian is a federally registered
 trademark of Gaussian, Inc.
  
 This software contains proprietary and confidential information,
 including trade secrets, belonging to Gaussian, Inc.
  
 This software is provided under written license and may be
 used, copied, transmitted, or stored only in accord with that
 written license.
  
 The following legend is applicable only to US Government
 contracts under FAR:
  
                    RESTRICTED RIGHTS LEGEND
  
 Use, reproduction and disclosure by the US Government is
 subject to restrictions as set forth in subparagraphs (a)
 and (c) of the Commercial Computer Software - Restricted
 Rights clause in FAR 52.227-19.
  
 Gaussian, Inc.
 340 Quinnipiac St., Bldg. 40, Wallingford CT 06492
  
  
 ---------------------------------------------------------------
 Warning -- This program may not be used in any manner that
 competes with the business of Gaussian, Inc. or will provide
 assistance to any competitor of Gaussian, Inc.  The licensee
 of this program is prohibited from giving any competitor of
 Gaussian, Inc. access to this program.  By using this program,
 the user acknowledges that Gaussian, Inc. is engaged in the
 business of creating and licensing software in the field of
 computational chemistry and represents and warrants to the
 licensee that it is not a competitor of Gaussian, Inc. and that
 it will not use this program in any manner prohibited above.
 ---------------------------------------------------------------
  

 Cite this work as:
 Gaussian 09, Revision C.01,
 M. J. Frisch, G. W. Trucks, H. B. Schlegel, G. E. Scuseria, 
 M. A. Robb, J. R. Cheeseman, G. Scalmani, V. Barone, B. Mennucci, 
 G. A. Petersson, H. Nakatsuji, M. Caricato, X. Li, H. P. Hratchian, 
 A. F. Izmaylov, J. Bloino, G. Zheng, J. L. Sonnenberg, M. Hada, 
 M. Ehara, K. Toyota, R. Fukuda, J. Hasegawa, M. Ishida, T. Nakajima, 
 Y. Honda, O. Kitao, H. Nakai, T. Vreven, J. A. Montgomery, Jr., 
 J. E. Peralta, F. Ogliaro, M. Bearpark, J. J. Heyd, E. Brothers, 
 K. N. Kudin, V. N. Staroverov, T. Keith, R. Kobayashi, J. Normand, 
 K. Raghavachari, A. Rendell, J. C. Burant, S. S. Iyengar, J. Tomasi, 
 M. Cossi, N. Rega, J. M. Millam, M. Klene, J. E. Knox, J. B. Cross, 
 V. Bakken, C. Adamo, J. Jaramillo, R. Gomperts, R. E. Stratmann, 
 O. Yazyev, A. J. Austin, R. Cammi, C. Pomelli, J. W. Ochterski, 
 R. L. Martin, K. Morokuma, V. G. Zakrzewski, G. A. Voth, 
 P. Salvador, J. J. Dannenberg, S. Dapprich, A. D. Daniels, 
 O. Farkas, J. B. Foresman, J. V. Ortiz, J. Cioslowski, 
 and D. J. Fox, Gaussian, Inc., Wallingford CT, 2010.
 
 ******************************************
 Gaussian 09:  EM64L-G09RevC.01 23-Sep-2011
                27-Aug-2022 
 ******************************************
 %nprocshared=8
 Will use up to    8 processors via shared memory.
 %mem=1600MB
 ---------------
 #p opt hf/6-31G
 ---------------
 1/18=20,19=15,38=1/1,3;
 2/9=110,12=2,17=6,18=5,40=1/2;
 3/5=1,6=6,11=9,16=1,25=1,30=1,71=1/1,2,3;
 4//1;
 5/5=2,38=5/2;
 6/7=2,8=2,9=2,10=2,28=1/1;
 7//1,2,3,16;
 1/18=20,19=15/3(2);
 2/9=110/2;
 99//99;
 2/9=110/2;
 3/5=1,6=6,11=9,16=1,25=1,30=1,71=1/1,2,3;
 4/5=5,16=3/1;
 5/5=2,38=5/2;
 7//1,2,3,16;
 1/18=20,19=15/3(-5);
 2/9=110/2;
 6/7=2,8=2,9=2,10=2,19=2,28=1/1;
 99/9=1/99;
 Leave Link    1 at Sat Aug 27 07:33:17 2022, MaxMem=  209715200 cpu:       0.1
 (Enter /opt/gaussian/l101.exe)
 ---------
 Mol34.out
 ---------
 Charge =  0 Multiplicity = 1
 Symbolic Z-Matrix:
 Cl                    23.9892  -14.7405  -1.5666 
 C                     23.4838  -13.1523  -1.2845 
 C                     23.7666  -12.5247  -0.0496 
 N                     23.3768  -11.2711   0.2323 
 C                     22.6892  -10.5957  -0.7092 
 C                     22.3694  -11.1295  -1.9733 
 C                     22.7789  -12.4404  -2.2583 
 C                     21.6338  -10.3708  -3.0415 
 N                     20.9514  -9.1603   -2.6521 
 C                     21.6535  -7.959    -2.4813 
 O                     21.0931  -6.9347   -2.0637 
 C                     23.1428  -7.9609   -2.8787 
 N                     23.8738  -6.7769   -2.5176 
 N                     23.7458  -5.5723   -3.1724 
 N                     24.1913  -4.6144   -2.4974 
 C                     24.6207  -5.0921   -1.2146 
 C                     25.1838  -4.4718   -0.1006 
 C                     25.4868  -5.2749    0.9952 
 C                     25.2487  -6.6586    0.9892 
 C                     24.6956  -7.3086   -0.1102 
 C                     24.3778  -6.5194   -1.2152 
 C                     19.5854  -9.2739   -2.2737 
 C                     19.1102  -10.45    -1.6521 
 C                     17.7678  -10.5793  -1.319 
 C                     16.8578  -9.5465   -1.5813 
 C                     17.3293  -8.3754   -2.1893 
 C                     18.6682  -8.2342   -2.5366 
 C                     15.4529  -9.688    -1.2243 
 C                     15.0574  -10.3411  -0.047 
 C                     13.6987  -10.4504   0.2472 
 C                     12.7683  -9.8996   -0.6523 
 N                     13.1226  -9.268    -1.7887 
 C                     14.4357  -9.1674   -2.0594 
 H                     24.3248  -13.0537   0.7448 
 H                     22.3742  -9.5764   -0.4146 
 H                     22.5453  -12.8995  -3.2315 
 H                     22.3754  -10.1193  -3.8583 
 H                     20.869   -11.0686  -3.4993 
 H                     23.6592  -8.8295   -2.3748 
 H                     23.1972  -8.0837   -4.0001 
 H                     25.3775  -3.3897   -0.0922 
 H                     25.9229  -4.8149    1.8951 
 H                     25.5041  -7.2489    1.8835 
 H                     24.5136  -8.3922   -0.1017 
 H                     19.7993  -11.2772  -1.4193 
 H                     17.4178  -11.5091  -0.844 
 H                     16.6335  -7.5454   -2.39 
 H                     19.0091  -7.2927   -2.9982 
 H                     15.8128  -10.752    0.6395 
 H                     13.3577  -10.9534   1.1614 
 H                     11.683   -9.9633   -0.4565 
 H                     14.6943  -8.644    -2.998 
 
 NAtoms=     52 NQM=        0 NQMF=       0 NMMI=     52 NMMIF=      0
                NMic=       0 NMicF=      0.
                    Isotopes and Nuclear Properties:
 (Nuclear quadrupole moments (NQMom) in fm**2, nuclear magnetic moments (NMagM)
  in nuclear magnetons)

  Atom         1           2           3           4           5           6           7           8           9          10
 IAtWgt=          35          12          12          14          12          12          12          12          14          12
 AtmWgt=  34.9688527  12.0000000  12.0000000  14.0030740  12.0000000  12.0000000  12.0000000  12.0000000  14.0030740  12.0000000
 NucSpn=           3           0           0           2           0           0           0           0           2           0
 AtZEff=   0.0000000   0.0000000   0.0000000   0.0000000   0.0000000   0.0000000   0.0000000   0.0000000   0.0000000   0.0000000
 NQMom=   -8.1650000   0.0000000   0.0000000   2.0440000   0.0000000   0.0000000   0.0000000   0.0000000   2.0440000   0.0000000
 NMagM=    0.8218740   0.0000000   0.0000000   0.4037610   0.0000000   0.0000000   0.0000000   0.0000000   0.4037610   0.0000000

  Atom        11          12          13          14          15          16          17          18          19          20
 IAtWgt=          16          12          14          14          14          12          12          12          12          12
 AtmWgt=  15.9949146  12.0000000  14.0030740  14.0030740  14.0030740  12.0000000  12.0000000  12.0000000  12.0000000  12.0000000
 NucSpn=           0           0           2           2           2           0           0           0           0           0
 AtZEff=   0.0000000   0.0000000   0.0000000   0.0000000   0.0000000   0.0000000   0.0000000   0.0000000   0.0000000   0.0000000
 NQMom=    0.0000000   0.0000000   2.0440000   2.0440000   2.0440000   0.0000000   0.0000000   0.0000000   0.0000000   0.0000000
 NMagM=    0.0000000   0.0000000   0.4037610   0.4037610   0.4037610   0.0000000   0.0000000   0.0000000   0.0000000   0.0000000

  Atom        21          22          23          24          25          26          27          28          29          30
 IAtWgt=          12          12          12          12          12          12          12          12          12          12
 AtmWgt=  12.0000000  12.0000000  12.0000000  12.0000000  12.0000000  12.0000000  12.0000000  12.0000000  12.0000000  12.0000000
 NucSpn=           0           0           0           0           0           0           0           0           0           0
 AtZEff=   0.0000000   0.0000000   0.0000000   0.0000000   0.0000000   0.0000000   0.0000000   0.0000000   0.0000000   0.0000000
 NQMom=    0.0000000   0.0000000   0.0000000   0.0000000   0.0000000   0.0000000   0.0000000   0.0000000   0.0000000   0.0000000
 NMagM=    0.0000000   0.0000000   0.0000000   0.0000000   0.0000000   0.0000000   0.0000000   0.0000000   0.0000000   0.0000000

  Atom        31          32          33          34          35          36          37          38          39          40
 IAtWgt=          12          14          12           1           1           1           1           1           1           1
 AtmWgt=  12.0000000  14.0030740  12.0000000   1.0078250   1.0078250   1.0078250   1.0078250   1.0078250   1.0078250   1.0078250
 NucSpn=           0           2           0           1           1           1           1           1           1           1
 AtZEff=   0.0000000   0.0000000   0.0000000   0.0000000   0.0000000   0.0000000   0.0000000   0.0000000   0.0000000   0.0000000
 NQMom=    0.0000000   2.0440000   0.0000000   0.0000000   0.0000000   0.0000000   0.0000000   0.0000000   0.0000000   0.0000000
 NMagM=    0.0000000   0.4037610   0.0000000   2.7928460   2.7928460   2.7928460   2.7928460   2.7928460   2.7928460   2.7928460

  Atom        41          42          43          44          45          46          47          48          49          50
 IAtWgt=           1           1           1           1           1           1           1           1           1           1
 AtmWgt=   1.0078250   1.0078250   1.0078250   1.0078250   1.0078250   1.0078250   1.0078250   1.0078250   1.0078250   1.0078250
 NucSpn=           1           1           1           1           1           1           1           1           1           1
 AtZEff=   0.0000000   0.0000000   0.0000000   0.0000000   0.0000000   0.0000000   0.0000000   0.0000000   0.0000000   0.0000000
 NQMom=    0.0000000   0.0000000   0.0000000   0.0000000   0.0000000   0.0000000   0.0000000   0.0000000   0.0000000   0.0000000
 NMagM=    2.7928460   2.7928460   2.7928460   2.7928460   2.7928460   2.7928460   2.7928460   2.7928460   2.7928460   2.7928460

  Atom        51          52
 IAtWgt=           1           1
 AtmWgt=   1.0078250   1.0078250
 NucSpn=           1           1
 AtZEff=   0.0000000   0.0000000
 NQMom=    0.0000000   0.0000000
 NMagM=    2.7928460   2.7928460
 Leave Link  101 at Sat Aug 27 07:33:18 2022, MaxMem=  209715200 cpu:       0.8
 (Enter /opt/gaussian/l103.exe)

 GradGradGradGradGradGradGradGradGradGradGradGradGradGradGradGradGradGrad
 Berny optimization.
 Initialization pass.
                           ----------------------------
                           !    Initial Parameters    !
                           ! (Angstroms and Degrees)  !
 --------------------------                            --------------------------
 ! Name  Definition              Value          Derivative Info.                !
 --------------------------------------------------------------------------------
 ! R1    R(1,2)                  1.6904         estimate D2E/DX2                !
 ! R2    R(2,3)                  1.4138         estimate D2E/DX2                !
 ! R3    R(2,7)                  1.3971         estimate D2E/DX2                !
 ! R4    R(3,4)                  1.3427         estimate D2E/DX2                !
 ! R5    R(3,34)                 1.1057         estimate D2E/DX2                !
 ! R6    R(4,5)                  1.3474         estimate D2E/DX2                !
 ! R7    R(5,6)                  1.409          estimate D2E/DX2                !
 ! R8    R(5,35)                 1.1068         estimate D2E/DX2                !
 ! R9    R(6,7)                  1.4026         estimate D2E/DX2                !
 ! R10   R(6,8)                  1.5026         estimate D2E/DX2                !
 ! R11   R(7,36)                 1.1011         estimate D2E/DX2                !
 ! R12   R(8,9)                  1.4431         estimate D2E/DX2                !
 ! R13   R(8,37)                 1.1315         estimate D2E/DX2                !
 ! R14   R(8,38)                 1.132          estimate D2E/DX2                !
 ! R15   R(9,10)                 1.4019         estimate D2E/DX2                !
 ! R16   R(9,22)                 1.422          estimate D2E/DX2                !
 ! R17   R(10,11)                1.24           estimate D2E/DX2                !
 ! R18   R(10,12)                1.5414         estimate D2E/DX2                !
 ! R19   R(12,13)                1.4376         estimate D2E/DX2                !
 ! R20   R(12,39)                1.1292         estimate D2E/DX2                !
 ! R21   R(12,40)                1.1294         estimate D2E/DX2                !
 ! R22   R(13,14)                1.377          estimate D2E/DX2                !
 ! R23   R(13,21)                1.4201         estimate D2E/DX2                !
 ! R24   R(14,15)                1.2537         estimate D2E/DX2                !
 ! R25   R(15,16)                1.4346         estimate D2E/DX2                !
 ! R26   R(16,17)                1.3939         estimate D2E/DX2                !
 ! R27   R(16,21)                1.4478         estimate D2E/DX2                !
 ! R28   R(17,18)                1.392          estimate D2E/DX2                !
 ! R29   R(17,41)                1.0993         estimate D2E/DX2                !
 ! R30   R(18,19)                1.404          estimate D2E/DX2                !
 ! R31   R(18,42)                1.1007         estimate D2E/DX2                !
 ! R32   R(19,20)                1.3918         estimate D2E/DX2                !
 ! R33   R(19,43)                1.1016         estimate D2E/DX2                !
 ! R34   R(20,21)                1.3946         estimate D2E/DX2                !
 ! R35   R(20,44)                1.0988         estimate D2E/DX2                !
 ! R36   R(22,23)                1.4126         estimate D2E/DX2                !
 ! R37   R(22,27)                1.4112         estimate D2E/DX2                !
 ! R38   R(23,24)                1.3891         estimate D2E/DX2                !
 ! R39   R(23,45)                1.1015         estimate D2E/DX2                !
 ! R40   R(24,25)                1.4013         estimate D2E/DX2                !
 ! R41   R(24,46)                1.1012         estimate D2E/DX2                !
 ! R42   R(25,26)                1.4012         estimate D2E/DX2                !
 ! R43   R(25,28)                1.4564         estimate D2E/DX2                !
 ! R44   R(26,27)                1.3904         estimate D2E/DX2                !
 ! R45   R(26,47)                1.1015         estimate D2E/DX2                !
 ! R46   R(27,48)                1.1026         estimate D2E/DX2                !
 ! R47   R(28,29)                1.4032         estimate D2E/DX2                !
 ! R48   R(28,33)                1.4153         estimate D2E/DX2                !
 ! R49   R(29,30)                1.3945         estimate D2E/DX2                !
 ! R50   R(29,49)                1.1003         estimate D2E/DX2                !
 ! R51   R(30,31)                1.4065         estimate D2E/DX2                !
 ! R52   R(30,50)                1.0977         estimate D2E/DX2                !
 ! R53   R(31,32)                1.3475         estimate D2E/DX2                !
 ! R54   R(31,51)                1.1047         estimate D2E/DX2                !
 ! R55   R(32,33)                1.3445         estimate D2E/DX2                !
 ! R56   R(33,52)                1.1053         estimate D2E/DX2                !
 ! A1    A(1,2,3)              120.2012         estimate D2E/DX2                !
 ! A2    A(1,2,7)              120.8821         estimate D2E/DX2                !
 ! A3    A(3,2,7)              118.9163         estimate D2E/DX2                !
 ! A4    A(2,3,4)              122.6668         estimate D2E/DX2                !
 ! A5    A(2,3,34)             121.0752         estimate D2E/DX2                !
 ! A6    A(4,3,34)             116.2574         estimate D2E/DX2                !
 ! A7    A(3,4,5)              117.9985         estimate D2E/DX2                !
 ! A8    A(4,5,6)              123.5627         estimate D2E/DX2                !
 ! A9    A(4,5,35)             114.8913         estimate D2E/DX2                !
 ! A10   A(6,5,35)             121.5419         estimate D2E/DX2                !
 ! A11   A(5,6,7)              118.0419         estimate D2E/DX2                !
 ! A12   A(5,6,8)              123.8924         estimate D2E/DX2                !
 ! A13   A(7,6,8)              118.0592         estimate D2E/DX2                !
 ! A14   A(2,7,6)              118.8094         estimate D2E/DX2                !
 ! A15   A(2,7,36)             120.7049         estimate D2E/DX2                !
 ! A16   A(6,7,36)             120.4855         estimate D2E/DX2                !
 ! A17   A(6,8,9)              117.594          estimate D2E/DX2                !
 ! A18   A(6,8,37)             107.7307         estimate D2E/DX2                !
 ! A19   A(6,8,38)             107.8786         estimate D2E/DX2                !
 ! A20   A(9,8,37)             108.5572         estimate D2E/DX2                !
 ! A21   A(9,8,38)             107.8613         estimate D2E/DX2                !
 ! A22   A(37,8,38)            106.7308         estimate D2E/DX2                !
 ! A23   A(8,9,10)             120.9871         estimate D2E/DX2                !
 ! A24   A(8,9,22)             117.325          estimate D2E/DX2                !
 ! A25   A(10,9,22)            121.1412         estimate D2E/DX2                !
 ! A26   A(9,10,11)            121.5032         estimate D2E/DX2                !
 ! A27   A(9,10,12)            116.8356         estimate D2E/DX2                !
 ! A28   A(11,10,12)           121.6343         estimate D2E/DX2                !
 ! A29   A(10,12,13)           115.1843         estimate D2E/DX2                !
 ! A30   A(10,12,39)           109.1328         estimate D2E/DX2                !
 ! A31   A(10,12,40)           107.6174         estimate D2E/DX2                !
 ! A32   A(13,12,39)           106.7925         estimate D2E/DX2                !
 ! A33   A(13,12,40)           108.3284         estimate D2E/DX2                !
 ! A34   A(39,12,40)           109.7198         estimate D2E/DX2                !
 ! A35   A(12,13,14)           123.626          estimate D2E/DX2                !
 ! A36   A(12,13,21)           124.0692         estimate D2E/DX2                !
 ! A37   A(14,13,21)           108.0884         estimate D2E/DX2                !
 ! A38   A(13,14,15)           112.2931         estimate D2E/DX2                !
 ! A39   A(14,15,16)           109.4741         estimate D2E/DX2                !
 ! A40   A(15,16,17)           133.4224         estimate D2E/DX2                !
 ! A41   A(15,16,21)           106.1214         estimate D2E/DX2                !
 ! A42   A(17,16,21)           120.4524         estimate D2E/DX2                !
 ! A43   A(16,17,18)           117.4099         estimate D2E/DX2                !
 ! A44   A(16,17,41)           121.0199         estimate D2E/DX2                !
 ! A45   A(18,17,41)           121.5702         estimate D2E/DX2                !
 ! A46   A(17,18,19)           121.8917         estimate D2E/DX2                !
 ! A47   A(17,18,42)           119.2573         estimate D2E/DX2                !
 ! A48   A(19,18,42)           118.8507         estimate D2E/DX2                !
 ! A49   A(18,19,20)           122.0744         estimate D2E/DX2                !
 ! A50   A(18,19,43)           119.0333         estimate D2E/DX2                !
 ! A51   A(20,19,43)           118.8919         estimate D2E/DX2                !
 ! A52   A(19,20,21)           116.8824         estimate D2E/DX2                !
 ! A53   A(19,20,44)           121.3503         estimate D2E/DX2                !
 ! A54   A(21,20,44)           121.7662         estimate D2E/DX2                !
 ! A55   A(13,21,16)           103.8089         estimate D2E/DX2                !
 ! A56   A(13,21,20)           134.8267         estimate D2E/DX2                !
 ! A57   A(16,21,20)           121.2869         estimate D2E/DX2                !
 ! A58   A(9,22,23)            120.4489         estimate D2E/DX2                !
 ! A59   A(9,22,27)            121.0603         estimate D2E/DX2                !
 ! A60   A(23,22,27)           118.4738         estimate D2E/DX2                !
 ! A61   A(22,23,24)           120.5372         estimate D2E/DX2                !
 ! A62   A(22,23,45)           120.5171         estimate D2E/DX2                !
 ! A63   A(24,23,45)           118.945          estimate D2E/DX2                !
 ! A64   A(23,24,25)           120.9352         estimate D2E/DX2                !
 ! A65   A(23,24,46)           119.2855         estimate D2E/DX2                !
 ! A66   A(25,24,46)           119.7791         estimate D2E/DX2                !
 ! A67   A(24,25,26)           118.6002         estimate D2E/DX2                !
 ! A68   A(24,25,28)           120.5931         estimate D2E/DX2                !
 ! A69   A(26,25,28)           120.8064         estimate D2E/DX2                !
 ! A70   A(25,26,27)           121.1502         estimate D2E/DX2                !
 ! A71   A(25,26,47)           119.7532         estimate D2E/DX2                !
 ! A72   A(27,26,47)           119.0944         estimate D2E/DX2                !
 ! A73   A(22,27,26)           120.3005         estimate D2E/DX2                !
 ! A74   A(22,27,48)           120.4089         estimate D2E/DX2                !
 ! A75   A(26,27,48)           119.276          estimate D2E/DX2                !
 ! A76   A(25,28,29)           121.5172         estimate D2E/DX2                !
 ! A77   A(25,28,33)           120.8578         estimate D2E/DX2                !
 ! A78   A(29,28,33)           117.625          estimate D2E/DX2                !
 ! A79   A(28,29,30)           119.2166         estimate D2E/DX2                !
 ! A80   A(28,29,49)           120.2493         estimate D2E/DX2                !
 ! A81   A(30,29,49)           120.531          estimate D2E/DX2                !
 ! A82   A(29,30,31)           118.6151         estimate D2E/DX2                !
 ! A83   A(29,30,50)           120.9494         estimate D2E/DX2                !
 ! A84   A(31,30,50)           120.4355         estimate D2E/DX2                !
 ! A85   A(30,31,32)           123.2964         estimate D2E/DX2                !
 ! A86   A(30,31,51)           120.9296         estimate D2E/DX2                !
 ! A87   A(32,31,51)           115.774          estimate D2E/DX2                !
 ! A88   A(31,32,33)           117.4938         estimate D2E/DX2                !
 ! A89   A(28,33,32)           123.7528         estimate D2E/DX2                !
 ! A90   A(28,33,52)           120.4685         estimate D2E/DX2                !
 ! A91   A(32,33,52)           115.7784         estimate D2E/DX2                !
 ! D1    D(1,2,3,4)           -179.2855         estimate D2E/DX2                !
 ! D2    D(1,2,3,34)             0.434          estimate D2E/DX2                !
 ! D3    D(7,2,3,4)              0.48           estimate D2E/DX2                !
 ! D4    D(7,2,3,34)          -179.8005         estimate D2E/DX2                !
 ! D5    D(1,2,7,6)            179.3964         estimate D2E/DX2                !
 ! D6    D(1,2,7,36)            -0.4159         estimate D2E/DX2                !
 ! D7    D(3,2,7,6)             -0.3674         estimate D2E/DX2                !
 ! D8    D(3,2,7,36)           179.8203         estimate D2E/DX2                !
 ! D9    D(2,3,4,5)             -0.0078         estimate D2E/DX2                !
 ! D10   D(34,3,4,5)          -179.74           estimate D2E/DX2                !
 ! D11   D(3,4,5,6)             -0.5839         estimate D2E/DX2                !
 ! D12   D(3,4,5,35)           178.6966         estimate D2E/DX2                !
 ! D13   D(4,5,6,7)              0.677          estimate D2E/DX2                !
 ! D14   D(4,5,6,8)           -178.371          estimate D2E/DX2                !
 ! D15   D(35,5,6,7)          -178.5572         estimate D2E/DX2                !
 ! D16   D(35,5,6,8)             2.3948         estimate D2E/DX2                !
 ! D17   D(5,6,7,2)             -0.1704         estimate D2E/DX2                !
 ! D18   D(5,6,7,36)           179.6422         estimate D2E/DX2                !
 ! D19   D(8,6,7,2)            178.9341         estimate D2E/DX2                !
 ! D20   D(8,6,7,36)            -1.2533         estimate D2E/DX2                !
 ! D21   D(5,6,8,9)            -14.9246         estimate D2E/DX2                !
 ! D22   D(5,6,8,37)           108.0395         estimate D2E/DX2                !
 ! D23   D(5,6,8,38)          -137.0814         estimate D2E/DX2                !
 ! D24   D(7,6,8,9)            166.0275         estimate D2E/DX2                !
 ! D25   D(7,6,8,37)           -71.0084         estimate D2E/DX2                !
 ! D26   D(7,6,8,38)            43.8708         estimate D2E/DX2                !
 ! D27   D(6,8,9,10)            79.5665         estimate D2E/DX2                !
 ! D28   D(6,8,9,22)           -92.048          estimate D2E/DX2                !
 ! D29   D(37,8,9,10)          -42.9766         estimate D2E/DX2                !
 ! D30   D(37,8,9,22)          145.4089         estimate D2E/DX2                !
 ! D31   D(38,8,9,10)         -158.268          estimate D2E/DX2                !
 ! D32   D(38,8,9,22)           30.1176         estimate D2E/DX2                !
 ! D33   D(8,9,10,11)         -175.2594         estimate D2E/DX2                !
 ! D34   D(8,9,10,12)            6.5964         estimate D2E/DX2                !
 ! D35   D(22,9,10,11)          -3.9661         estimate D2E/DX2                !
 ! D36   D(22,9,10,12)         177.8897         estimate D2E/DX2                !
 ! D37   D(8,9,22,23)           31.4763         estimate D2E/DX2                !
 ! D38   D(8,9,22,27)         -146.9981         estimate D2E/DX2                !
 ! D39   D(10,9,22,23)        -140.1244         estimate D2E/DX2                !
 ! D40   D(10,9,22,27)          41.4012         estimate D2E/DX2                !
 ! D41   D(9,10,12,13)        -171.6622         estimate D2E/DX2                !
 ! D42   D(9,10,12,39)         -51.5926         estimate D2E/DX2                !
 ! D43   D(9,10,12,40)          67.4127         estimate D2E/DX2                !
 ! D44   D(11,10,12,13)         10.1962         estimate D2E/DX2                !
 ! D45   D(11,10,12,39)        130.2659         estimate D2E/DX2                !
 ! D46   D(11,10,12,40)       -110.7289         estimate D2E/DX2                !
 ! D47   D(10,12,13,14)        -74.2971         estimate D2E/DX2                !
 ! D48   D(10,12,13,21)         79.847          estimate D2E/DX2                !
 ! D49   D(39,12,13,14)        164.3557         estimate D2E/DX2                !
 ! D50   D(39,12,13,21)        -41.5003         estimate D2E/DX2                !
 ! D51   D(40,12,13,14)         46.24           estimate D2E/DX2                !
 ! D52   D(40,12,13,21)       -159.616          estimate D2E/DX2                !
 ! D53   D(12,13,14,15)        162.6009         estimate D2E/DX2                !
 ! D54   D(21,13,14,15)          4.937          estimate D2E/DX2                !
 ! D55   D(12,13,21,16)       -161.6788         estimate D2E/DX2                !
 ! D56   D(12,13,21,20)         21.6412         estimate D2E/DX2                !
 ! D57   D(14,13,21,16)         -4.1374         estimate D2E/DX2                !
 ! D58   D(14,13,21,20)        179.1826         estimate D2E/DX2                !
 ! D59   D(13,14,15,16)         -3.4269         estimate D2E/DX2                !
 ! D60   D(14,15,16,17)        179.8828         estimate D2E/DX2                !
 ! D61   D(14,15,16,21)          0.6211         estimate D2E/DX2                !
 ! D62   D(15,16,17,18)       -179.6277         estimate D2E/DX2                !
 ! D63   D(15,16,17,41)          0.4737         estimate D2E/DX2                !
 ! D64   D(21,16,17,18)         -0.4505         estimate D2E/DX2                !
 ! D65   D(21,16,17,41)        179.6509         estimate D2E/DX2                !
 ! D66   D(15,16,21,13)          2.2196         estimate D2E/DX2                !
 ! D67   D(15,16,21,20)        179.4647         estimate D2E/DX2                !
 ! D68   D(17,16,21,13)       -177.1584         estimate D2E/DX2                !
 ! D69   D(17,16,21,20)          0.0868         estimate D2E/DX2                !
 ! D70   D(16,17,18,19)          0.4389         estimate D2E/DX2                !
 ! D71   D(16,17,18,42)       -179.3737         estimate D2E/DX2                !
 ! D72   D(41,17,18,19)       -179.663          estimate D2E/DX2                !
 ! D73   D(41,17,18,42)          0.5244         estimate D2E/DX2                !
 ! D74   D(17,18,19,20)         -0.0509         estimate D2E/DX2                !
 ! D75   D(17,18,19,43)       -179.8377         estimate D2E/DX2                !
 ! D76   D(42,18,19,20)        179.7625         estimate D2E/DX2                !
 ! D77   D(42,18,19,43)         -0.0243         estimate D2E/DX2                !
 ! D78   D(18,19,20,21)         -0.3202         estimate D2E/DX2                !
 ! D79   D(18,19,20,44)       -179.9524         estimate D2E/DX2                !
 ! D80   D(43,19,20,21)        179.467          estimate D2E/DX2                !
 ! D81   D(43,19,20,44)         -0.1652         estimate D2E/DX2                !
 ! D82   D(19,20,21,13)        176.5259         estimate D2E/DX2                !
 ! D83   D(19,20,21,16)          0.2991         estimate D2E/DX2                !
 ! D84   D(44,20,21,13)         -3.8436         estimate D2E/DX2                !
 ! D85   D(44,20,21,16)        179.9297         estimate D2E/DX2                !
 ! D86   D(9,22,23,24)        -178.0084         estimate D2E/DX2                !
 ! D87   D(9,22,23,45)           2.2955         estimate D2E/DX2                !
 ! D88   D(27,22,23,24)          0.5049         estimate D2E/DX2                !
 ! D89   D(27,22,23,45)       -179.1912         estimate D2E/DX2                !
 ! D90   D(9,22,27,26)         178.4158         estimate D2E/DX2                !
 ! D91   D(9,22,27,48)          -2.9857         estimate D2E/DX2                !
 ! D92   D(23,22,27,26)         -0.088          estimate D2E/DX2                !
 ! D93   D(23,22,27,48)        178.5104         estimate D2E/DX2                !
 ! D94   D(22,23,24,25)         -0.4784         estimate D2E/DX2                !
 ! D95   D(22,23,24,46)        179.4027         estimate D2E/DX2                !
 ! D96   D(45,23,24,25)        179.2224         estimate D2E/DX2                !
 ! D97   D(45,23,24,46)         -0.8965         estimate D2E/DX2                !
 ! D98   D(23,24,25,26)          0.0259         estimate D2E/DX2                !
 ! D99   D(23,24,25,28)       -179.7654         estimate D2E/DX2                !
 ! D100  D(46,24,25,26)       -179.8546         estimate D2E/DX2                !
 ! D101  D(46,24,25,28)          0.3542         estimate D2E/DX2                !
 ! D102  D(24,25,26,27)          0.3962         estimate D2E/DX2                !
 ! D103  D(24,25,26,47)       -179.0593         estimate D2E/DX2                !
 ! D104  D(28,25,26,27)       -179.813          estimate D2E/DX2                !
 ! D105  D(28,25,26,47)          0.7315         estimate D2E/DX2                !
 ! D106  D(24,25,28,29)         37.381          estimate D2E/DX2                !
 ! D107  D(24,25,28,33)       -142.6283         estimate D2E/DX2                !
 ! D108  D(26,25,28,29)       -142.4056         estimate D2E/DX2                !
 ! D109  D(26,25,28,33)         37.5851         estimate D2E/DX2                !
 ! D110  D(25,26,27,22)         -0.3641         estimate D2E/DX2                !
 ! D111  D(25,26,27,48)       -178.9784         estimate D2E/DX2                !
 ! D112  D(47,26,27,22)        179.0949         estimate D2E/DX2                !
 ! D113  D(47,26,27,48)          0.4807         estimate D2E/DX2                !
 ! D114  D(25,28,29,30)       -179.9373         estimate D2E/DX2                !
 ! D115  D(25,28,29,49)          0.6972         estimate D2E/DX2                !
 ! D116  D(33,28,29,30)          0.0717         estimate D2E/DX2                !
 ! D117  D(33,28,29,49)       -179.2937         estimate D2E/DX2                !
 ! D118  D(25,28,33,32)        179.812          estimate D2E/DX2                !
 ! D119  D(25,28,33,52)         -0.0021         estimate D2E/DX2                !
 ! D120  D(29,28,33,32)         -0.1969         estimate D2E/DX2                !
 ! D121  D(29,28,33,52)        179.9889         estimate D2E/DX2                !
 ! D122  D(28,29,30,31)          0.0375         estimate D2E/DX2                !
 ! D123  D(28,29,30,50)       -179.8574         estimate D2E/DX2                !
 ! D124  D(49,29,30,31)        179.4011         estimate D2E/DX2                !
 ! D125  D(49,29,30,50)         -0.4938         estimate D2E/DX2                !
 ! D126  D(29,30,31,32)         -0.0402         estimate D2E/DX2                !
 ! D127  D(29,30,31,51)       -179.9301         estimate D2E/DX2                !
 ! D128  D(50,30,31,32)        179.8553         estimate D2E/DX2                !
 ! D129  D(50,30,31,51)         -0.0346         estimate D2E/DX2                !
 ! D130  D(30,31,32,33)         -0.0736         estimate D2E/DX2                !
 ! D131  D(51,31,32,33)        179.8215         estimate D2E/DX2                !
 ! D132  D(31,32,33,28)          0.1956         estimate D2E/DX2                !
 ! D133  D(31,32,33,52)       -179.9823         estimate D2E/DX2                !
 --------------------------------------------------------------------------------
 Trust Radius=3.00D-01 FncErr=1.00D-07 GrdErr=1.00D-07
 Number of steps in this run=    290 maximum allowed number of steps=    312.
 GradGradGradGradGradGradGradGradGradGradGradGradGradGradGradGradGradGrad

 Leave Link  103 at Sat Aug 27 07:33:18 2022, MaxMem=  209715200 cpu:       0.1
 (Enter /opt/gaussian/l202.exe)
 Stoichiometry    C25H19ClN6O
 Framework group  C1[X(C25H19ClN6O)]
 Deg. of freedom   150
 Full point group                 C1      NOp   1
 Largest Abelian subgroup         C1      NOp   1
 Largest concise Abelian subgroup C1      NOp   1
                         Standard orientation:                         
 ---------------------------------------------------------------------
 Center     Atomic      Atomic             Coordinates (Angstroms)
 Number     Number       Type             X           Y           Z
 ---------------------------------------------------------------------
      1         17           0       -1.705186    6.079668   -0.264857
      2          6           0       -1.580263    4.422541    0.044522
      3          6           0       -2.020539    3.894525    1.279913
      4          7           0       -1.931865    2.589491    1.583140
      5          6           0       -1.399780    1.761133    0.663308
      6          6           0       -0.944352    2.188959   -0.599512
      7          6           0       -1.039085    3.554221   -0.906855
      8          6           0       -0.382284    1.266659   -1.644130
      9          7           0       -0.000843   -0.061428   -1.227836
     10          6           0       -0.961245   -1.068554   -1.058829
     11          8           0       -0.656620   -2.187146   -0.618849
     12          6           0       -2.403608   -0.733529   -1.486958
     13          7           0       -3.391573   -1.714361   -1.128484
     14          7           0       -3.529991   -2.926189   -1.767642
     15          7           0       -4.194036   -3.747175   -1.091852
     16          6           0       -4.525885   -3.164956    0.176634
     17          6           0       -5.235226   -3.623853    1.285280
     18          6           0       -5.366523   -2.756427    2.365970
     19          6           0       -4.819163   -1.463562    2.350176
     20          6           0       -4.113043   -0.973251    1.255603
     21          6           0       -3.964007   -1.830653    0.165874
     22          6           0        1.348155   -0.256208   -0.822482
     23          6           0        2.067881    0.790001   -0.203731
     24          6           0        3.398287    0.615198    0.155680
     25          6           0        4.053361   -0.601535   -0.076732
     26          6           0        3.338136   -1.643514   -0.681863
     27          6           0        2.008676   -1.481308   -1.055271
     28          6           0        5.446968   -0.778333    0.307736
     29          6           0        5.960021   -0.214792    1.485952
     30          6           0        7.302425   -0.413366    1.807023
     31          6           0        8.098540   -1.175073    0.932879
     32          7           0        7.629772   -1.726447   -0.203825
     33          6           0        6.333327   -1.529434   -0.500552
     34          1           0       -2.457423    4.548660    2.056920
     35          1           0       -1.330733    0.701441    0.975191
     36          1           0       -0.689759    3.933334   -1.879842
     37          1           0       -1.147097    1.178372   -2.473378
     38          1           0        0.529453    1.764968   -2.093405
     39          1           0       -2.717227    0.237344   -1.003121
     40          1           0       -2.408696   -0.618486   -2.610486
     41          1           0       -5.670646   -4.633153    1.301183
     42          1           0       -5.911890   -3.091405    3.261497
     43          1           0       -4.949065   -0.817197    3.232669
     44          1           0       -3.688971    0.040429    1.256338
     45          1           0        1.581504    1.755810    0.005947
     46          1           0        3.942576    1.447911    0.627901
     47          1           0        3.829828   -2.613091   -0.859281
     48          1           0        1.470341   -2.327283   -1.513783
     49          1           0        5.306150    0.367642    2.152264
     50          1           0        7.732864    0.012482    2.722680
     51          1           0        9.166135   -1.357263    1.150404
     52          1           0        5.978886   -1.994276   -1.438680
 ---------------------------------------------------------------------
 Rotational constants (GHZ):      0.1314112      0.0663322      0.0493018
 Leave Link  202 at Sat Aug 27 07:33:18 2022, MaxMem=  209715200 cpu:       0.0
 (Enter /opt/gaussian/l301.exe)
 Standard basis: 6-31G (6D, 7F)
 Ernie: Thresh=  0.10000D-02 Tol=  0.10000D-05 Strict=F.
 There are   339 symmetry adapted basis functions of A   symmetry.
 Integral buffers will be    131072 words long.
 Raffenetti 1 integral format.
 Two-electron integral symmetry is turned on.
   339 basis functions,   826 primitive gaussians,   339 cartesian basis functions
   118 alpha electrons      118 beta electrons
       nuclear repulsion energy      3168.7176056097 Hartrees.
 IExCor=    0 DFT=F Ex=HF Corr=None ExCW=0 ScaHFX=  1.000000
 ScaDFX=  1.000000  1.000000  1.000000  1.000000 ScalE2=  1.000000  1.000000
 IRadAn=      0 IRanWt=     -1 IRanGd=            0 ICorTp=0
 NAtoms=   52 NActive=   52 NUniq=   52 SFac= 1.00D+00 NAtFMM=   60 NAOKFM=F Big=F
 Leave Link  301 at Sat Aug 27 07:33:18 2022, MaxMem=  209715200 cpu:       0.2
 (Enter /opt/gaussian/l302.exe)
 NPDir=0 NMtPBC=     1 NCelOv=     1 NCel=       1 NClECP=     1 NCelD=      1
         NCelK=      1 NCelE2=     1 NClLst=     1 CellRange=     0.0.
 One-electron integrals computed using PRISM.
 NBasis=   339 RedAO= T  NBF=   339
 NBsUse=   339 1.00D-06 NBFU=   339
 Leave Link  302 at Sat Aug 27 07:33:18 2022, MaxMem=  209715200 cpu:       2.0
 (Enter /opt/gaussian/l303.exe)
 DipDrv:  MaxL=1.
 Leave Link  303 at Sat Aug 27 07:33:18 2022, MaxMem=  209715200 cpu:       0.4
 (Enter /opt/gaussian/l401.exe)
 Harris functional with IExCor=  205 diagonalized for initial guess.
 ExpMin= 1.43D-01 ExpMax= 2.52D+04 ExpMxC= 3.78D+03 IAcc=1 IRadAn=         1 AccDes= 0.00D+00
 HarFok:  IExCor=  205 AccDes= 0.00D+00 IRadAn=         1 IDoV= 1
 ScaDFX=  1.000000  1.000000  1.000000  1.000000
 FoFCou: FMM=F IPFlag=           0 FMFlag=      100000 FMFlg1=           0
         NFxFlg=           0 DoJE=T BraDBF=F KetDBF=T FulRan=T
         Omega=  0.000000  0.000000  1.000000  0.000000  0.000000 ICntrl=     500 IOpCl=  0
         NMat0=    1 NMatS0=    1 NMatT0=    0 NMatD0=    1 NMtDS0=    0 NMtDT0=    0
         I1Cent=           4 NGrid=           0.
 Petite list used in FoFCou.
 Harris En= -1819.19191795866    
 Initial guess orbital symmetries:
       Occupied  (A) (A) (A) (A) (A) (A) (A) (A) (A) (A) (A) (A)
                 (A) (A) (A) (A) (A) (A) (A) (A) (A) (A) (A) (A)
                 (A) (A) (A) (A) (A) (A) (A) (A) (A) (A) (A) (A)
                 (A) (A) (A) (A) (A) (A) (A) (A) (A) (A) (A) (A)
                 (A) (A) (A) (A) (A) (A) (A) (A) (A) (A) (A) (A)
                 (A) (A) (A) (A) (A) (A) (A) (A) (A) (A) (A) (A)
                 (A) (A) (A) (A) (A) (A) (A) (A) (A) (A) (A) (A)
                 (A) (A) (A) (A) (A) (A) (A) (A) (A) (A) (A) (A)
                 (A) (A) (A) (A) (A) (A) (A) (A) (A) (A) (A) (A)
                 (A) (A) (A) (A) (A) (A) (A) (A) (A) (A)
       Virtual   (A) (A) (A) (A) (A) (A) (A) (A) (A) (A) (A) (A)
                 (A) (A) (A) (A) (A) (A) (A) (A) (A) (A) (A) (A)
                 (A) (A) (A) (A) (A) (A) (A) (A) (A) (A) (A) (A)
                 (A) (A) (A) (A) (A) (A) (A) (A) (A) (A) (A) (A)
                 (A) (A) (A) (A) (A) (A) (A) (A) (A) (A) (A) (A)
                 (A) (A) (A) (A) (A) (A) (A) (A) (A) (A) (A) (A)
                 (A) (A) (A) (A) (A) (A) (A) (A) (A) (A) (A) (A)
                 (A) (A) (A) (A) (A) (A) (A) (A) (A) (A) (A) (A)
                 (A) (A) (A) (A) (A) (A) (A) (A) (A) (A) (A) (A)
                 (A) (A) (A) (A) (A) (A) (A) (A) (A) (A) (A) (A)
                 (A) (A) (A) (A) (A) (A) (A) (A) (A) (A) (A) (A)
                 (A) (A) (A) (A) (A) (A) (A) (A) (A) (A) (A) (A)
                 (A) (A) (A) (A) (A) (A) (A) (A) (A) (A) (A) (A)
                 (A) (A) (A) (A) (A) (A) (A) (A) (A) (A) (A) (A)
                 (A) (A) (A) (A) (A) (A) (A) (A) (A) (A) (A) (A)
                 (A) (A) (A) (A) (A) (A) (A) (A) (A) (A) (A) (A)
                 (A) (A) (A) (A) (A) (A) (A) (A) (A) (A) (A) (A)
                 (A) (A) (A) (A) (A) (A) (A) (A) (A) (A) (A) (A)
                 (A) (A) (A) (A) (A)
 The electronic state of the initial guess is 1-A.
 Leave Link  401 at Sat Aug 27 07:33:19 2022, MaxMem=  209715200 cpu:       4.8
 (Enter /opt/gaussian/l502.exe)
 Closed shell SCF:
 Requested convergence on RMS density matrix=1.00D-08 within 128 cycles.
 Requested convergence on MAX density matrix=1.00D-06.
 Requested convergence on             energy=1.00D-06.
 No special actions if energy rises.
 Using DIIS extrapolation, IDIIS=  1040.
 Integral symmetry usage will be decided dynamically.
 IEnd=      368236 IEndB=      368236 NGot=   209715200 MDV=   209478865
 LenX=   209478865 LenY=   209363503
 Fock matrices will be formed incrementally for  20 cycles.
 Integral accuracy reduced to 1.0D-05 until final iterations.

 Cycle   1  Pass 0  IDiag  1:
 FoFCou: FMM=F IPFlag=           0 FMFlag=      100000 FMFlg1=           0
         NFxFlg=           0 DoJE=F BraDBF=F KetDBF=F FulRan=T
         Omega=  0.000000  0.000000  1.000000  0.000000  0.000000 ICntrl=       0 IOpCl=  0
         NMat0=    1 NMatS0=    1 NMatT0=    0 NMatD0=    1 NMtDS0=    0 NMtDT0=    0
         I1Cent=           0 NGrid=           0.
 Symmetry not used in FoFCou.
 E= -1817.25731015123    
 DIIS: error= 3.24D-02 at cycle   1 NSaved=   1.
 NSaved= 1 IEnMin= 1 EnMin= -1817.25731015123     IErMin= 1 ErrMin= 3.24D-02
 ErrMax= 3.24D-02 EMaxC= 1.00D-01 BMatC= 1.04D+00 BMatP= 1.04D+00
 IDIUse=3 WtCom= 6.76D-01 WtEn= 3.24D-01
 Coeff-Com:  0.100D+01
 Coeff-En:   0.100D+01
 Coeff:      0.100D+01
 Gap=     0.595 Goal=   None    Shift=    0.000
 GapD=    0.595 DampG=2.000 DampE=0.500 DampFc=1.0000 IDamp=-1.
 RMSDP=5.57D-03 MaxDP=1.73D-01              OVMax= 1.66D-01

 Cycle   2  Pass 0  IDiag  1:
 RMSU=  3.91D-03    CP:  9.71D-01
 E= -1817.95516608854     Delta-E=       -0.697855937310 Rises=F Damp=F
 DIIS: error= 1.87D-02 at cycle   2 NSaved=   2.
 NSaved= 2 IEnMin= 2 EnMin= -1817.95516608854     IErMin= 2 ErrMin= 1.87D-02
 ErrMax= 1.87D-02 EMaxC= 1.00D-01 BMatC= 1.72D-01 BMatP= 1.04D+00
 IDIUse=3 WtCom= 8.13D-01 WtEn= 1.87D-01
 Coeff-Com:  0.230D+00 0.770D+00
 Coeff-En:   0.000D+00 0.100D+01
 Coeff:      0.187D+00 0.813D+00
 Gap=     0.397 Goal=   None    Shift=    0.000
 RMSDP=2.28D-03 MaxDP=8.89D-02 DE=-6.98D-01 OVMax= 1.03D-01

 Cycle   3  Pass 0  IDiag  1:
 RMSU=  1.45D-03    CP:  9.70D-01  8.17D-01
 E= -1818.08847575842     Delta-E=       -0.133309669881 Rises=F Damp=F
 DIIS: error= 9.65D-03 at cycle   3 NSaved=   3.
 NSaved= 3 IEnMin= 3 EnMin= -1818.08847575842     IErMin= 3 ErrMin= 9.65D-03
 ErrMax= 9.65D-03 EMaxC= 1.00D-01 BMatC= 3.21D-02 BMatP= 1.72D-01
 IDIUse=3 WtCom= 9.04D-01 WtEn= 9.65D-02
 Coeff-Com:  0.393D-02 0.286D+00 0.710D+00
 Coeff-En:   0.000D+00 0.000D+00 0.100D+01
 Coeff:      0.355D-02 0.259D+00 0.738D+00
 Gap=     0.374 Goal=   None    Shift=    0.000
 RMSDP=7.85D-04 MaxDP=3.49D-02 DE=-1.33D-01 OVMax= 3.75D-02

 Cycle   4  Pass 0  IDiag  1:
 RMSU=  3.36D-04    CP:  9.70D-01  9.08D-01  8.20D-01
 E= -1818.11677769402     Delta-E=       -0.028301935599 Rises=F Damp=F
 DIIS: error= 2.51D-03 at cycle   4 NSaved=   4.
 NSaved= 4 IEnMin= 4 EnMin= -1818.11677769402     IErMin= 4 ErrMin= 2.51D-03
 ErrMax= 2.51D-03 EMaxC= 1.00D-01 BMatC= 2.68D-03 BMatP= 3.21D-02
 IDIUse=3 WtCom= 9.75D-01 WtEn= 2.51D-02
 Coeff-Com: -0.130D-01 0.253D-01 0.259D+00 0.728D+00
 Coeff-En:   0.000D+00 0.000D+00 0.000D+00 0.100D+01
 Coeff:     -0.127D-01 0.247D-01 0.253D+00 0.735D+00
 Gap=     0.373 Goal=   None    Shift=    0.000
 RMSDP=2.49D-04 MaxDP=9.21D-03 DE=-2.83D-02 OVMax= 8.86D-03

 Cycle   5  Pass 0  IDiag  1:
 RMSU=  1.14D-04    CP:  9.69D-01  9.04D-01  8.97D-01  7.83D-01
 E= -1818.11938820863     Delta-E=       -0.002610514604 Rises=F Damp=F
 DIIS: error= 9.26D-04 at cycle   5 NSaved=   5.
 NSaved= 5 IEnMin= 5 EnMin= -1818.11938820863     IErMin= 5 ErrMin= 9.26D-04
 ErrMax= 9.26D-04 EMaxC= 1.00D-01 BMatC= 1.03D-04 BMatP= 2.68D-03
 IDIUse=3 WtCom= 9.91D-01 WtEn= 9.26D-03
 Coeff-Com: -0.138D-02-0.150D-01-0.109D-01 0.766D-01 0.951D+00
 Coeff-En:   0.000D+00 0.000D+00 0.000D+00 0.000D+00 0.100D+01
 Coeff:     -0.137D-02-0.149D-01-0.108D-01 0.759D-01 0.951D+00
 Gap=     0.373 Goal=   None    Shift=    0.000
 RMSDP=7.64D-05 MaxDP=1.95D-03 DE=-2.61D-03 OVMax= 5.35D-03

 Cycle   6  Pass 0  IDiag  1:
 RMSU=  4.11D-05    CP:  9.69D-01  9.04D-01  9.13D-01  8.38D-01  1.16D+00
 E= -1818.11964929264     Delta-E=       -0.000261084016 Rises=F Damp=F
 DIIS: error= 3.50D-04 at cycle   6 NSaved=   6.
 NSaved= 6 IEnMin= 6 EnMin= -1818.11964929264     IErMin= 6 ErrMin= 3.50D-04
 ErrMax= 3.50D-04 EMaxC= 1.00D-01 BMatC= 2.75D-05 BMatP= 1.03D-04
 IDIUse=3 WtCom= 9.96D-01 WtEn= 3.50D-03
 Coeff-Com:  0.240D-02-0.853D-02-0.517D-01-0.150D+00 0.167D+00 0.104D+01
 Coeff-En:   0.000D+00 0.000D+00 0.000D+00 0.000D+00 0.000D+00 0.100D+01
 Coeff:      0.240D-02-0.850D-02-0.515D-01-0.149D+00 0.167D+00 0.104D+01
 Gap=     0.374 Goal=   None    Shift=    0.000
 RMSDP=5.10D-05 MaxDP=1.83D-03 DE=-2.61D-04 OVMax= 2.99D-03

 Cycle   7  Pass 0  IDiag  1:
 RMSU=  1.60D-05    CP:  9.69D-01  9.03D-01  9.23D-01  8.48D-01  1.40D+00
                    CP:  1.18D+00
 E= -1818.11973479780     Delta-E=       -0.000085505158 Rises=F Damp=F
 DIIS: error= 1.76D-04 at cycle   7 NSaved=   7.
 NSaved= 7 IEnMin= 7 EnMin= -1818.11973479780     IErMin= 7 ErrMin= 1.76D-04
 ErrMax= 1.76D-04 EMaxC= 1.00D-01 BMatC= 3.43D-06 BMatP= 2.75D-05
 IDIUse=3 WtCom= 9.98D-01 WtEn= 1.76D-03
 Coeff-Com: -0.578D-04 0.232D-02 0.806D-02-0.505D-03-0.117D+00-0.107D+00
 Coeff-Com:  0.121D+01
 Coeff-En:   0.000D+00 0.000D+00 0.000D+00 0.000D+00 0.000D+00 0.000D+00
 Coeff-En:   0.100D+01
 Coeff:     -0.577D-04 0.232D-02 0.805D-02-0.504D-03-0.117D+00-0.107D+00
 Coeff:      0.121D+01
 Gap=     0.374 Goal=   None    Shift=    0.000
 RMSDP=1.95D-05 MaxDP=6.66D-04 DE=-8.55D-05 OVMax= 1.57D-03

 Cycle   8  Pass 0  IDiag  1:
 RMSU=  6.24D-06    CP:  9.69D-01  9.03D-01  9.25D-01  8.48D-01  1.46D+00
                    CP:  1.35D+00  1.38D+00
 E= -1818.11974844168     Delta-E=       -0.000013643880 Rises=F Damp=F
 DIIS: error= 5.52D-05 at cycle   8 NSaved=   8.
 NSaved= 8 IEnMin= 8 EnMin= -1818.11974844168     IErMin= 8 ErrMin= 5.52D-05
 ErrMax= 5.52D-05 EMaxC= 1.00D-01 BMatC= 7.73D-07 BMatP= 3.43D-06
 IDIUse=1 WtCom= 1.00D+00 WtEn= 0.00D+00
 Coeff-Com: -0.535D-03 0.248D-02 0.142D-01 0.315D-01-0.584D-01-0.264D+00
 Coeff-Com:  0.291D+00 0.984D+00
 Coeff:     -0.535D-03 0.248D-02 0.142D-01 0.315D-01-0.584D-01-0.264D+00
 Coeff:      0.291D+00 0.984D+00
 Gap=     0.374 Goal=   None    Shift=    0.000
 RMSDP=8.37D-06 MaxDP=2.46D-04 DE=-1.36D-05 OVMax= 6.71D-04

 Initial convergence to 1.0D-05 achieved.  Increase integral accuracy.
 Cycle   9  Pass 1  IDiag  1:
 E= -1818.11975218455     Delta-E=       -0.000003742875 Rises=F Damp=F
 DIIS: error= 7.00D-05 at cycle   1 NSaved=   1.
 NSaved= 1 IEnMin= 1 EnMin= -1818.11975218455     IErMin= 1 ErrMin= 7.00D-05
 ErrMax= 7.00D-05 EMaxC= 1.00D-01 BMatC= 1.78D-06 BMatP= 1.78D-06
 IDIUse=1 WtCom= 1.00D+00 WtEn= 0.00D+00
 Coeff-Com:  0.100D+01
 Coeff:      0.100D+01
 Gap=     0.374 Goal=   None    Shift=    0.000
 RMSDP=8.37D-06 MaxDP=2.46D-04 DE=-3.74D-06 OVMax= 1.93D-04

 Cycle  10  Pass 1  IDiag  1:
 RMSU=  3.74D-05    CP:  1.00D+00
 E= -1818.11975413121     Delta-E=       -0.000001946652 Rises=F Damp=F
 DIIS: error= 1.40D-05 at cycle   2 NSaved=   2.
 NSaved= 2 IEnMin= 2 EnMin= -1818.11975413121     IErMin= 2 ErrMin= 1.40D-05
 ErrMax= 1.40D-05 EMaxC= 1.00D-01 BMatC= 4.03D-08 BMatP= 1.78D-06
 IDIUse=1 WtCom= 1.00D+00 WtEn= 0.00D+00
 Coeff-Com: -0.385D-01 0.104D+01
 Coeff:     -0.385D-01 0.104D+01
 Gap=     0.374 Goal=   None    Shift=    0.000
 RMSDP=3.18D-06 MaxDP=5.74D-05 DE=-1.95D-06 OVMax= 1.27D-04

 Cycle  11  Pass 1  IDiag  1:
 RMSU=  1.02D-06    CP:  1.00D+00  1.05D+00
 E= -1818.11975425789     Delta-E=       -0.000000126686 Rises=F Damp=F
 DIIS: error= 9.05D-06 at cycle   3 NSaved=   3.
 NSaved= 3 IEnMin= 3 EnMin= -1818.11975425789     IErMin= 3 ErrMin= 9.05D-06
 ErrMax= 9.05D-06 EMaxC= 1.00D-01 BMatC= 1.76D-08 BMatP= 4.03D-08
 IDIUse=1 WtCom= 1.00D+00 WtEn= 0.00D+00
 Coeff-Com: -0.232D-01 0.256D+00 0.767D+00
 Coeff:     -0.232D-01 0.256D+00 0.767D+00
 Gap=     0.374 Goal=   None    Shift=    0.000
 RMSDP=6.46D-07 MaxDP=2.34D-05 DE=-1.27D-07 OVMax= 6.19D-05

 Cycle  12  Pass 1  IDiag  1:
 RMSU=  4.36D-07    CP:  1.00D+00  1.06D+00  1.11D+00
 E= -1818.11975430186     Delta-E=       -0.000000043968 Rises=F Damp=F
 DIIS: error= 6.50D-06 at cycle   4 NSaved=   4.
 NSaved= 4 IEnMin= 4 EnMin= -1818.11975430186     IErMin= 4 ErrMin= 6.50D-06
 ErrMax= 6.50D-06 EMaxC= 1.00D-01 BMatC= 6.52D-09 BMatP= 1.76D-08
 IDIUse=1 WtCom= 1.00D+00 WtEn= 0.00D+00
 Coeff-Com:  0.281D-01-0.673D+00-0.210D+00 0.185D+01
 Coeff:      0.281D-01-0.673D+00-0.210D+00 0.185D+01
 Gap=     0.374 Goal=   None    Shift=    0.000
 RMSDP=1.17D-06 MaxDP=2.83D-05 DE=-4.40D-08 OVMax= 1.33D-04

 Cycle  13  Pass 1  IDiag  1:
 RMSU=  3.15D-07    CP:  1.00D+00  1.06D+00  1.71D+00  2.00D+00
 E= -1818.11975434441     Delta-E=       -0.000000042553 Rises=F Damp=F
 DIIS: error= 1.22D-06 at cycle   5 NSaved=   5.
 NSaved= 5 IEnMin= 5 EnMin= -1818.11975434441     IErMin= 5 ErrMin= 1.22D-06
 ErrMax= 1.22D-06 EMaxC= 1.00D-01 BMatC= 3.39D-10 BMatP= 6.52D-09
 IDIUse=1 WtCom= 1.00D+00 WtEn= 0.00D+00
 Coeff-Com:  0.729D-02-0.150D+00-0.932D-01 0.354D+00 0.882D+00
 Coeff:      0.729D-02-0.150D+00-0.932D-01 0.354D+00 0.882D+00
 Gap=     0.374 Goal=   None    Shift=    0.000
 RMSDP=1.76D-07 MaxDP=4.50D-06 DE=-4.26D-08 OVMax= 1.92D-05

 Cycle  14  Pass 1  IDiag  1:
 RMSU=  7.22D-08    CP:  1.00D+00  1.06D+00  1.76D+00  2.17D+00  1.17D+00
 E= -1818.11975434563     Delta-E=       -0.000000001221 Rises=F Damp=F
 DIIS: error= 5.89D-07 at cycle   6 NSaved=   6.
 NSaved= 6 IEnMin= 6 EnMin= -1818.11975434563     IErMin= 6 ErrMin= 5.89D-07
 ErrMax= 5.89D-07 EMaxC= 1.00D-01 BMatC= 6.69D-11 BMatP= 3.39D-10
 IDIUse=1 WtCom= 1.00D+00 WtEn= 0.00D+00
 Coeff-Com: -0.380D-02 0.938D-01 0.276D-01-0.279D+00 0.128D+00 0.103D+01
 Coeff:     -0.380D-02 0.938D-01 0.276D-01-0.279D+00 0.128D+00 0.103D+01
 Gap=     0.374 Goal=   None    Shift=    0.000
 RMSDP=7.45D-08 MaxDP=1.58D-06 DE=-1.22D-09 OVMax= 8.11D-06

 Cycle  15  Pass 1  IDiag  1:
 RMSU=  2.94D-08    CP:  1.00D+00  1.06D+00  1.77D+00  2.22D+00  1.27D+00
                    CP:  1.17D+00
 E= -1818.11975434584     Delta-E=       -0.000000000204 Rises=F Damp=F
 DIIS: error= 1.86D-07 at cycle   7 NSaved=   7.
 NSaved= 7 IEnMin= 7 EnMin= -1818.11975434584     IErMin= 7 ErrMin= 1.86D-07
 ErrMax= 1.86D-07 EMaxC= 1.00D-01 BMatC= 7.93D-12 BMatP= 6.69D-11
 IDIUse=1 WtCom= 1.00D+00 WtEn= 0.00D+00
 Coeff-Com: -0.852D-03 0.171D-01 0.139D-01-0.449D-01-0.113D+00-0.246D-01
 Coeff-Com:  0.115D+01
 Coeff:     -0.852D-03 0.171D-01 0.139D-01-0.449D-01-0.113D+00-0.246D-01
 Coeff:      0.115D+01
 Gap=     0.374 Goal=   None    Shift=    0.000
 RMSDP=2.90D-08 MaxDP=7.83D-07 DE=-2.04D-10 OVMax= 2.68D-06

 Cycle  16  Pass 1  IDiag  1:
 RMSU=  1.08D-08    CP:  1.00D+00  1.06D+00  1.77D+00  2.23D+00  1.29D+00
                    CP:  1.32D+00  1.35D+00
 E= -1818.11975434588     Delta-E=       -0.000000000046 Rises=F Damp=F
 DIIS: error= 7.16D-08 at cycle   8 NSaved=   8.
 NSaved= 8 IEnMin= 8 EnMin= -1818.11975434588     IErMin= 8 ErrMin= 7.16D-08
 ErrMax= 7.16D-08 EMaxC= 1.00D-01 BMatC= 2.16D-12 BMatP= 7.93D-12
 IDIUse=1 WtCom= 1.00D+00 WtEn= 0.00D+00
 Coeff-Com:  0.414D-03-0.115D-01 0.108D-02 0.358D-01-0.618D-01-0.206D+00
 Coeff-Com:  0.401D+00 0.842D+00
 Coeff:      0.414D-03-0.115D-01 0.108D-02 0.358D-01-0.618D-01-0.206D+00
 Coeff:      0.401D+00 0.842D+00
 Gap=     0.374 Goal=   None    Shift=    0.000
 RMSDP=1.06D-08 MaxDP=3.37D-07 DE=-4.64D-11 OVMax= 9.69D-07

 Cycle  17  Pass 1  IDiag  1:
 RMSU=  5.06D-09    CP:  1.00D+00  1.06D+00  1.77D+00  2.23D+00  1.29D+00
                    CP:  1.35D+00  1.52D+00  9.72D-01
 E= -1818.11975434586     Delta-E=        0.000000000027 Rises=F Damp=F
 DIIS: error= 5.24D-08 at cycle   9 NSaved=   9.
 NSaved= 9 IEnMin= 8 EnMin= -1818.11975434588     IErMin= 9 ErrMin= 5.24D-08
 ErrMax= 5.24D-08 EMaxC= 1.00D-01 BMatC= 1.78D-13 BMatP= 2.16D-12
 IDIUse=1 WtCom= 1.00D+00 WtEn= 0.00D+00
 Coeff-Com:  0.998D-04-0.213D-02-0.943D-03 0.505D-02 0.955D-02-0.475D-02
 Coeff-Com: -0.825D-01-0.540D-02 0.108D+01
 Coeff:      0.998D-04-0.213D-02-0.943D-03 0.505D-02 0.955D-02-0.475D-02
 Coeff:     -0.825D-01-0.540D-02 0.108D+01
 Gap=     0.374 Goal=   None    Shift=    0.000
 RMSDP=3.99D-09 MaxDP=1.44D-07 DE= 2.73D-11 OVMax= 4.65D-07

 SCF Done:  E(RHF) =  -1818.11975435     A.U. after   17 cycles
             Convg  =    0.3993D-08             -V/T =  2.0003
 KE= 1.817653373663D+03 PE=-1.059988448666D+04 EE= 3.795393753037D+03
 Leave Link  502 at Sat Aug 27 07:34:45 2022, MaxMem=  209715200 cpu:     685.7
 (Enter /opt/gaussian/l601.exe)
 Copying SCF densities to generalized density rwf, IOpCl= 0 IROHF=0.

 **********************************************************************

            Population analysis using the SCF density.

 **********************************************************************

 Orbital symmetries:
       Occupied  (A) (A) (A) (A) (A) (A) (A) (A) (A) (A) (A) (A)
                 (A) (A) (A) (A) (A) (A) (A) (A) (A) (A) (A) (A)
                 (A) (A) (A) (A) (A) (A) (A) (A) (A) (A) (A) (A)
                 (A) (A) (A) (A) (A) (A) (A) (A) (A) (A) (A) (A)
                 (A) (A) (A) (A) (A) (A) (A) (A) (A) (A) (A) (A)
                 (A) (A) (A) (A) (A) (A) (A) (A) (A) (A) (A) (A)
                 (A) (A) (A) (A) (A) (A) (A) (A) (A) (A) (A) (A)
                 (A) (A) (A) (A) (A) (A) (A) (A) (A) (A) (A) (A)
                 (A) (A) (A) (A) (A) (A) (A) (A) (A) (A) (A) (A)
                 (A) (A) (A) (A) (A) (A) (A) (A) (A) (A)
       Virtual   (A) (A) (A) (A) (A) (A) (A) (A) (A) (A) (A) (A)
                 (A) (A) (A) (A) (A) (A) (A) (A) (A) (A) (A) (A)
                 (A) (A) (A) (A) (A) (A) (A) (A) (A) (A) (A) (A)
                 (A) (A) (A) (A) (A) (A) (A) (A) (A) (A) (A) (A)
                 (A) (A) (A) (A) (A) (A) (A) (A) (A) (A) (A) (A)
                 (A) (A) (A) (A) (A) (A) (A) (A) (A) (A) (A) (A)
                 (A) (A) (A) (A) (A) (A) (A) (A) (A) (A) (A) (A)
                 (A) (A) (A) (A) (A) (A) (A) (A) (A) (A) (A) (A)
                 (A) (A) (A) (A) (A) (A) (A) (A) (A) (A) (A) (A)
                 (A) (A) (A) (A) (A) (A) (A) (A) (A) (A) (A) (A)
                 (A) (A) (A) (A) (A) (A) (A) (A) (A) (A) (A) (A)
                 (A) (A) (A) (A) (A) (A) (A) (A) (A) (A) (A) (A)
                 (A) (A) (A) (A) (A) (A) (A) (A) (A) (A) (A) (A)
                 (A) (A) (A) (A) (A) (A) (A) (A) (A) (A) (A) (A)
                 (A) (A) (A) (A) (A) (A) (A) (A) (A) (A) (A) (A)
                 (A) (A) (A) (A) (A) (A) (A) (A) (A) (A) (A) (A)
                 (A) (A) (A) (A) (A) (A) (A) (A) (A) (A) (A) (A)
                 (A) (A) (A) (A) (A) (A) (A) (A) (A) (A) (A) (A)
                 (A) (A) (A) (A) (A)
 The electronic state is 1-A.
 Alpha  occ. eigenvalues -- -104.85549 -20.56641 -15.67595 -15.66166 -15.63954
 Alpha  occ. eigenvalues --  -15.62772 -15.62325 -15.58441 -11.40728 -11.35122
 Alpha  occ. eigenvalues --  -11.33796 -11.33257 -11.32684 -11.32257 -11.31161
 Alpha  occ. eigenvalues --  -11.31080 -11.31076 -11.30656 -11.28859 -11.28786
 Alpha  occ. eigenvalues --  -11.28609 -11.27145 -11.26789 -11.26742 -11.26684
 Alpha  occ. eigenvalues --  -11.26502 -11.26450 -11.26433 -11.26041 -11.26005
 Alpha  occ. eigenvalues --  -11.25594 -11.25455 -11.25437 -10.59769  -8.06644
 Alpha  occ. eigenvalues --   -8.06184  -8.06171  -1.46820  -1.42269  -1.31525
 Alpha  occ. eigenvalues --   -1.29892  -1.27194  -1.25085  -1.21402  -1.17812
 Alpha  occ. eigenvalues --   -1.17394  -1.13912  -1.10856  -1.06789  -1.05356
 Alpha  occ. eigenvalues --   -1.05212  -1.04946  -1.03579  -1.02774  -1.00743
 Alpha  occ. eigenvalues --   -0.98286  -0.90288  -0.89775  -0.88712  -0.87587
 Alpha  occ. eigenvalues --   -0.86636  -0.85024  -0.84253  -0.83465  -0.80781
 Alpha  occ. eigenvalues --   -0.77605  -0.75004  -0.74058  -0.73324  -0.72586
 Alpha  occ. eigenvalues --   -0.72381  -0.71261  -0.69675  -0.68307  -0.67992
 Alpha  occ. eigenvalues --   -0.66678  -0.65798  -0.65217  -0.64754  -0.63831
 Alpha  occ. eigenvalues --   -0.62886  -0.62647  -0.62176  -0.61693  -0.61518
 Alpha  occ. eigenvalues --   -0.61053  -0.60711  -0.59975  -0.58856  -0.58167
 Alpha  occ. eigenvalues --   -0.57473  -0.57230  -0.55575  -0.55091  -0.54412
 Alpha  occ. eigenvalues --   -0.54068  -0.53511  -0.52071  -0.51751  -0.51382
 Alpha  occ. eigenvalues --   -0.51068  -0.50292  -0.49959  -0.49477  -0.46288
 Alpha  occ. eigenvalues --   -0.44870  -0.43414  -0.43089  -0.41815  -0.41073
 Alpha  occ. eigenvalues --   -0.40902  -0.38893  -0.37072  -0.36539  -0.35273
 Alpha  occ. eigenvalues --   -0.34108  -0.33044  -0.30360
 Alpha virt. eigenvalues --    0.07005   0.08319   0.08790   0.09053   0.11375
 Alpha virt. eigenvalues --    0.12576   0.13573   0.14114   0.17116   0.18318
 Alpha virt. eigenvalues --    0.19251   0.20121   0.22393   0.22829   0.23125
 Alpha virt. eigenvalues --    0.23875   0.24555   0.25731   0.26809   0.27210
 Alpha virt. eigenvalues --    0.27548   0.27686   0.28841   0.29117   0.30103
 Alpha virt. eigenvalues --    0.30790   0.31083   0.31819   0.32367   0.32396
 Alpha virt. eigenvalues --    0.33257   0.33665   0.35103   0.36035   0.36453
 Alpha virt. eigenvalues --    0.36700   0.37887   0.38370   0.39009   0.40217
 Alpha virt. eigenvalues --    0.40692   0.41132   0.41379   0.42765   0.43046
 Alpha virt. eigenvalues --    0.43787   0.46237   0.46719   0.47568   0.48157
 Alpha virt. eigenvalues --    0.49140   0.50128   0.50732   0.51302   0.52016
 Alpha virt. eigenvalues --    0.54344   0.54547   0.55493   0.56093   0.56189
 Alpha virt. eigenvalues --    0.57182   0.58207   0.59272   0.60018   0.60671
 Alpha virt. eigenvalues --    0.62451   0.63126   0.65261   0.65958   0.69081
 Alpha virt. eigenvalues --    0.70761   0.71673   0.72198   0.72687   0.73802
 Alpha virt. eigenvalues --    0.73944   0.75143   0.75299   0.76068   0.76173
 Alpha virt. eigenvalues --    0.76737   0.77177   0.78256   0.78601   0.79254
 Alpha virt. eigenvalues --    0.79449   0.79821   0.80117   0.81443   0.81943
 Alpha virt. eigenvalues --    0.82301   0.82836   0.82900   0.83263   0.83801
 Alpha virt. eigenvalues --    0.84027   0.84249   0.84772   0.85124   0.85589
 Alpha virt. eigenvalues --    0.85860   0.86137   0.86554   0.87170   0.87595
 Alpha virt. eigenvalues --    0.87881   0.88779   0.88939   0.89503   0.90263
 Alpha virt. eigenvalues --    0.90507   0.90779   0.91279   0.92071   0.92430
 Alpha virt. eigenvalues --    0.93400   0.93856   0.93980   0.94905   0.95069
 Alpha virt. eigenvalues --    0.95628   0.95986   0.96940   0.98285   0.99115
 Alpha virt. eigenvalues --    0.99984   1.00485   1.00864   1.02063   1.02654
 Alpha virt. eigenvalues --    1.03603   1.06009   1.06532   1.08227   1.08490
 Alpha virt. eigenvalues --    1.08745   1.09067   1.09594   1.09996   1.10257
 Alpha virt. eigenvalues --    1.10757   1.11194   1.11623   1.12053   1.12302
 Alpha virt. eigenvalues --    1.12377   1.13087   1.13728   1.14641   1.14996
 Alpha virt. eigenvalues --    1.16100   1.16492   1.16692   1.18051   1.18779
 Alpha virt. eigenvalues --    1.19761   1.20855   1.20985   1.22337   1.22782
 Alpha virt. eigenvalues --    1.23384   1.24195   1.25316   1.25577   1.27545
 Alpha virt. eigenvalues --    1.27923   1.28292   1.29627   1.29998   1.30204
 Alpha virt. eigenvalues --    1.30821   1.31291   1.32709   1.33833   1.35362
 Alpha virt. eigenvalues --    1.35643   1.36651   1.37597   1.38590   1.38681
 Alpha virt. eigenvalues --    1.39711   1.40704   1.41341   1.41954   1.42963
 Alpha virt. eigenvalues --    1.44020   1.44920   1.46674   1.48171   1.48862
 Alpha virt. eigenvalues --    1.50177   1.50950   1.51274   1.52874   1.54605
 Alpha virt. eigenvalues --    1.57211   1.58175   1.59137   1.61128   1.65156
 Alpha virt. eigenvalues --    1.66337   1.66588   1.69723   1.70418   1.71376
 Alpha virt. eigenvalues --    1.72990   1.73669   1.75056   1.77226   1.79219
 Alpha virt. eigenvalues --    1.84459   1.85976   1.97051   2.00384   2.02636
 Alpha virt. eigenvalues --    2.05332   2.09540   2.15342   2.23000   2.23308
 Alpha virt. eigenvalues --    2.32174
          Condensed to atoms (all electrons):
 Mulliken atomic charges:
              1
     1  Cl   0.195324
     2  C   -0.413111
     3  C    0.104029
     4  N   -0.518888
     5  C    0.036255
     6  C   -0.050647
     7  C   -0.105018
     8  C   -0.132518
     9  N   -0.983553
    10  C    0.780511
    11  O   -0.571735
    12  C   -0.145890
    13  N   -0.786556
    14  N    0.117710
    15  N   -0.310172
    16  C    0.034618
    17  C   -0.104394
    18  C   -0.232812
    19  C   -0.204362
    20  C   -0.132131
    21  C    0.376632
    22  C    0.344009
    23  C   -0.220747
    24  C   -0.198880
    25  C   -0.026387
    26  C   -0.207597
    27  C   -0.154582
    28  C   -0.088816
    29  C   -0.141360
    30  C   -0.246751
    31  C    0.049318
    32  N   -0.529265
    33  C    0.055773
    34  H    0.247134
    35  H    0.248161
    36  H    0.256063
    37  H    0.208590
    38  H    0.228217
    39  H    0.224574
    40  H    0.250482
    41  H    0.247705
    42  H    0.210813
    43  H    0.218455
    44  H    0.246740
    45  H    0.223572
    46  H    0.220950
    47  H    0.231114
    48  H    0.267317
    49  H    0.228949
    50  H    0.218191
    51  H    0.212617
    52  H    0.222349
 Sum of Mulliken atomic charges =   0.00000
 Mulliken charges with hydrogens summed into heavy atoms:
              1
     1  Cl   0.195324
     2  C   -0.413111
     3  C    0.351162
     4  N   -0.518888
     5  C    0.284417
     6  C   -0.050647
     7  C    0.151046
     8  C    0.304290
     9  N   -0.983553
    10  C    0.780511
    11  O   -0.571735
    12  C    0.329166
    13  N   -0.786556
    14  N    0.117710
    15  N   -0.310172
    16  C    0.034618
    17  C    0.143311
    18  C   -0.022000
    19  C    0.014094
    20  C    0.114609
    21  C    0.376632
    22  C    0.344009
    23  C    0.002825
    24  C    0.022070
    25  C   -0.026387
    26  C    0.023517
    27  C    0.112735
    28  C   -0.088816
    29  C    0.087588
    30  C   -0.028560
    31  C    0.261935
    32  N   -0.529265
    33  C    0.278123
 Sum of Mulliken charges with hydrogens summed into heavy atoms =   0.00000
 Electronic spatial extent (au):  <R**2>=          20737.8240
 Charge=              0.0000 electrons
 Dipole moment (field-independent basis, Debye):
    X=             -0.4981    Y=              7.3180    Z=              1.4216  Tot=              7.4714
 Quadrupole moment (field-independent basis, Debye-Ang):
   XX=           -214.4796   YY=           -221.4732   ZZ=           -192.7802
   XY=              2.4257   XZ=              1.8827   YZ=            -13.9252
 Traceless Quadrupole moment (field-independent basis, Debye-Ang):
   XX=             -4.9020   YY=            -11.8955   ZZ=             16.7975
   XY=              2.4257   XZ=              1.8827   YZ=            -13.9252
 Octapole moment (field-independent basis, Debye-Ang**2):
  XXX=           -131.9959  YYY=             55.7014  ZZZ=              2.3413  XYY=              9.2639
  XXY=             99.3645  XXZ=            208.9685  XZZ=              0.1981  YZZ=             27.4253
  YYZ=             46.6461  XYZ=             61.7267
 Hexadecapole moment (field-independent basis, Debye-Ang**3):
 XXXX=         -20033.2847 YYYY=          -8700.0319 ZZZZ=          -1798.9097 XXXY=            757.9157
 XXXZ=            708.2346 YYYX=            -42.0508 YYYZ=           -143.3724 ZZZX=            -32.8372
 ZZZY=            -64.5067 XXYY=          -4825.6588 XXZZ=          -3220.7933 YYZZ=          -1670.0188
 XXYZ=           -325.7808 YYXZ=           -301.1044 ZZXY=            -18.5182
 N-N= 3.168717605610D+03 E-N=-1.059988448565D+04  KE= 1.817653373663D+03
 No NMR shielding tensors so no spin-rotation constants.
 Leave Link  601 at Sat Aug 27 07:34:45 2022, MaxMem=  209715200 cpu:       1.5
 (Enter /opt/gaussian/l701.exe)
 Compute integral first derivatives.
 ... and contract with generalized density number  0.
 Leave Link  701 at Sat Aug 27 07:34:45 2022, MaxMem=  209715200 cpu:       1.3
 (Enter /opt/gaussian/l702.exe)
 L702 exits ... SP integral derivatives will be done elsewhere.
 Leave Link  702 at Sat Aug 27 07:34:45 2022, MaxMem=  209715200 cpu:       0.2
 (Enter /opt/gaussian/l703.exe)
 Compute integral first derivatives, UseDBF=F ICtDFT=           0.
 Integral derivatives from FoFDir, PRISM(SPDF).
 Calling FoFJK, ICntrl=      2127 FMM=F ISym2X=0 I1Cent= 0 IOpClX= 0 NMat=1 NMatS=1 NMatT=0.
 FoFCou: FMM=F IPFlag=           0 FMFlag=      100000 FMFlg1=         800
         NFxFlg=           0 DoJE=F BraDBF=F KetDBF=F FulRan=T
         Omega=  0.000000  0.000000  1.000000  0.000000  0.000000 ICntrl=    2127 IOpCl=  0
         NMat0=    1 NMatS0=    1 NMatT0=    0 NMatD0=    1 NMtDS0=    0 NMtDT0=    0
         I1Cent=           0 NGrid=           0.
 Symmetry not used in FoFCou.
 Leave Link  703 at Sat Aug 27 07:35:17 2022, MaxMem=  209715200 cpu:     254.5
 (Enter /opt/gaussian/l716.exe)
 Dipole        =-1.95967185D-01 2.87912907D+00 5.59298656D-01
 ***** Axes restored to original set *****
 -------------------------------------------------------------------
 Center     Atomic                   Forces (Hartrees/Bohr)
 Number     Number              X              Y              Z
 -------------------------------------------------------------------
      1       17           0.017945539   -0.054921157   -0.009298028
      2        6          -0.020871940    0.073384636    0.018856852
      3        6           0.004777165   -0.006970909    0.004898266
      4        7          -0.004619552   -0.014362123   -0.024803519
      5        6          -0.006546321    0.010954452    0.001214911
      6        6           0.010664543   -0.007010708    0.022840427
      7        6           0.003585134   -0.002895218    0.004627954
      8        6           0.002536663   -0.015004252   -0.044403685
      9        7           0.016300245    0.018239618    0.011814933
     10        6          -0.022929349    0.017742467    0.005449742
     11        8           0.024301658   -0.027424446   -0.010048192
     12        6           0.010183191   -0.020284976   -0.020361920
     13        7          -0.002257697    0.011911291    0.052806551
     14        7          -0.002522935   -0.010718862   -0.013455798
     15        7           0.008416308   -0.007329527    0.029134324
     16        6          -0.011496739   -0.044969953   -0.015836353
     17        6          -0.000273978    0.011138432   -0.004372872
     18        6           0.005631441    0.009813400    0.010427332
     19        6           0.001078869   -0.009433728    0.008848783
     20        6          -0.004446584   -0.011270458   -0.004123601
     21        6           0.006308627    0.041079842   -0.021040345
     22        6          -0.026393683    0.002519302    0.006092361
     23        6           0.014086892   -0.000093834   -0.002383046
     24        6          -0.003228906   -0.005457020    0.003597675
     25        6           0.018713559    0.001075316   -0.004345706
     26        6          -0.002600543    0.005545540   -0.002446739
     27        6           0.008458600    0.007252863   -0.006994727
     28        6          -0.029882890    0.001357312    0.000585898
     29        6           0.000376895   -0.002668790    0.003313072
     30        6          -0.007887615    0.000650195   -0.002003890
     31        6          -0.012454024   -0.002068801    0.004676330
     32        7           0.018509559   -0.009736466    0.016831258
     33        6           0.002076088    0.004356281   -0.006134260
     34        1          -0.012691751    0.010628780   -0.019585800
     35        1           0.005360628   -0.024807369   -0.007436026
     36        1           0.004721577    0.006951922    0.018084755
     37        1          -0.022056137   -0.009738199    0.018460131
     38        1           0.022230952    0.022384091    0.009303582
     39        1          -0.012149303    0.024942598   -0.020281445
     40        1           0.001159836    0.001863558    0.029943420
     41        1          -0.003742213   -0.019635347   -0.000477187
     42        1          -0.007745836   -0.008338214   -0.016700012
     43        1          -0.004707146    0.011000334   -0.016676864
     44        1           0.005154184    0.019281652    0.001911779
     45        1          -0.013958422    0.016620552   -0.004192096
     46        1           0.007101239    0.016618573   -0.010172626
     47        1           0.014276574   -0.015201539    0.004456047
     48        1          -0.006983122   -0.022485564    0.010716091
     49        1          -0.014182980    0.008411603   -0.011733026
     50        1           0.004951624    0.009171633   -0.015943996
     51        1           0.023708343    0.001074682   -0.003825679
     52        1          -0.005986268   -0.013143464    0.020184964
 -------------------------------------------------------------------
 Cartesian Forces:  Max     0.073384636 RMS     0.016432377
 Leave Link  716 at Sat Aug 27 07:35:17 2022, MaxMem=  209715200 cpu:       0.2
 (Enter /opt/gaussian/l103.exe)

 GradGradGradGradGradGradGradGradGradGradGradGradGradGradGradGradGradGrad
 Berny optimization.
 Internal  Forces:  Max     0.058518414 RMS     0.010378410
 Search for a local minimum.
 Step number   1 out of a maximum of  290
 All quantities printed in internal units (Hartrees-Bohrs-Radians)
 RMS Force = .10378D-01 SwitMx=.10000D-02 MixMth= 1
 Mixed Optimization -- RFO/linear search
 Second derivative matrix not updated -- first step.
 ITU=  0
     Eigenvalues ---    0.00230   0.00732   0.00807   0.01121   0.01195
     Eigenvalues ---    0.01342   0.01401   0.01401   0.01483   0.01576
     Eigenvalues ---    0.01667   0.01672   0.01745   0.01765   0.01771
     Eigenvalues ---    0.01775   0.01850   0.01972   0.01978   0.01991
     Eigenvalues ---    0.02024   0.02038   0.02050   0.02054   0.02056
     Eigenvalues ---    0.02072   0.02075   0.02087   0.02091   0.02092
     Eigenvalues ---    0.02095   0.02107   0.02112   0.02117   0.02125
     Eigenvalues ---    0.02126   0.02128   0.02143   0.02156   0.02164
     Eigenvalues ---    0.02179   0.02182   0.02183   0.02319   0.02328
     Eigenvalues ---    0.04585   0.04801   0.06491   0.06519   0.10315
     Eigenvalues ---    0.10829   0.13470   0.13765   0.15995   0.15999
     Eigenvalues ---    0.15999   0.15999   0.16000   0.16000   0.16000
     Eigenvalues ---    0.16000   0.16000   0.16000   0.16000   0.16000
     Eigenvalues ---    0.16000   0.16000   0.16000   0.22000   0.22000
     Eigenvalues ---    0.22000   0.22085   0.22159   0.22580   0.22870
     Eigenvalues ---    0.22957   0.23196   0.23201   0.23410   0.23444
     Eigenvalues ---    0.23497   0.23998   0.24427   0.24585   0.24766
     Eigenvalues ---    0.24838   0.24967   0.24989   0.24991   0.24996
     Eigenvalues ---    0.25000   0.25000   0.25000   0.25000   0.28394
     Eigenvalues ---    0.30377   0.30422   0.30628   0.30651   0.32107
     Eigenvalues ---    0.32942   0.33063   0.33098   0.33172   0.33397
     Eigenvalues ---    0.33509   0.33516   0.33516   0.33549   0.33559
     Eigenvalues ---    0.33602   0.33644   0.33756   0.33814   0.33932
     Eigenvalues ---    0.35061   0.37073   0.37414   0.38080   0.39160
     Eigenvalues ---    0.39920   0.40497   0.40635   0.40854   0.41516
     Eigenvalues ---    0.41547   0.42162   0.42767   0.43185   0.43416
     Eigenvalues ---    0.43462   0.43813   0.44009   0.44498   0.44731
     Eigenvalues ---    0.45312   0.45457   0.45738   0.46065   0.46082
     Eigenvalues ---    0.46783   0.46850   0.47365   0.47769   0.53786
     Eigenvalues ---    0.53887   0.55123   0.55427   0.77503   0.87039
 RFO step:  Lambda=-7.21916585D-02 EMin= 2.30000000D-03
 Linear search not attempted -- first point.
 Maximum step size (   0.300) exceeded in Quadratic search.
    -- Step size scaled by   0.737
 Iteration  1 RMS(Cart)=  0.11267635 RMS(Int)=  0.00193664
 Iteration  2 RMS(Cart)=  0.00576777 RMS(Int)=  0.00010424
 Iteration  3 RMS(Cart)=  0.00001124 RMS(Int)=  0.00010415
 Iteration  4 RMS(Cart)=  0.00000000 RMS(Int)=  0.00010415
 Variable       Old X    -DE/DX   Delta X   Delta X   Delta X     New X
                                 (Linear)    (Quad)   (Total)
    R1        3.19436   0.05852   0.00000   0.09735   0.09735   3.29171
    R2        2.67170  -0.02860   0.00000  -0.04196  -0.04197   2.62973
    R3        2.64019  -0.01725   0.00000  -0.02378  -0.02379   2.61641
    R4        2.53739  -0.01884   0.00000  -0.02207  -0.02207   2.51533
    R5        2.08941  -0.02556   0.00000  -0.04676  -0.04676   2.04264
    R6        2.54614  -0.01542   0.00000  -0.01813  -0.01813   2.52802
    R7        2.66255  -0.02497   0.00000  -0.03550  -0.03549   2.62705
    R8        2.09153  -0.02635   0.00000  -0.04835  -0.04835   2.04319
    R9        2.65059  -0.00998   0.00000  -0.01365  -0.01366   2.63693
   R10        2.83949   0.01239   0.00000   0.02321   0.02321   2.86270
   R11        2.08081  -0.01988   0.00000  -0.03593  -0.03593   2.04488
   R12        2.72711   0.01390   0.00000   0.02209   0.02209   2.74920
   R13        2.13830  -0.02995   0.00000  -0.05862  -0.05862   2.07968
   R14        2.13917  -0.03258   0.00000  -0.06385  -0.06385   2.07532
   R15        2.64915  -0.01473   0.00000  -0.02066  -0.02066   2.62849
   R16        2.68717   0.01062   0.00000   0.01585   0.01585   2.70302
   R17        2.34328  -0.03702   0.00000  -0.02894  -0.02894   2.31434
   R18        2.91284  -0.01096   0.00000  -0.02267  -0.02267   2.89017
   R19        2.71662  -0.00892   0.00000  -0.01395  -0.01395   2.70267
   R20        2.13384  -0.03379   0.00000  -0.06575  -0.06575   2.06809
   R21        2.13428  -0.02988   0.00000  -0.05817  -0.05817   2.07612
   R22        2.60221  -0.01001   0.00000  -0.01187  -0.01192   2.59029
   R23        2.68352  -0.03105   0.00000  -0.04728  -0.04730   2.63622
   R24        2.36908  -0.00408   0.00000  -0.00231  -0.00234   2.36674
   R25        2.71105  -0.02655   0.00000  -0.04095  -0.04091   2.67015
   R26        2.63402  -0.01180   0.00000  -0.01692  -0.01690   2.61712
   R27        2.73599  -0.04520   0.00000  -0.07643  -0.07635   2.65964
   R28        2.63043  -0.01175   0.00000  -0.01533  -0.01534   2.61509
   R29        2.07744  -0.01999   0.00000  -0.03595  -0.03595   2.04149
   R30        2.65327  -0.00790   0.00000  -0.00974  -0.00977   2.64350
   R31        2.08008  -0.02021   0.00000  -0.03647  -0.03647   2.04360
   R32        2.63012  -0.00977   0.00000  -0.01247  -0.01249   2.61762
   R33        2.08166  -0.02053   0.00000  -0.03713  -0.03713   2.04453
   R34        2.63538  -0.00863   0.00000  -0.01246  -0.01245   2.62292
   R35        2.07645  -0.01985   0.00000  -0.03565  -0.03565   2.04080
   R36        2.66941  -0.02001   0.00000  -0.02947  -0.02948   2.63993
   R37        2.66669  -0.01837   0.00000  -0.02698  -0.02699   2.63970
   R38        2.62510  -0.00591   0.00000  -0.00796  -0.00796   2.61714
[...]
 ! D127  D(29,30,31,51)       -179.7422         -DE/DX =    0.0                 !
 ! D128  D(50,30,31,32)        179.6478         -DE/DX =    0.0                 !
 ! D129  D(50,30,31,51)         -0.3101         -DE/DX =    0.0                 !
 ! D130  D(30,31,32,33)         -0.0874         -DE/DX =    0.0                 !
 ! D131  D(51,31,32,33)        179.8725         -DE/DX =    0.0                 !
 ! D132  D(31,32,33,28)         -0.11           -DE/DX =    0.0                 !
 ! D133  D(31,32,33,52)        178.9335         -DE/DX =    0.0                 !
 --------------------------------------------------------------------------------
 GradGradGradGradGradGradGradGradGradGradGradGradGradGradGradGradGradGrad

 Largest change from initial coordinates is atom   43       1.058 Angstoms.
 Leave Link  103 at Sat Aug 27 08:09:21 2022, MaxMem=  209715200 cpu:       0.7
 (Enter /opt/gaussian/l202.exe)
 Stoichiometry    C25H19ClN6O
 Framework group  C1[X(C25H19ClN6O)]
 Deg. of freedom   150
 Full point group                 C1      NOp   1
 RotChk:  IX=0 Diff= 2.58D-16
 Largest Abelian subgroup         C1      NOp   1
 Largest concise Abelian subgroup C1      NOp   1
                         Standard orientation:                         
 ---------------------------------------------------------------------
 Center     Atomic      Atomic             Coordinates (Angstroms)
 Number     Number       Type             X           Y           Z
 ---------------------------------------------------------------------
      1         17           0       -3.004458    5.968072   -0.425444
      2          6           0       -2.246960    4.434414    0.126460
      3          6           0       -2.282998    4.099458    1.467745
      4          7           0       -1.733232    2.972096    1.899110
      5          6           0       -1.134237    2.149493    1.036321
      6          6           0       -1.058403    2.416400   -0.323195
      7          6           0       -1.639332    3.597811   -0.781037
      8          6           0       -0.367790    1.498911   -1.318419
      9          7           0        0.026428    0.188499   -0.800742
     10          6           0       -0.871310   -0.836994   -0.620405
     11          8           0       -0.555543   -1.904673   -0.122413
     12          6           0       -2.306142   -0.588948   -1.070885
     13          7           0       -3.123768   -1.752767   -0.933130
     14          7           0       -3.399260   -2.511406   -2.033753
     15          7           0       -4.101565   -3.509542   -1.693482
     16          6           0       -4.318768   -3.461322   -0.325364
     17          6           0       -5.028735   -4.321444    0.511347
     18          6           0       -5.072504   -4.004946    1.846845
     19          6           0       -4.418655   -2.855573    2.344531
     20          6           0       -3.714396   -2.004239    1.526997
     21          6           0       -3.679390   -2.331592    0.169155
     22          6           0        1.422603   -0.029944   -0.531643
     23          6           0        2.133099    0.871010    0.248301
     24          6           0        3.491740    0.695007    0.460966
     25          6           0        4.168452   -0.390419   -0.086791
     26          6           0        3.440373   -1.292321   -0.863060
     27          6           0        2.087956   -1.113853   -1.091088
     28          6           0        5.621272   -0.583100    0.148013
     29          6           0        6.188314   -0.426049    1.411110
     30          6           0        7.550346   -0.615899    1.581014
     31          6           0        8.316982   -0.962799    0.480810
     32          7           0        7.784791   -1.114007   -0.730300
     33          6           0        6.478541   -0.929508   -0.894655
     34          1           0       -2.751864    4.731414    2.190635
     35          1           0       -0.708957    1.261420    1.453588
     36          1           0       -1.617396    3.857309   -1.821645
     37          1           0       -1.002866    1.380151   -2.187797
     38          1           0        0.533787    1.977547   -1.672895
     39          1           0       -2.739630    0.229518   -0.512127
     40          1           0       -2.324652   -0.325504   -2.118000
     41          1           0       -5.513978   -5.189753    0.113707
     42          1           0       -5.604844   -4.636102    2.530502
     43          1           0       -4.470779   -2.647256    3.395515
     44          1           0       -3.208714   -1.145302    1.919895
     45          1           0        1.639333    1.713374    0.690217
     46          1           0        4.026006    1.417026    1.047545
     47          1           0        3.929619   -2.150311   -1.280791
     48          1           0        1.547870   -1.828791   -1.675457
     49          1           0        5.568699   -0.178555    2.251162
     50          1           0        8.004895   -0.506572    2.545164
     51          1           0        9.371881   -1.124048    0.562744
     52          1           0        6.107625   -1.046824   -1.892471
 ---------------------------------------------------------------------
 Rotational constants (GHZ):      0.1247024      0.0644885      0.0470383
 Leave Link  202 at Sat Aug 27 08:09:21 2022, MaxMem=  209715200 cpu:       0.0
 (Enter /opt/gaussian/l601.exe)
 Copying SCF densities to generalized density rwf, IOpCl= 0 IROHF=0.

 **********************************************************************

            Population analysis using the SCF density.

 **********************************************************************

 Orbital symmetries:
       Occupied  (A) (A) (A) (A) (A) (A) (A) (A) (A) (A) (A) (A)
                 (A) (A) (A) (A) (A) (A) (A) (A) (A) (A) (A) (A)
                 (A) (A) (A) (A) (A) (A) (A) (A) (A) (A) (A) (A)
                 (A) (A) (A) (A) (A) (A) (A) (A) (A) (A) (A) (A)
                 (A) (A) (A) (A) (A) (A) (A) (A) (A) (A) (A) (A)
                 (A) (A) (A) (A) (A) (A) (A) (A) (A) (A) (A) (A)
                 (A) (A) (A) (A) (A) (A) (A) (A) (A) (A) (A) (A)
                 (A) (A) (A) (A) (A) (A) (A) (A) (A) (A) (A) (A)
                 (A) (A) (A) (A) (A) (A) (A) (A) (A) (A) (A) (A)
                 (A) (A) (A) (A) (A) (A) (A) (A) (A) (A)
       Virtual   (A) (A) (A) (A) (A) (A) (A) (A) (A) (A) (A) (A)
                 (A) (A) (A) (A) (A) (A) (A) (A) (A) (A) (A) (A)
                 (A) (A) (A) (A) (A) (A) (A) (A) (A) (A) (A) (A)
                 (A) (A) (A) (A) (A) (A) (A) (A) (A) (A) (A) (A)
                 (A) (A) (A) (A) (A) (A) (A) (A) (A) (A) (A) (A)
                 (A) (A) (A) (A) (A) (A) (A) (A) (A) (A) (A) (A)
                 (A) (A) (A) (A) (A) (A) (A) (A) (A) (A) (A) (A)
                 (A) (A) (A) (A) (A) (A) (A) (A) (A) (A) (A) (A)
                 (A) (A) (A) (A) (A) (A) (A) (A) (A) (A) (A) (A)
                 (A) (A) (A) (A) (A) (A) (A) (A) (A) (A) (A) (A)
                 (A) (A) (A) (A) (A) (A) (A) (A) (A) (A) (A) (A)
                 (A) (A) (A) (A) (A) (A) (A) (A) (A) (A) (A) (A)
                 (A) (A) (A) (A) (A) (A) (A) (A) (A) (A) (A) (A)
                 (A) (A) (A) (A) (A) (A) (A) (A) (A) (A) (A) (A)
                 (A) (A) (A) (A) (A) (A) (A) (A) (A) (A) (A) (A)
                 (A) (A) (A) (A) (A) (A) (A) (A) (A) (A) (A) (A)
                 (A) (A) (A) (A) (A) (A) (A) (A) (A) (A) (A) (A)
                 (A) (A) (A) (A) (A) (A) (A) (A) (A) (A) (A) (A)
                 (A) (A) (A) (A) (A)
 The electronic state is 1-A.
 Alpha  occ. eigenvalues -- -104.84876 -20.56010 -15.66818 -15.65949 -15.63344
 Alpha  occ. eigenvalues --  -15.61656 -15.61519 -15.57929 -11.39845 -11.35033
 Alpha  occ. eigenvalues --  -11.32516 -11.32100 -11.31894 -11.31357 -11.30611
 Alpha  occ. eigenvalues --  -11.30540 -11.30276 -11.29880 -11.28295 -11.28192
 Alpha  occ. eigenvalues --  -11.26893 -11.26874 -11.26763 -11.26648 -11.26049
 Alpha  occ. eigenvalues --  -11.25783 -11.25687 -11.25552 -11.25541 -11.25532
 Alpha  occ. eigenvalues --  -11.25409 -11.25409 -11.24369 -10.58789  -8.05639
 Alpha  occ. eigenvalues --   -8.05242  -8.05224  -1.47938  -1.43324  -1.32333
 Alpha  occ. eigenvalues --   -1.29689  -1.28373  -1.25490  -1.18757  -1.18477
 Alpha  occ. eigenvalues --   -1.18093  -1.13895  -1.11376  -1.07640  -1.06709
 Alpha  occ. eigenvalues --   -1.05963  -1.05576  -1.04466  -1.02992  -1.01742
 Alpha  occ. eigenvalues --   -0.99406  -0.90881  -0.90011  -0.89148  -0.88173
 Alpha  occ. eigenvalues --   -0.87240  -0.85580  -0.84916  -0.84771  -0.81808
 Alpha  occ. eigenvalues --   -0.78509  -0.76225  -0.74653  -0.74247  -0.73419
 Alpha  occ. eigenvalues --   -0.72708  -0.72121  -0.70319  -0.69177  -0.68460
 Alpha  occ. eigenvalues --   -0.67332  -0.65872  -0.65765  -0.64746  -0.64413
 Alpha  occ. eigenvalues --   -0.63625  -0.63225  -0.62678  -0.62489  -0.62160
 Alpha  occ. eigenvalues --   -0.62010  -0.61540  -0.61050  -0.59482  -0.58776
 Alpha  occ. eigenvalues --   -0.58093  -0.56949  -0.56124  -0.55333  -0.54623
 Alpha  occ. eigenvalues --   -0.53996  -0.53634  -0.52543  -0.51968  -0.51155
 Alpha  occ. eigenvalues --   -0.50953  -0.50631  -0.49804  -0.48613  -0.45519
 Alpha  occ. eigenvalues --   -0.44373  -0.43684  -0.42713  -0.42694  -0.41397
 Alpha  occ. eigenvalues --   -0.40748  -0.39186  -0.37954  -0.37077  -0.35764
 Alpha  occ. eigenvalues --   -0.34043  -0.32440  -0.31922
 Alpha virt. eigenvalues --    0.07562   0.09122   0.09423   0.09511   0.11703
 Alpha virt. eigenvalues --    0.12145   0.14551   0.15604   0.15972   0.17315
 Alpha virt. eigenvalues --    0.19443   0.20473   0.22986   0.23715   0.23959
 Alpha virt. eigenvalues --    0.24503   0.25025   0.25263   0.27400   0.28135
 Alpha virt. eigenvalues --    0.28436   0.28871   0.29389   0.30035   0.30475
 Alpha virt. eigenvalues --    0.31263   0.31768   0.32306   0.32475   0.32885
 Alpha virt. eigenvalues --    0.33668   0.33883   0.35374   0.35861   0.36674
 Alpha virt. eigenvalues --    0.36887   0.39004   0.39507   0.39810   0.40368
 Alpha virt. eigenvalues --    0.41033   0.41612   0.42148   0.43521   0.44059
 Alpha virt. eigenvalues --    0.44632   0.46529   0.47698   0.48141   0.48630
 Alpha virt. eigenvalues --    0.49673   0.50420   0.51495   0.51956   0.52428
 Alpha virt. eigenvalues --    0.53212   0.53919   0.56179   0.56647   0.56797
 Alpha virt. eigenvalues --    0.58465   0.58977   0.59802   0.60817   0.61522
 Alpha virt. eigenvalues --    0.61857   0.63923   0.65198   0.65426   0.69012
 Alpha virt. eigenvalues --    0.70765   0.71165   0.72070   0.72905   0.73714
 Alpha virt. eigenvalues --    0.74318   0.75030   0.75569   0.75810   0.76386
 Alpha virt. eigenvalues --    0.76784   0.77786   0.77927   0.78373   0.79370
 Alpha virt. eigenvalues --    0.79628   0.80275   0.81365   0.81676   0.81995
 Alpha virt. eigenvalues --    0.82232   0.82766   0.83008   0.83414   0.83824
 Alpha virt. eigenvalues --    0.84132   0.84501   0.85156   0.85513   0.85576
 Alpha virt. eigenvalues --    0.85979   0.86227   0.86903   0.87004   0.87643
 Alpha virt. eigenvalues --    0.88073   0.88544   0.89633   0.90109   0.90441
 Alpha virt. eigenvalues --    0.90729   0.90907   0.92047   0.92579   0.92919
 Alpha virt. eigenvalues --    0.93560   0.94054   0.95258   0.95477   0.95638
 Alpha virt. eigenvalues --    0.96033   0.97102   0.97543   0.98868   0.99457
 Alpha virt. eigenvalues --    0.99883   1.00163   1.01259   1.02068   1.02550
 Alpha virt. eigenvalues --    1.05086   1.07071   1.08475   1.08758   1.09496
 Alpha virt. eigenvalues --    1.09935   1.10073   1.10401   1.11610   1.11639
 Alpha virt. eigenvalues --    1.11936   1.12110   1.13005   1.13319   1.13995
 Alpha virt. eigenvalues --    1.14401   1.14579   1.14882   1.15119   1.15814
 Alpha virt. eigenvalues --    1.16240   1.17004   1.18222   1.18943   1.19389
 Alpha virt. eigenvalues --    1.19948   1.20971   1.21352   1.22028   1.22802
 Alpha virt. eigenvalues --    1.23404   1.24207   1.25230   1.26785   1.27247
 Alpha virt. eigenvalues --    1.27609   1.28250   1.29473   1.29691   1.29947
 Alpha virt. eigenvalues --    1.30719   1.31548   1.32815   1.32989   1.34168
 Alpha virt. eigenvalues --    1.35238   1.36499   1.37801   1.38111   1.38714
 Alpha virt. eigenvalues --    1.38788   1.39606   1.41303   1.42343   1.44021
 Alpha virt. eigenvalues --    1.44310   1.45964   1.46826   1.47533   1.48491
 Alpha virt. eigenvalues --    1.49440   1.51090   1.52143   1.52496   1.54574
 Alpha virt. eigenvalues --    1.56554   1.59535   1.60442   1.61106   1.62524
 Alpha virt. eigenvalues --    1.66805   1.67845   1.70669   1.71786   1.73316
 Alpha virt. eigenvalues --    1.74308   1.74820   1.75126   1.78542   1.80360
 Alpha virt. eigenvalues --    1.86768   1.89430   1.95672   2.02933   2.05546
 Alpha virt. eigenvalues --    2.07178   2.10545   2.15259   2.23862   2.24757
 Alpha virt. eigenvalues --    2.33915
          Condensed to atoms (all electrons):
 Mulliken atomic charges:
              1
     1  Cl   0.139989
     2  C   -0.364937
     3  C    0.108644
     4  N   -0.521424
     5  C    0.048313
     6  C   -0.077310
     7  C   -0.113178
     8  C   -0.075683
     9  N   -0.990008
    10  C    0.785686
    11  O   -0.561285
    12  C   -0.129744
    13  N   -0.884773
    14  N    0.093980
    15  N   -0.332323
    16  C   -0.020876
    17  C   -0.078045
    18  C   -0.233267
    19  C   -0.205031
    20  C   -0.067219
    21  C    0.489157
    22  C    0.320886
    23  C   -0.208832
    24  C   -0.202620
    25  C   -0.016179
    26  C   -0.207151
    27  C   -0.142867
    28  C   -0.090522
    29  C   -0.138892
    30  C   -0.245246
    31  C    0.059287
    32  N   -0.532291
    33  C    0.060738
    34  H    0.248165
    35  H    0.247143
    36  H    0.253682
    37  H    0.199185
    38  H    0.233461
    39  H    0.232905
    40  H    0.250223
    41  H    0.241632
    42  H    0.205485
    43  H    0.207783
    44  H    0.227223
    45  H    0.221845
    46  H    0.219656
    47  H    0.227477
    48  H    0.243414
    49  H    0.225878
    50  H    0.216230
    51  H    0.212588
    52  H    0.219054
 Sum of Mulliken atomic charges =   0.00000
 Mulliken charges with hydrogens summed into heavy atoms:
              1
     1  Cl   0.139989
     2  C   -0.364937
     3  C    0.356808
     4  N   -0.521424
     5  C    0.295456
     6  C   -0.077310
     7  C    0.140504
     8  C    0.356962
     9  N   -0.990008
    10  C    0.785686
    11  O   -0.561285
    12  C    0.353384
    13  N   -0.884773
    14  N    0.093980
    15  N   -0.332323
    16  C   -0.020876
    17  C    0.163587
    18  C   -0.027782
    19  C    0.002751
    20  C    0.160004
    21  C    0.489157
    22  C    0.320886
    23  C    0.013013
    24  C    0.017036
    25  C   -0.016179
    26  C    0.020326
    27  C    0.100547
    28  C   -0.090522
    29  C    0.086986
    30  C   -0.029017
    31  C    0.271875
    32  N   -0.532291
    33  C    0.279792
 Sum of Mulliken charges with hydrogens summed into heavy atoms =   0.00000
 Electronic spatial extent (au):  <R**2>=          21582.0367
 Charge=              0.0000 electrons
 Dipole moment (field-independent basis, Debye):
    X=              0.4804    Y=              5.0109    Z=              2.3943  Tot=              5.5743
 Quadrupole moment (field-independent basis, Debye-Ang):
   XX=           -212.6935   YY=           -216.6540   ZZ=           -198.0213
   XY=              2.9024   XZ=              3.8936   YZ=            -15.7653
 Traceless Quadrupole moment (field-independent basis, Debye-Ang):
   XX=             -3.5706   YY=             -7.5310   ZZ=             11.1016
   XY=              2.9024   XZ=              3.8936   YZ=            -15.7653
 Octapole moment (field-independent basis, Debye-Ang**2):
  XXX=            -87.3114  YYY=            -18.2946  ZZZ=             17.9681  XYY=             -0.7646
  XXY=             16.8871  XXZ=            232.8895  XZZ=             19.2960  YZZ=             25.8912
  YYZ=             45.3320  XYZ=             56.4014
 Hexadecapole moment (field-independent basis, Debye-Ang**3):
 XXXX=         -20320.2162 YYYY=          -9289.7593 ZZZZ=          -1750.1236 XXXY=            366.2741
 XXXZ=           1073.3624 YYYX=            244.4293 YYYZ=            -90.2811 ZZZX=            -53.3018
 ZZZY=           -170.0072 XXYY=          -4801.3273 XXZZ=          -3495.8616 YYZZ=          -1802.3270
 XXYZ=           -364.4457 YYXZ=           -290.1764 ZZXY=            -87.0604
 N-N= 3.149766788280D+03 E-N=-1.056379304136D+04  KE= 1.819601245810D+03
 No NMR shielding tensors so no spin-rotation constants.
 Leave Link  601 at Sat Aug 27 08:09:21 2022, MaxMem=  209715200 cpu:       1.4
 (Enter /opt/gaussian/l9999.exe)
 1\1\GINC-LQCAPF-6\FOpt\RHF\6-31G\C25H19Cl1N6O1\LQCAPF-6\27-Aug-2022\0\
 \#p opt hf/6-31G\\Mol34.out\\0,1\Cl,24.8971896888,-14.559068548,-2.671
 7752302\C,23.9249837792,-13.2440780442,-1.9260367667\C,23.9477633863,-
 13.0725124775,-0.5539631896\N,23.2408401736,-12.1078713349,0.019615481
 3\C,22.4947742201,-11.2930191683,-0.7282334184\C,22.4214839749,-11.402
 0540829,-2.1095420658\C,23.1668702378,-12.4114754501,-2.7164176678\C,2
 1.5661482375,-10.4928187175,-2.9760832623\N,20.986592766,-9.3344740318
 ,-2.2956926119\C,21.7171195886,-8.2083991717,-1.9984101634\O,21.252537
 7222,-7.2729782429,-1.3684934993\C,23.1590947561,-8.1680611739,-2.4906
 328873\N,23.7875545372,-6.9140837195,-2.217610418\N,23.9077246028,-5.9
 93645305,-3.2181866326\N,24.4543706852,-4.9449013638,-2.7636478866\C,2
 4.7169506542,-5.1231073328,-1.4143725413\C,25.3075633168,-4.2684522207
 ,-0.4844855111\C,25.4400962086,-4.733216329,0.8008431096\C,24.98989519
 91,-6.0238368418,1.158454041\C,24.4041063914,-6.871292689,0.2486286279
 \C,24.2778563892,-6.3917921394,-1.057610565\C,19.5820446962,-9.3756960
 202,-1.9875031402\C,19.0452927301,-10.4661271983,-1.3184064734\C,17.68
 27856358,-10.5361118,-1.071860832\C,16.8280795741,-9.514286769,-1.4737
 028005\C,17.3821483861,-8.420566715,-2.1392118775\C,18.7384435137,-8.3
 521299679,-2.4012453227\C,15.3706413325,-9.5856309085,-1.2021700434\C,
 14.8730266953,-9.9828273044,0.037276795\C,13.5037288215,-10.0346101593
 ,0.2431496803\C,12.659827293,-9.6838274559,-0.7976673098\N,13.12549864
 12,-9.3042063996,-1.9859088848\C,14.4390564038,-9.2567487772,-2.185049
 3664\H,24.5312857314,-13.7043973064,0.0800693553\H,21.9478940359,-10.5
 412623387,-0.1996211149\H,23.1550851747,-12.5432577294,-3.7809270712\H
 ,22.1486172555,-10.169945243,-3.8303228719\H,20.7407955369,-11.0626428
 329,-3.3781774057\H,23.7321096832,-8.9684545341,-2.0422659917\H,23.187
 6616358,-8.2964716614,-3.562495823\H,25.6384274301,-3.2922043423,-0.77
 60471626\H,25.886775565,-4.1126928636,1.552215225\H,25.105245424,-6.34
 68384193,2.174841876\H,24.0514537385,-7.8410441038,0.5368548569\H,19.6
 780969495,-11.2661785588,-0.9895460929\H,17.2861641473,-11.3997206153,
 -0.5741674147\H,16.7520711503,-7.6074127758,-2.4421814095\H,19.1419872
 341,-7.4947980142,-2.8976833574\H,15.5484688377,-10.2281742089,0.83379
 86418\H,13.1007979929,-10.3309222675,1.1907776124\H,11.5955962586,-9.7
 040011696,-0.6857236007\H,14.7571759795,-8.961873155,-3.1642456183\\Ve
 rsion=EM64L-G09RevC.01\State=1-A\HF=-1818.1665685\RMSD=4.573e-09\RMSF=
 1.556e-06\Dipole=0.150928,-2.0756817,0.6916692\Quadrupole=-3.6653955,-
 7.3152674,10.9806629,3.3425193,-3.9707982,9.1094181\PG=C01 [X(C25H19Cl
 1N6O1)]\\@


 IN SO FAR AS QUANTUM MECHANICS IS CORRECT, CHEMICAL 
 QUESTIONS ARE PROBLEMS IN APPLIED MATHEMATICS.

                    -- EYRING, WALTER, & KIMBALL, 1944
 Job cpu time:  0 days  4 hours 46 minutes 45.6 seconds.
 File lengths (MBytes):  RWF=     78 Int=      0 D2E=      0 Chk=     11 Scr=      1
 Normal termination of Gaussian 09 at Sat Aug 27 08:09:21 2022.
