 Entering Gaussian System, Link 0=g09
 Input=Mol37.gjf
 Output=Mol37.log
 Initial command:
 /opt/gaussian/l1.exe /home/scr/lqcapf-6/Gau-6488.inp -scrdir=/home/scr/lqcapf-6/
 Entering Link 1 = /opt/gaussian/l1.exe PID=      6491.
  
 Copyright (c) 1988,1990,1992,1993,1995,1998,2003,2009,2011,
            Gaussian, Inc.  All Rights Reserved.
  
 This is part of the Gaussian(R) 09 program.  It is based on
 the Gaussian(R) 03 system (copyright 2003, Gaussian, Inc.),
 the Gaussian(R) 98 system (copyright 1998, Gaussian, Inc.),
 the Gaussian(R) 94 system (copyright 1995, Gaussian, Inc.),
 the Gaussian 92(TM) system (copyright 1992, Gaussian, Inc.),
 the Gaussian 90(TM) system (copyright 1990, Gaussian, Inc.),
 the Gaussian 88(TM) system (copyright 1988, Gaussian, Inc.),
 the Gaussian 86(TM) system (copyright 1986, Carnegie Mellon
 University), and the Gaussian 82(TM) system (copyright 1983,
 Carnegie Mellon University). Gaussian is a federally registered
 trademark of Gaussian, Inc.
  
 This software contains proprietary and confidential information,
 including trade secrets, belonging to Gaussian, Inc.
  
 This software is provided under written license and may be
 used, copied, transmitted, or stored only in accord with that
 written license.
  
 The following legend is applicable only to US Government
 contracts under FAR:
  
                    RESTRICTED RIGHTS LEGEND
  
 Use, reproduction and disclosure by the US Government is
 subject to restrictions as set forth in subparagraphs (a)
 and (c) of the Commercial Computer Software - Restricted
 Rights clause in FAR 52.227-19.
  
 Gaussian, Inc.
 340 Quinnipiac St., Bldg. 40, Wallingford CT 06492
  
  
 ---------------------------------------------------------------
 Warning -- This program may not be used in any manner that
 competes with the business of Gaussian, Inc. or will provide
 assistance to any competitor of Gaussian, Inc.  The licensee
 of this program is prohibited from giving any competitor of
 Gaussian, Inc. access to this program.  By using this program,
 the user acknowledges that Gaussian, Inc. is engaged in the
 business of creating and licensing software in the field of
 computational chemistry and represents and warrants to the
 licensee that it is not a competitor of Gaussian, Inc. and that
 it will not use this program in any manner prohibited above.
 ---------------------------------------------------------------
  

 Cite this work as:
 Gaussian 09, Revision C.01,
 M. J. Frisch, G. W. Trucks, H. B. Schlegel, G. E. Scuseria, 
 M. A. Robb, J. R. Cheeseman, G. Scalmani, V. Barone, B. Mennucci, 
 G. A. Petersson, H. Nakatsuji, M. Caricato, X. Li, H. P. Hratchian, 
 A. F. Izmaylov, J. Bloino, G. Zheng, J. L. Sonnenberg, M. Hada, 
 M. Ehara, K. Toyota, R. Fukuda, J. Hasegawa, M. Ishida, T. Nakajima, 
 Y. Honda, O. Kitao, H. Nakai, T. Vreven, J. A. Montgomery, Jr., 
 J. E. Peralta, F. Ogliaro, M. Bearpark, J. J. Heyd, E. Brothers, 
 K. N. Kudin, V. N. Staroverov, T. Keith, R. Kobayashi, J. Normand, 
 K. Raghavachari, A. Rendell, J. C. Burant, S. S. Iyengar, J. Tomasi, 
 M. Cossi, N. Rega, J. M. Millam, M. Klene, J. E. Knox, J. B. Cross, 
 V. Bakken, C. Adamo, J. Jaramillo, R. Gomperts, R. E. Stratmann, 
 O. Yazyev, A. J. Austin, R. Cammi, C. Pomelli, J. W. Ochterski, 
 R. L. Martin, K. Morokuma, V. G. Zakrzewski, G. A. Voth, 
 P. Salvador, J. J. Dannenberg, S. Dapprich, A. D. Daniels, 
 O. Farkas, J. B. Foresman, J. V. Ortiz, J. Cioslowski, 
 and D. J. Fox, Gaussian, Inc., Wallingford CT, 2010.
 
 ******************************************
 Gaussian 09:  EM64L-G09RevC.01 23-Sep-2011
                30-Aug-2022 
 ******************************************
 %nprocshared=8
 Will use up to    8 processors via shared memory.
 %mem=1600MB
 ---------------
 #p opt hf/6-31G
 ---------------
 1/18=20,19=15,38=1/1,3;
 2/9=110,12=2,17=6,18=5,40=1/2;
 3/5=1,6=6,11=9,16=1,25=1,30=1,71=1/1,2,3;
 4//1;
 5/5=2,38=5/2;
 6/7=2,8=2,9=2,10=2,28=1/1;
 7//1,2,3,16;
 1/18=20,19=15/3(2);
 2/9=110/2;
 99//99;
 2/9=110/2;
 3/5=1,6=6,11=9,16=1,25=1,30=1,71=1/1,2,3;
 4/5=5,16=3/1;
 5/5=2,38=5/2;
 7//1,2,3,16;
 1/18=20,19=15/3(-5);
 2/9=110/2;
 6/7=2,8=2,9=2,10=2,19=2,28=1/1;
 99/9=1/99;
 Leave Link    1 at Tue Aug 30 11:25:15 2022, MaxMem=  209715200 cpu:       0.2
 (Enter /opt/gaussian/l101.exe)
 ---------
 Mol37.out
 ---------
 Charge =  0 Multiplicity = 1
 Symbolic Z-Matrix:
 C                     15.7088  -6.5687   -1.9211 
 C                     15.2051  -7.8017   -1.3533 
 C                     15.1775  -5.3274   -1.5588 
 C                     14.1644  -7.7737   -0.4222 
 C                     14.1436  -5.3373   -0.6318 
 C                     13.6489  -6.5315   -0.0749 
 N                     16.7217  -6.999    -2.806 
 N                     15.9709  -8.8535   -1.9448 
 N                     16.8145  -8.3615   -2.7388 
 C                     17.5867  -6.138    -3.5657 
 C                     18.4296  -5.1924   -2.6891 
 N                     19.4702  -5.6993   -1.9312 
 O                     18.1305  -3.982    -2.6521 
 C                     20.2262  -4.8241   -1.0531 
 C                     23.8209  -4.047    -1.9861 
 C                     23.6651  -2.9203   -2.7991 
 C                     22.7091  -4.682    -1.4244 
 C                     22.3837  -2.4329   -3.0539 
 C                     21.4305  -4.1809   -1.6807 
 C                     21.2683  -3.0601   -2.5021 
 Cl                    25.3791  -4.6558   -1.6777 
 C                     21.1092  -8.6642   -3.5049 
 C                     21.0572  -9.601    -2.461 
 C                     20.586   -7.3868   -3.3458 
 C                     20.4627  -9.2235   -1.247 
 C                     19.983   -7.0119   -2.1278 
 C                     19.9294  -7.9515   -1.0776 
 C                     21.5961  -10.9207  -2.6334 
 C                     21.8643  -11.5991  -3.8403 
 C                     21.9804  -11.8653  -1.5982 
 N                     22.3696  -12.847   -3.483 
 N                     22.4411  -13.0103  -2.1599 
 H                     15.5754  -4.3937   -1.9835 
 H                     13.7753  -8.7043    0.0145 
 H                     13.6963  -4.3804   -0.3198 
 H                     12.8302  -6.4742    0.6585 
 H                     18.2654  -6.7547   -4.2213 
 H                     16.9412  -5.4777   -4.2169 
 H                     19.5293  -4.0089   -0.6966 
 H                     20.5495  -5.4363   -0.1619 
 H                     24.5442  -2.422    -3.2345 
 H                     22.8411  -5.5711   -0.7883 
 H                     22.2554  -1.5464   -3.6927 
 H                     20.2518  -2.683    -2.7074 
 H                     21.5788  -8.94     -4.4613 
 H                     20.6557  -6.6674   -4.1767 
 H                     20.4064  -9.9483   -0.4202 
 H                     19.4589  -7.6858   -0.1178 
 H                     21.7262  -11.2957  -4.8771 
 H                     21.9324  -11.7239  -0.5184 
 H                     22.6485  -13.5771  -4.0948 
 
 NAtoms=     51 NQM=        0 NQMF=       0 NMMI=     51 NMMIF=      0
                NMic=       0 NMicF=      0.
                    Isotopes and Nuclear Properties:
 (Nuclear quadrupole moments (NQMom) in fm**2, nuclear magnetic moments (NMagM)
  in nuclear magnetons)

  Atom         1           2           3           4           5           6           7           8           9          10
 IAtWgt=          12          12          12          12          12          12          14          14          14          12
 AtmWgt=  12.0000000  12.0000000  12.0000000  12.0000000  12.0000000  12.0000000  14.0030740  14.0030740  14.0030740  12.0000000
 NucSpn=           0           0           0           0           0           0           2           2           2           0
 AtZEff=   0.0000000   0.0000000   0.0000000   0.0000000   0.0000000   0.0000000   0.0000000   0.0000000   0.0000000   0.0000000
 NQMom=    0.0000000   0.0000000   0.0000000   0.0000000   0.0000000   0.0000000   2.0440000   2.0440000   2.0440000   0.0000000
 NMagM=    0.0000000   0.0000000   0.0000000   0.0000000   0.0000000   0.0000000   0.4037610   0.4037610   0.4037610   0.0000000

  Atom        11          12          13          14          15          16          17          18          19          20
 IAtWgt=          12          14          16          12          12          12          12          12          12          12
 AtmWgt=  12.0000000  14.0030740  15.9949146  12.0000000  12.0000000  12.0000000  12.0000000  12.0000000  12.0000000  12.0000000
 NucSpn=           0           2           0           0           0           0           0           0           0           0
 AtZEff=   0.0000000   0.0000000   0.0000000   0.0000000   0.0000000   0.0000000   0.0000000   0.0000000   0.0000000   0.0000000
 NQMom=    0.0000000   2.0440000   0.0000000   0.0000000   0.0000000   0.0000000   0.0000000   0.0000000   0.0000000   0.0000000
 NMagM=    0.0000000   0.4037610   0.0000000   0.0000000   0.0000000   0.0000000   0.0000000   0.0000000   0.0000000   0.0000000

  Atom        21          22          23          24          25          26          27          28          29          30
 IAtWgt=          35          12          12          12          12          12          12          12          12          12
 AtmWgt=  34.9688527  12.0000000  12.0000000  12.0000000  12.0000000  12.0000000  12.0000000  12.0000000  12.0000000  12.0000000
 NucSpn=           3           0           0           0           0           0           0           0           0           0
 AtZEff=   0.0000000   0.0000000   0.0000000   0.0000000   0.0000000   0.0000000   0.0000000   0.0000000   0.0000000   0.0000000
 NQMom=   -8.1650000   0.0000000   0.0000000   0.0000000   0.0000000   0.0000000   0.0000000   0.0000000   0.0000000   0.0000000
 NMagM=    0.8218740   0.0000000   0.0000000   0.0000000   0.0000000   0.0000000   0.0000000   0.0000000   0.0000000   0.0000000

  Atom        31          32          33          34          35          36          37          38          39          40
 IAtWgt=          14          14           1           1           1           1           1           1           1           1
 AtmWgt=  14.0030740  14.0030740   1.0078250   1.0078250   1.0078250   1.0078250   1.0078250   1.0078250   1.0078250   1.0078250
 NucSpn=           2           2           1           1           1           1           1           1           1           1
 AtZEff=   0.0000000   0.0000000   0.0000000   0.0000000   0.0000000   0.0000000   0.0000000   0.0000000   0.0000000   0.0000000
 NQMom=    2.0440000   2.0440000   0.0000000   0.0000000   0.0000000   0.0000000   0.0000000   0.0000000   0.0000000   0.0000000
 NMagM=    0.4037610   0.4037610   2.7928460   2.7928460   2.7928460   2.7928460   2.7928460   2.7928460   2.7928460   2.7928460

  Atom        41          42          43          44          45          46          47          48          49          50
 IAtWgt=           1           1           1           1           1           1           1           1           1           1
 AtmWgt=   1.0078250   1.0078250   1.0078250   1.0078250   1.0078250   1.0078250   1.0078250   1.0078250   1.0078250   1.0078250
 NucSpn=           1           1           1           1           1           1           1           1           1           1
 AtZEff=   0.0000000   0.0000000   0.0000000   0.0000000   0.0000000   0.0000000   0.0000000   0.0000000   0.0000000   0.0000000
 NQMom=    0.0000000   0.0000000   0.0000000   0.0000000   0.0000000   0.0000000   0.0000000   0.0000000   0.0000000   0.0000000
 NMagM=    2.7928460   2.7928460   2.7928460   2.7928460   2.7928460   2.7928460   2.7928460   2.7928460   2.7928460   2.7928460

  Atom        51
 IAtWgt=           1
 AtmWgt=   1.0078250
 NucSpn=           1
 AtZEff=   0.0000000
 NQMom=    0.0000000
 NMagM=    2.7928460
 Leave Link  101 at Tue Aug 30 11:25:16 2022, MaxMem=  209715200 cpu:       1.0
 (Enter /opt/gaussian/l103.exe)

 GradGradGradGradGradGradGradGradGradGradGradGradGradGradGradGradGradGrad
 Berny optimization.
 Initialization pass.
                           ----------------------------
                           !    Initial Parameters    !
                           ! (Angstroms and Degrees)  !
 --------------------------                            --------------------------
 ! Name  Definition              Value          Derivative Info.                !
 --------------------------------------------------------------------------------
 ! R1    R(1,2)                  1.4479         estimate D2E/DX2                !
 ! R2    R(1,3)                  1.398          estimate D2E/DX2                !
 ! R3    R(1,7)                  1.4122         estimate D2E/DX2                !
 ! R4    R(2,4)                  1.3967         estimate D2E/DX2                !
 ! R5    R(2,8)                  1.4292         estimate D2E/DX2                !
 ! R6    R(3,5)                  1.3887         estimate D2E/DX2                !
 ! R7    R(3,33)                 1.1002         estimate D2E/DX2                !
 ! R8    R(4,6)                  1.389          estimate D2E/DX2                !
 ! R9    R(4,34)                 1.0991         estimate D2E/DX2                !
 ! R10   R(5,6)                  1.4075         estimate D2E/DX2                !
 ! R11   R(5,35)                 1.1014         estimate D2E/DX2                !
 ! R12   R(6,36)                 1.1006         estimate D2E/DX2                !
 ! R13   R(7,9)                  1.3673         estimate D2E/DX2                !
 ! R14   R(7,10)                 1.4376         estimate D2E/DX2                !
 ! R15   R(8,9)                  1.2586         estimate D2E/DX2                !
 ! R16   R(10,11)                1.5405         estimate D2E/DX2                !
 ! R17   R(10,37)                1.1273         estimate D2E/DX2                !
 ! R18   R(10,38)                1.1299         estimate D2E/DX2                !
 ! R19   R(11,12)                1.3835         estimate D2E/DX2                !
 ! R20   R(11,13)                1.2474         estimate D2E/DX2                !
 ! R21   R(12,14)                1.4521         estimate D2E/DX2                !
 ! R22   R(12,26)                1.4229         estimate D2E/DX2                !
 ! R23   R(14,19)                1.5026         estimate D2E/DX2                !
 ! R24   R(14,39)                1.1302         estimate D2E/DX2                !
 ! R25   R(14,40)                1.1285         estimate D2E/DX2                !
 ! R26   R(15,16)                1.3981         estimate D2E/DX2                !
 ! R27   R(15,17)                1.3982         estimate D2E/DX2                !
 ! R28   R(15,21)                1.7011         estimate D2E/DX2                !
 ! R29   R(16,18)                1.3944         estimate D2E/DX2                !
 ! R30   R(16,41)                1.1003         estimate D2E/DX2                !
 ! R31   R(17,19)                1.397          estimate D2E/DX2                !
 ! R32   R(17,42)                1.1012         estimate D2E/DX2                !
 ! R33   R(18,20)                1.3935         estimate D2E/DX2                !
 ! R34   R(18,43)                1.1002         estimate D2E/DX2                !
 ! R35   R(19,20)                1.399          estimate D2E/DX2                !
 ! R36   R(20,44)                1.1035         estimate D2E/DX2                !
 ! R37   R(22,23)                1.4036         estimate D2E/DX2                !
 ! R38   R(22,24)                1.3895         estimate D2E/DX2                !
 ! R39   R(22,45)                1.1006         estimate D2E/DX2                !
 ! R40   R(23,25)                1.4035         estimate D2E/DX2                !
 ! R41   R(23,28)                1.4359         estimate D2E/DX2                !
 ! R42   R(24,26)                1.4099         estimate D2E/DX2                !
 ! R43   R(24,46)                1.1013         estimate D2E/DX2                !
 ! R44   R(25,27)                1.3896         estimate D2E/DX2                !
 ! R45   R(25,47)                1.101          estimate D2E/DX2                !
 ! R46   R(26,27)                1.4102         estimate D2E/DX2                !
 ! R47   R(27,48)                1.1014         estimate D2E/DX2                !
 ! R48   R(28,29)                1.4102         estimate D2E/DX2                !
 ! R49   R(28,30)                1.4531         estimate D2E/DX2                !
 ! R50   R(29,31)                1.3929         estimate D2E/DX2                !
 ! R51   R(29,49)                1.0891         estimate D2E/DX2                !
 ! R52   R(30,32)                1.356          estimate D2E/DX2                !
 ! R53   R(30,50)                1.0901         estimate D2E/DX2                !
 ! R54   R(31,32)                1.3351         estimate D2E/DX2                !
 ! R55   R(31,51)                0.9925         estimate D2E/DX2                !
 ! A1    A(2,1,3)              121.4862         estimate D2E/DX2                !
 ! A2    A(2,1,7)              103.6375         estimate D2E/DX2                !
 ! A3    A(3,1,7)              134.8744         estimate D2E/DX2                !
 ! A4    A(1,2,4)              120.2363         estimate D2E/DX2                !
 ! A5    A(1,2,8)              106.1411         estimate D2E/DX2                !
 ! A6    A(4,2,8)              133.6225         estimate D2E/DX2                !
 ! A7    A(1,3,5)              116.7198         estimate D2E/DX2                !
 ! A8    A(1,3,33)             121.0674         estimate D2E/DX2                !
 ! A9    A(5,3,33)             122.2081         estimate D2E/DX2                !
 ! A10   A(2,4,6)              117.4603         estimate D2E/DX2                !
 ! A11   A(2,4,34)             120.7744         estimate D2E/DX2                !
 ! A12   A(6,4,34)             121.7653         estimate D2E/DX2                !
 ! A13   A(3,5,6)              122.1319         estimate D2E/DX2                !
 ! A14   A(3,5,35)             119.0306         estimate D2E/DX2                !
 ! A15   A(6,5,35)             118.8375         estimate D2E/DX2                !
 ! A16   A(4,6,5)              121.9654         estimate D2E/DX2                !
 ! A17   A(4,6,36)             119.2888         estimate D2E/DX2                !
 ! A18   A(5,6,36)             118.7457         estimate D2E/DX2                !
 ! A19   A(1,7,9)              108.7552         estimate D2E/DX2                !
 ! A20   A(1,7,10)             125.4667         estimate D2E/DX2                !
 ! A21   A(9,7,10)             125.5874         estimate D2E/DX2                !
 ! A22   A(2,8,9)              109.4233         estimate D2E/DX2                !
 ! A23   A(7,9,8)              112.0267         estimate D2E/DX2                !
 ! A24   A(7,10,11)            113.338          estimate D2E/DX2                !
 ! A25   A(7,10,37)            109.9957         estimate D2E/DX2                !
 ! A26   A(7,10,38)            108.1082         estimate D2E/DX2                !
 ! A27   A(11,10,37)           109.7137         estimate D2E/DX2                !
 ! A28   A(11,10,38)           106.3693         estimate D2E/DX2                !
 ! A29   A(37,10,38)           109.1757         estimate D2E/DX2                !
 ! A30   A(10,11,12)           119.8917         estimate D2E/DX2                !
 ! A31   A(10,11,13)           118.772          estimate D2E/DX2                !
 ! A32   A(12,11,13)           121.3069         estimate D2E/DX2                !
 ! A33   A(11,12,14)           120.1333         estimate D2E/DX2                !
 ! A34   A(11,12,26)           122.2328         estimate D2E/DX2                !
 ! A35   A(14,12,26)           116.8676         estimate D2E/DX2                !
 ! A36   A(12,14,19)           115.0041         estimate D2E/DX2                !
 ! A37   A(12,14,39)           107.7254         estimate D2E/DX2                !
 ! A38   A(12,14,40)           107.4417         estimate D2E/DX2                !
 ! A39   A(19,14,39)           108.4934         estimate D2E/DX2                !
 ! A40   A(19,14,40)           109.4169         estimate D2E/DX2                !
 ! A41   A(39,14,40)           108.5929         estimate D2E/DX2                !
 ! A42   A(16,15,17)           120.7309         estimate D2E/DX2                !
 ! A43   A(16,15,21)           119.7298         estimate D2E/DX2                !
 ! A44   A(17,15,21)           119.5391         estimate D2E/DX2                !
 ! A45   A(15,16,18)           119.3627         estimate D2E/DX2                !
 ! A46   A(15,16,41)           120.3996         estimate D2E/DX2                !
 ! A47   A(18,16,41)           120.2377         estimate D2E/DX2                !
 ! A48   A(15,17,19)           119.4183         estimate D2E/DX2                !
 ! A49   A(15,17,42)           120.2291         estimate D2E/DX2                !
 ! A50   A(19,17,42)           120.3523         estimate D2E/DX2                !
 ! A51   A(16,18,20)           120.3877         estimate D2E/DX2                !
 ! A52   A(16,18,43)           119.6632         estimate D2E/DX2                !
 ! A53   A(20,18,43)           119.9489         estimate D2E/DX2                !
 ! A54   A(14,19,17)           120.2228         estimate D2E/DX2                !
 ! A55   A(14,19,20)           119.685          estimate D2E/DX2                !
 ! A56   A(17,19,20)           120.0794         estimate D2E/DX2                !
 ! A57   A(18,20,19)           120.0173         estimate D2E/DX2                !
 ! A58   A(18,20,44)           120.6535         estimate D2E/DX2                !
 ! A59   A(19,20,44)           119.3291         estimate D2E/DX2                !
 ! A60   A(23,22,24)           120.962          estimate D2E/DX2                !
 ! A61   A(23,22,45)           119.6604         estimate D2E/DX2                !
 ! A62   A(24,22,45)           119.3753         estimate D2E/DX2                !
 ! A63   A(22,23,25)           118.6531         estimate D2E/DX2                !
 ! A64   A(22,23,28)           120.6793         estimate D2E/DX2                !
 ! A65   A(25,23,28)           120.6671         estimate D2E/DX2                !
 ! A66   A(22,24,26)           120.2926         estimate D2E/DX2                !
 ! A67   A(22,24,46)           119.3611         estimate D2E/DX2                !
 ! A68   A(26,24,46)           120.3436         estimate D2E/DX2                !
 ! A69   A(23,25,27)           120.9449         estimate D2E/DX2                !
 ! A70   A(23,25,47)           119.616          estimate D2E/DX2                !
 ! A71   A(27,25,47)           119.435          estimate D2E/DX2                !
 ! A72   A(12,26,24)           121.2533         estimate D2E/DX2                !
 ! A73   A(12,26,27)           119.8718         estimate D2E/DX2                !
 ! A74   A(24,26,27)           118.8462         estimate D2E/DX2                !
 ! A75   A(25,27,26)           120.2994         estimate D2E/DX2                !
 ! A76   A(25,27,48)           119.4041         estimate D2E/DX2                !
 ! A77   A(26,27,48)           120.2954         estimate D2E/DX2                !
 ! A78   A(23,28,29)           128.0438         estimate D2E/DX2                !
 ! A79   A(23,28,30)           127.6742         estimate D2E/DX2                !
 ! A80   A(29,28,30)           104.2807         estimate D2E/DX2                !
 ! A81   A(28,29,31)           106.2861         estimate D2E/DX2                !
 ! A82   A(28,29,49)           131.0416         estimate D2E/DX2                !
 ! A83   A(31,29,49)           122.6686         estimate D2E/DX2                !
 ! A84   A(28,30,32)           110.0991         estimate D2E/DX2                !
 ! A85   A(28,30,50)           127.5685         estimate D2E/DX2                !
 ! A86   A(32,30,50)           122.3313         estimate D2E/DX2                !
 ! A87   A(29,31,32)           112.5335         estimate D2E/DX2                !
 ! A88   A(29,31,51)           127.0724         estimate D2E/DX2                !
 ! A89   A(32,31,51)           120.3882         estimate D2E/DX2                !
 ! A90   A(30,32,31)           106.8005         estimate D2E/DX2                !
 ! D1    D(3,1,2,4)              0.0807         estimate D2E/DX2                !
 ! D2    D(3,1,2,8)            179.9798         estimate D2E/DX2                !
 ! D3    D(7,1,2,4)           -179.487          estimate D2E/DX2                !
 ! D4    D(7,1,2,8)              0.4121         estimate D2E/DX2                !
 ! D5    D(2,1,3,5)             -0.1304         estimate D2E/DX2                !
 ! D6    D(2,1,3,33)           179.0943         estimate D2E/DX2                !
 ! D7    D(7,1,3,5)            179.2768         estimate D2E/DX2                !
 ! D8    D(7,1,3,33)            -1.4985         estimate D2E/DX2                !
 ! D9    D(2,1,7,9)             -1.027          estimate D2E/DX2                !
 ! D10   D(2,1,7,10)          -176.2271         estimate D2E/DX2                !
 ! D11   D(3,1,7,9)            179.4932         estimate D2E/DX2                !
 ! D12   D(3,1,7,10)             4.2931         estimate D2E/DX2                !
 ! D13   D(1,2,4,6)             -0.0526         estimate D2E/DX2                !
 ! D14   D(1,2,4,34)          -179.9937         estimate D2E/DX2                !
 ! D15   D(8,2,4,6)           -179.9186         estimate D2E/DX2                !
 ! D16   D(8,2,4,34)             0.1402         estimate D2E/DX2                !
 ! D17   D(1,2,8,9)              0.3894         estimate D2E/DX2                !
 ! D18   D(4,2,8,9)           -179.7311         estimate D2E/DX2                !
 ! D19   D(1,3,5,6)              0.1605         estimate D2E/DX2                !
 ! D20   D(1,3,5,35)          -179.952          estimate D2E/DX2                !
 ! D21   D(33,3,5,6)          -179.0546         estimate D2E/DX2                !
 ! D22   D(33,3,5,35)            0.833          estimate D2E/DX2                !
 ! D23   D(2,4,6,5)              0.0826         estimate D2E/DX2                !
 ! D24   D(2,4,6,36)          -179.8142         estimate D2E/DX2                !
 ! D25   D(34,4,6,5)          -179.9769         estimate D2E/DX2                !
 ! D26   D(34,4,6,36)            0.1263         estimate D2E/DX2                !
 ! D27   D(3,5,6,4)             -0.1425         estimate D2E/DX2                !
 ! D28   D(3,5,6,36)           179.7549         estimate D2E/DX2                !
 ! D29   D(35,5,6,4)           179.9697         estimate D2E/DX2                !
 ! D30   D(35,5,6,36)           -0.1329         estimate D2E/DX2                !
 ! D31   D(1,7,9,8)              1.3785         estimate D2E/DX2                !
 ! D32   D(10,7,9,8)           176.5714         estimate D2E/DX2                !
 ! D33   D(1,7,10,11)           59.3692         estimate D2E/DX2                !
 ! D34   D(1,7,10,37)         -177.4047         estimate D2E/DX2                !
 ! D35   D(1,7,10,38)          -58.2778         estimate D2E/DX2                !
 ! D36   D(9,7,10,11)         -115.0396         estimate D2E/DX2                !
 ! D37   D(9,7,10,37)            8.1865         estimate D2E/DX2                !
 ! D38   D(9,7,10,38)          127.3134         estimate D2E/DX2                !
 ! D39   D(2,8,9,7)             -1.0889         estimate D2E/DX2                !
 ! D40   D(7,10,11,12)          71.4088         estimate D2E/DX2                !
 ! D41   D(7,10,11,13)        -106.6451         estimate D2E/DX2                !
 ! D42   D(37,10,11,12)        -51.9723         estimate D2E/DX2                !
 ! D43   D(37,10,11,13)        129.9738         estimate D2E/DX2                !
 ! D44   D(38,10,11,12)       -169.9357         estimate D2E/DX2                !
 ! D45   D(38,10,11,13)         12.0103         estimate D2E/DX2                !
 ! D46   D(10,11,12,14)       -176.9801         estimate D2E/DX2                !
 ! D47   D(10,11,12,26)         13.3634         estimate D2E/DX2                !
 ! D48   D(13,11,12,14)          1.0234         estimate D2E/DX2                !
 ! D49   D(13,11,12,26)       -168.6332         estimate D2E/DX2                !
 ! D50   D(11,12,14,19)        -90.3641         estimate D2E/DX2                !
 ! D51   D(11,12,14,39)         30.7347         estimate D2E/DX2                !
 ! D52   D(11,12,14,40)        147.5609         estimate D2E/DX2                !
 ! D53   D(26,12,14,19)         79.8332         estimate D2E/DX2                !
 ! D54   D(26,12,14,39)       -159.068          estimate D2E/DX2                !
 ! D55   D(26,12,14,40)        -42.2418         estimate D2E/DX2                !
 ! D56   D(11,12,26,24)         62.7719         estimate D2E/DX2                !
 ! D57   D(11,12,26,27)       -119.1988         estimate D2E/DX2                !
 ! D58   D(14,12,26,24)       -107.2033         estimate D2E/DX2                !
 ! D59   D(14,12,26,27)         70.826          estimate D2E/DX2                !
 ! D60   D(12,14,19,17)       -101.6768         estimate D2E/DX2                !
 ! D61   D(12,14,19,20)         79.619          estimate D2E/DX2                !
 ! D62   D(39,14,19,17)        137.6443         estimate D2E/DX2                !
 ! D63   D(39,14,19,20)        -41.0599         estimate D2E/DX2                !
 ! D64   D(40,14,19,17)         19.3258         estimate D2E/DX2                !
 ! D65   D(40,14,19,20)       -159.3785         estimate D2E/DX2                !
 ! D66   D(17,15,16,18)         -0.2975         estimate D2E/DX2                !
 ! D67   D(17,15,16,41)        179.7109         estimate D2E/DX2                !
 ! D68   D(21,15,16,18)        179.5864         estimate D2E/DX2                !
 ! D69   D(21,15,16,41)         -0.4052         estimate D2E/DX2                !
 ! D70   D(16,15,17,19)         -0.0358         estimate D2E/DX2                !
 ! D71   D(16,15,17,42)        179.7737         estimate D2E/DX2                !
 ! D72   D(21,15,17,19)       -179.9199         estimate D2E/DX2                !
 ! D73   D(21,15,17,42)         -0.1104         estimate D2E/DX2                !
 ! D74   D(15,16,18,20)          0.1258         estimate D2E/DX2                !
 ! D75   D(15,16,18,43)        179.9797         estimate D2E/DX2                !
 ! D76   D(41,16,18,20)       -179.8826         estimate D2E/DX2                !
 ! D77   D(41,16,18,43)         -0.0287         estimate D2E/DX2                !
 ! D78   D(15,17,19,14)       -178.1578         estimate D2E/DX2                !
 ! D79   D(15,17,19,20)          0.5413         estimate D2E/DX2                !
 ! D80   D(42,17,19,14)          2.0329         estimate D2E/DX2                !
 ! D81   D(42,17,19,20)       -179.268          estimate D2E/DX2                !
 ! D82   D(16,18,20,19)          0.3775         estimate D2E/DX2                !
 ! D83   D(16,18,20,44)       -179.5054         estimate D2E/DX2                !
 ! D84   D(43,18,20,19)       -179.4759         estimate D2E/DX2                !
 ! D85   D(43,18,20,44)          0.6411         estimate D2E/DX2                !
 ! D86   D(14,19,20,18)        177.9924         estimate D2E/DX2                !
 ! D87   D(14,19,20,44)         -2.1231         estimate D2E/DX2                !
 ! D88   D(17,19,20,18)         -0.7137         estimate D2E/DX2                !
 ! D89   D(17,19,20,44)        179.1708         estimate D2E/DX2                !
 ! D90   D(24,22,23,25)          0.0735         estimate D2E/DX2                !
 ! D91   D(24,22,23,28)        179.8091         estimate D2E/DX2                !
 ! D92   D(45,22,23,25)        179.5165         estimate D2E/DX2                !
 ! D93   D(45,22,23,28)         -0.7478         estimate D2E/DX2                !
 ! D94   D(23,22,24,26)         -0.4057         estimate D2E/DX2                !
 ! D95   D(23,22,24,46)        179.0059         estimate D2E/DX2                !
 ! D96   D(45,22,24,26)       -179.8503         estimate D2E/DX2                !
 ! D97   D(45,22,24,46)         -0.4387         estimate D2E/DX2                !
 ! D98   D(22,23,25,27)          0.2752         estimate D2E/DX2                !
 ! D99   D(22,23,25,47)        179.53           estimate D2E/DX2                !
 ! D100  D(28,23,25,27)       -179.4605         estimate D2E/DX2                !
 ! D101  D(28,23,25,47)         -0.2057         estimate D2E/DX2                !
 ! D102  D(22,23,28,29)        -19.8886         estimate D2E/DX2                !
 ! D103  D(22,23,28,30)        160.5987         estimate D2E/DX2                !
 ! D104  D(25,23,28,29)        159.8417         estimate D2E/DX2                !
 ! D105  D(25,23,28,30)        -19.671          estimate D2E/DX2                !
 ! D106  D(22,24,26,12)        178.4364         estimate D2E/DX2                !
 ! D107  D(22,24,26,27)          0.3873         estimate D2E/DX2                !
 ! D108  D(46,24,26,12)         -0.9694         estimate D2E/DX2                !
 ! D109  D(46,24,26,27)       -179.0185         estimate D2E/DX2                !
 ! D110  D(23,25,27,26)         -0.2898         estimate D2E/DX2                !
 ! D111  D(23,25,27,48)        179.3352         estimate D2E/DX2                !
 ! D112  D(47,25,27,26)       -179.5459         estimate D2E/DX2                !
 ! D113  D(47,25,27,48)          0.0791         estimate D2E/DX2                !
 ! D114  D(12,26,27,25)       -178.1196         estimate D2E/DX2                !
 ! D115  D(12,26,27,48)          2.2588         estimate D2E/DX2                !
 ! D116  D(24,26,27,25)         -0.0429         estimate D2E/DX2                !
 ! D117  D(24,26,27,48)       -179.6645         estimate D2E/DX2                !
 ! D118  D(23,28,29,31)       -179.6674         estimate D2E/DX2                !
 ! D119  D(23,28,29,49)         -0.3687         estimate D2E/DX2                !
 ! D120  D(30,28,29,31)         -0.0654         estimate D2E/DX2                !
 ! D121  D(30,28,29,49)        179.2333         estimate D2E/DX2                !
 ! D122  D(23,28,30,32)        179.693          estimate D2E/DX2                !
 ! D123  D(23,28,30,50)         -0.6783         estimate D2E/DX2                !
 ! D124  D(29,28,30,32)          0.0891         estimate D2E/DX2                !
 ! D125  D(29,28,30,50)        179.7177         estimate D2E/DX2                !
 ! D126  D(28,29,31,32)          0.0234         estimate D2E/DX2                !
 ! D127  D(28,29,31,51)        179.1328         estimate D2E/DX2                !
 ! D128  D(49,29,31,32)       -179.3483         estimate D2E/DX2                !
 ! D129  D(49,29,31,51)         -0.2389         estimate D2E/DX2                !
 ! D130  D(28,30,32,31)         -0.0761         estimate D2E/DX2                !
 ! D131  D(50,30,32,31)       -179.7278         estimate D2E/DX2                !
 ! D132  D(29,31,32,30)          0.0333         estimate D2E/DX2                !
 ! D133  D(51,31,32,30)       -179.1429         estimate D2E/DX2                !
 --------------------------------------------------------------------------------
 Trust Radius=3.00D-01 FncErr=1.00D-07 GrdErr=1.00D-07
 Number of steps in this run=    288 maximum allowed number of steps=    306.
 GradGradGradGradGradGradGradGradGradGradGradGradGradGradGradGradGradGrad

 Leave Link  103 at Tue Aug 30 11:25:16 2022, MaxMem=  209715200 cpu:       0.1
 (Enter /opt/gaussian/l202.exe)
 Stoichiometry    C24H19ClN6O
 Framework group  C1[X(C24H19ClN6O)]
 Deg. of freedom   147
 Full point group                 C1      NOp   1
 Largest Abelian subgroup         C1      NOp   1
 Largest concise Abelian subgroup C1      NOp   1
                         Standard orientation:                         
 ---------------------------------------------------------------------
 Center     Atomic      Atomic             Coordinates (Angstroms)
 Number     Number       Type             X           Y           Z
 ---------------------------------------------------------------------
      1          6           0       -4.051286   -0.567282    0.282176
      2          6           0       -4.677955    0.598077   -0.305721
      3          6           0       -4.551359   -1.854165    0.062569
      4          6           0       -5.809413    0.456592   -1.112302
      5          6           0       -5.677649   -1.957283   -0.743170
      6          6           0       -6.292146   -0.829402   -1.318720
      7          7           0       -2.973836   -0.029470    1.019761
      8          7           0       -3.910408    1.723098    0.127643
      9          7           0       -2.961580    1.327694    0.853964
     10          6           0       -1.987752   -0.794002    1.733777
     11          6           0       -1.194358   -1.759489    0.832983
     12          7           0       -0.269452   -1.260177   -0.066708
     13          8           0       -1.430706   -2.981930    0.908313
     14          6           0        0.433750   -2.159610   -0.963981
     15          6           0        4.144008   -2.702964   -0.385197
     16          6           0        4.136508   -3.775353    0.511810
     17          6           0        2.946160   -2.160966   -0.860833
     18          6           0        2.917605   -4.301845    0.937897
     19          6           0        1.730929   -2.700875   -0.432675
     20          6           0        1.717660   -3.767085    0.472985
     21         17           0        5.625506   -2.046583   -0.902947
     22          6           0        1.368173    1.880643    1.119426
     23          6           0        1.154764    2.737948    0.028780
     24          6           0        0.899831    0.572522    1.102800
     25          6           0        0.454643    2.248700   -1.084862
     26          6           0        0.190704    0.085191   -0.014039
     27          6           0       -0.025118    0.944768   -1.110940
     28          6           0        1.637862    4.089880    0.054101
     29          6           0        1.997217    4.863475    1.177125
     30          6           0        1.858134    4.975604   -1.076636
     31          7           0        2.394050    6.104884    0.685523
     32          7           0        2.314609    6.177380   -0.645193
     33          1           0       -4.061023   -2.736260    0.500711
     34          1           0       -6.292133    1.335154   -1.563115
     35          1           0       -6.104110   -2.953365   -0.940730
     36          1           0       -7.180461   -0.975918   -1.951853
     37          1           0       -1.276604   -0.102002    2.268725
     38          1           0       -2.523643   -1.435569    2.494002
     39          1           0       -0.252842   -3.029102   -1.187339
     40          1           0        0.626615   -1.597727   -1.923480
     41          1           0        5.082508   -4.200747    0.878985
     42          1           0        2.961653   -1.313923   -1.564271
     43          1           0        2.905937   -5.145936    1.643433
     44          1           0        0.750568   -4.175005    0.813513
     45          1           0        1.922126    2.244614    1.998035
     46          1           0        1.096402   -0.082397    1.966067
     47          1           0        0.271527    2.909905   -1.945896
     48          1           0       -0.580867    0.590580   -1.993479
     49          1           0        1.987343    4.628086    2.240408
     50          1           0        1.702366    4.756192   -2.132979
     51          1           0        2.697529    6.888429    1.213811
 ---------------------------------------------------------------------
 Rotational constants (GHZ):      0.1269495      0.0965537      0.0594188
 Leave Link  202 at Tue Aug 30 11:25:16 2022, MaxMem=  209715200 cpu:       0.0
 (Enter /opt/gaussian/l301.exe)
 Standard basis: 6-31G (6D, 7F)
 Ernie: Thresh=  0.10000D-02 Tol=  0.10000D-05 Strict=F.
 There are   330 symmetry adapted basis functions of A   symmetry.
 Integral buffers will be    131072 words long.
 Raffenetti 1 integral format.
 Two-electron integral symmetry is turned on.
   330 basis functions,   804 primitive gaussians,   330 cartesian basis functions
   115 alpha electrons      115 beta electrons
       nuclear repulsion energy      3123.6184128236 Hartrees.
 IExCor=    0 DFT=F Ex=HF Corr=None ExCW=0 ScaHFX=  1.000000
 ScaDFX=  1.000000  1.000000  1.000000  1.000000 ScalE2=  1.000000  1.000000
 IRadAn=      0 IRanWt=     -1 IRanGd=            0 ICorTp=0
 NAtoms=   51 NActive=   51 NUniq=   51 SFac= 1.00D+00 NAtFMM=   60 NAOKFM=F Big=F
 Leave Link  301 at Tue Aug 30 11:25:16 2022, MaxMem=  209715200 cpu:       0.3
 (Enter /opt/gaussian/l302.exe)
 NPDir=0 NMtPBC=     1 NCelOv=     1 NCel=       1 NClECP=     1 NCelD=      1
         NCelK=      1 NCelE2=     1 NClLst=     1 CellRange=     0.0.
 One-electron integrals computed using PRISM.
 NBasis=   330 RedAO= T  NBF=   330
 NBsUse=   330 1.00D-06 NBFU=   330
 Leave Link  302 at Tue Aug 30 11:25:16 2022, MaxMem=  209715200 cpu:       2.1
 (Enter /opt/gaussian/l303.exe)
 DipDrv:  MaxL=1.
 Leave Link  303 at Tue Aug 30 11:25:16 2022, MaxMem=  209715200 cpu:       0.6
 (Enter /opt/gaussian/l401.exe)
 Harris functional with IExCor=  205 diagonalized for initial guess.
 ExpMin= 1.43D-01 ExpMax= 2.52D+04 ExpMxC= 3.78D+03 IAcc=1 IRadAn=         1 AccDes= 0.00D+00
 HarFok:  IExCor=  205 AccDes= 0.00D+00 IRadAn=         1 IDoV= 1
 ScaDFX=  1.000000  1.000000  1.000000  1.000000
 FoFCou: FMM=F IPFlag=           0 FMFlag=      100000 FMFlg1=           0
         NFxFlg=           0 DoJE=T BraDBF=F KetDBF=T FulRan=T
         Omega=  0.000000  0.000000  1.000000  0.000000  0.000000 ICntrl=     500 IOpCl=  0
         NMat0=    1 NMatS0=    1 NMatT0=    0 NMatD0=    1 NMtDS0=    0 NMtDT0=    0
         I1Cent=           4 NGrid=           0.
 Petite list used in FoFCou.
 Harris En= -1781.33661881550    
 Initial guess orbital symmetries:
       Occupied  (A) (A) (A) (A) (A) (A) (A) (A) (A) (A) (A) (A)
                 (A) (A) (A) (A) (A) (A) (A) (A) (A) (A) (A) (A)
                 (A) (A) (A) (A) (A) (A) (A) (A) (A) (A) (A) (A)
                 (A) (A) (A) (A) (A) (A) (A) (A) (A) (A) (A) (A)
                 (A) (A) (A) (A) (A) (A) (A) (A) (A) (A) (A) (A)
                 (A) (A) (A) (A) (A) (A) (A) (A) (A) (A) (A) (A)
                 (A) (A) (A) (A) (A) (A) (A) (A) (A) (A) (A) (A)
                 (A) (A) (A) (A) (A) (A) (A) (A) (A) (A) (A) (A)
                 (A) (A) (A) (A) (A) (A) (A) (A) (A) (A) (A) (A)
                 (A) (A) (A) (A) (A) (A) (A)
       Virtual   (A) (A) (A) (A) (A) (A) (A) (A) (A) (A) (A) (A)
                 (A) (A) (A) (A) (A) (A) (A) (A) (A) (A) (A) (A)
                 (A) (A) (A) (A) (A) (A) (A) (A) (A) (A) (A) (A)
                 (A) (A) (A) (A) (A) (A) (A) (A) (A) (A) (A) (A)
                 (A) (A) (A) (A) (A) (A) (A) (A) (A) (A) (A) (A)
                 (A) (A) (A) (A) (A) (A) (A) (A) (A) (A) (A) (A)
                 (A) (A) (A) (A) (A) (A) (A) (A) (A) (A) (A) (A)
                 (A) (A) (A) (A) (A) (A) (A) (A) (A) (A) (A) (A)
                 (A) (A) (A) (A) (A) (A) (A) (A) (A) (A) (A) (A)
                 (A) (A) (A) (A) (A) (A) (A) (A) (A) (A) (A) (A)
                 (A) (A) (A) (A) (A) (A) (A) (A) (A) (A) (A) (A)
                 (A) (A) (A) (A) (A) (A) (A) (A) (A) (A) (A) (A)
                 (A) (A) (A) (A) (A) (A) (A) (A) (A) (A) (A) (A)
                 (A) (A) (A) (A) (A) (A) (A) (A) (A) (A) (A) (A)
                 (A) (A) (A) (A) (A) (A) (A) (A) (A) (A) (A) (A)
                 (A) (A) (A) (A) (A) (A) (A) (A) (A) (A) (A) (A)
                 (A) (A) (A) (A) (A) (A) (A) (A) (A) (A) (A) (A)
                 (A) (A) (A) (A) (A) (A) (A) (A) (A) (A) (A)
 The electronic state of the initial guess is 1-A.
 Leave Link  401 at Tue Aug 30 11:25:17 2022, MaxMem=  209715200 cpu:       5.1
 (Enter /opt/gaussian/l502.exe)
 Closed shell SCF:
 Requested convergence on RMS density matrix=1.00D-08 within 128 cycles.
 Requested convergence on MAX density matrix=1.00D-06.
 Requested convergence on             energy=1.00D-06.
 No special actions if energy rises.
 Using DIIS extrapolation, IDIIS=  1040.
 Integral symmetry usage will be decided dynamically.
 IEnd=      350033 IEndB=      350033 NGot=   209715200 MDV=   209491038
 LenX=   209491038 LenY=   209381697
 Fock matrices will be formed incrementally for  20 cycles.
 Integral accuracy reduced to 1.0D-05 until final iterations.

 Cycle   1  Pass 0  IDiag  1:
 FoFCou: FMM=F IPFlag=           0 FMFlag=      100000 FMFlg1=           0
         NFxFlg=           0 DoJE=F BraDBF=F KetDBF=F FulRan=T
         Omega=  0.000000  0.000000  1.000000  0.000000  0.000000 ICntrl=       0 IOpCl=  0
         NMat0=    1 NMatS0=    1 NMatT0=    0 NMatD0=    1 NMtDS0=    0 NMtDT0=    0
         I1Cent=           0 NGrid=           0.
 Symmetry not used in FoFCou.
 E= -1779.36541903936    
 DIIS: error= 2.81D-02 at cycle   1 NSaved=   1.
 NSaved= 1 IEnMin= 1 EnMin= -1779.36541903936     IErMin= 1 ErrMin= 2.81D-02
 ErrMax= 2.81D-02 EMaxC= 1.00D-01 BMatC= 1.06D+00 BMatP= 1.06D+00
 IDIUse=3 WtCom= 7.19D-01 WtEn= 2.81D-01
 Coeff-Com:  0.100D+01
 Coeff-En:   0.100D+01
 Coeff:      0.100D+01
 Gap=     0.555 Goal=   None    Shift=    0.000
 GapD=    0.555 DampG=2.000 DampE=0.500 DampFc=1.0000 IDamp=-1.
 RMSDP=5.91D-03 MaxDP=1.64D-01              OVMax= 1.63D-01

 Cycle   2  Pass 0  IDiag  1:
 RMSU=  4.15D-03    CP:  9.71D-01
 E= -1780.08354842103     Delta-E=       -0.718129381667 Rises=F Damp=F
 DIIS: error= 1.72D-02 at cycle   2 NSaved=   2.
 NSaved= 2 IEnMin= 2 EnMin= -1780.08354842103     IErMin= 2 ErrMin= 1.72D-02
 ErrMax= 1.72D-02 EMaxC= 1.00D-01 BMatC= 1.88D-01 BMatP= 1.06D+00
 IDIUse=3 WtCom= 8.28D-01 WtEn= 1.72D-01
 Coeff-Com:  0.242D+00 0.758D+00
 Coeff-En:   0.000D+00 0.100D+01
 Coeff:      0.200D+00 0.800D+00
 Gap=     0.436 Goal=   None    Shift=    0.000
 RMSDP=2.44D-03 MaxDP=9.32D-02 DE=-7.18D-01 OVMax= 1.02D-01

 Cycle   3  Pass 0  IDiag  1:
 RMSU=  1.53D-03    CP:  9.69D-01  8.08D-01
 E= -1780.23488083399     Delta-E=       -0.151332412959 Rises=F Damp=F
 DIIS: error= 8.84D-03 at cycle   3 NSaved=   3.
 NSaved= 3 IEnMin= 3 EnMin= -1780.23488083399     IErMin= 3 ErrMin= 8.84D-03
 ErrMax= 8.84D-03 EMaxC= 1.00D-01 BMatC= 3.34D-02 BMatP= 1.88D-01
 IDIUse=3 WtCom= 9.12D-01 WtEn= 8.84D-02
 Coeff-Com:  0.846D-02 0.283D+00 0.709D+00
 Coeff-En:   0.000D+00 0.000D+00 0.100D+01
 Coeff:      0.771D-02 0.258D+00 0.735D+00
 Gap=     0.396 Goal=   None    Shift=    0.000
 RMSDP=8.75D-04 MaxDP=3.28D-02 DE=-1.51D-01 OVMax= 4.10D-02

 Cycle   4  Pass 0  IDiag  1:
 RMSU=  3.94D-04    CP:  9.70D-01  9.00D-01  8.15D-01
 E= -1780.26504205667     Delta-E=       -0.030161222688 Rises=F Damp=F
 DIIS: error= 2.39D-03 at cycle   4 NSaved=   4.
 NSaved= 4 IEnMin= 4 EnMin= -1780.26504205667     IErMin= 4 ErrMin= 2.39D-03
 ErrMax= 2.39D-03 EMaxC= 1.00D-01 BMatC= 3.20D-03 BMatP= 3.34D-02
 IDIUse=3 WtCom= 9.76D-01 WtEn= 2.39D-02
 Coeff-Com: -0.138D-01 0.265D-01 0.274D+00 0.714D+00
 Coeff-En:   0.000D+00 0.000D+00 0.000D+00 0.100D+01
 Coeff:     -0.135D-01 0.258D-01 0.267D+00 0.721D+00
 Gap=     0.389 Goal=   None    Shift=    0.000
 RMSDP=2.78D-04 MaxDP=1.02D-02 DE=-3.02D-02 OVMax= 8.83D-03

 Cycle   5  Pass 0  IDiag  1:
 RMSU=  1.17D-04    CP:  9.69D-01  8.96D-01  8.95D-01  7.55D-01
 E= -1780.26824858656     Delta-E=       -0.003206529888 Rises=F Damp=F
 DIIS: error= 8.16D-04 at cycle   5 NSaved=   5.
 NSaved= 5 IEnMin= 5 EnMin= -1780.26824858656     IErMin= 5 ErrMin= 8.16D-04
 ErrMax= 8.16D-04 EMaxC= 1.00D-01 BMatC= 1.06D-04 BMatP= 3.20D-03
 IDIUse=3 WtCom= 9.92D-01 WtEn= 8.16D-03
 Coeff-Com: -0.147D-02-0.141D-01-0.112D-01 0.607D-01 0.966D+00
 Coeff-En:   0.000D+00 0.000D+00 0.000D+00 0.000D+00 0.100D+01
 Coeff:     -0.146D-02-0.140D-01-0.111D-01 0.602D-01 0.966D+00
 Gap=     0.389 Goal=   None    Shift=    0.000
 RMSDP=7.80D-05 MaxDP=1.78D-03 DE=-3.21D-03 OVMax= 4.91D-03

 Cycle   6  Pass 0  IDiag  1:
 RMSU=  3.96D-05    CP:  9.69D-01  8.97D-01  9.11D-01  8.07D-01  1.19D+00
 E= -1780.26853334581     Delta-E=       -0.000284759250 Rises=F Damp=F
 DIIS: error= 4.76D-04 at cycle   6 NSaved=   6.
 NSaved= 6 IEnMin= 6 EnMin= -1780.26853334581     IErMin= 6 ErrMin= 4.76D-04
 ErrMax= 4.76D-04 EMaxC= 1.00D-01 BMatC= 3.05D-05 BMatP= 1.06D-04
 IDIUse=3 WtCom= 9.95D-01 WtEn= 4.76D-03
 Coeff-Com:  0.255D-02-0.883D-02-0.542D-01-0.147D+00 0.169D+00 0.104D+01
 Coeff-En:   0.000D+00 0.000D+00 0.000D+00 0.000D+00 0.000D+00 0.100D+01
 Coeff:      0.254D-02-0.879D-02-0.540D-01-0.146D+00 0.168D+00 0.104D+01
 Gap=     0.390 Goal=   None    Shift=    0.000
 RMSDP=5.18D-05 MaxDP=1.53D-03 DE=-2.85D-04 OVMax= 3.15D-03

 Cycle   7  Pass 0  IDiag  1:
 RMSU=  1.81D-05    CP:  9.69D-01  8.96D-01  9.20D-01  8.18D-01  1.41D+00
                    CP:  1.21D+00
 E= -1780.26863062227     Delta-E=       -0.000097276463 Rises=F Damp=F
 DIIS: error= 1.67D-04 at cycle   7 NSaved=   7.
 NSaved= 7 IEnMin= 7 EnMin= -1780.26863062227     IErMin= 7 ErrMin= 1.67D-04
 ErrMax= 1.67D-04 EMaxC= 1.00D-01 BMatC= 4.22D-06 BMatP= 3.05D-05
 IDIUse=3 WtCom= 9.98D-01 WtEn= 1.67D-03
 Coeff-Com:  0.351D-04 0.218D-02 0.728D-02-0.398D-02-0.135D+00-0.721D-01
 Coeff-Com:  0.120D+01
 Coeff-En:   0.000D+00 0.000D+00 0.000D+00 0.000D+00 0.000D+00 0.000D+00
 Coeff-En:   0.100D+01
 Coeff:      0.350D-04 0.218D-02 0.727D-02-0.397D-02-0.135D+00-0.720D-01
 Coeff:      0.120D+01
 Gap=     0.390 Goal=   None    Shift=    0.000
 RMSDP=2.13D-05 MaxDP=5.90D-04 DE=-9.73D-05 OVMax= 1.62D-03

 Cycle   8  Pass 0  IDiag  1:
 RMSU=  7.27D-06    CP:  9.69D-01  8.96D-01  9.21D-01  8.17D-01  1.48D+00
                    CP:  1.41D+00  1.33D+00
 E= -1780.26864717532     Delta-E=       -0.000016553040 Rises=F Damp=F
 DIIS: error= 6.55D-05 at cycle   8 NSaved=   8.
 NSaved= 8 IEnMin= 8 EnMin= -1780.26864717532     IErMin= 8 ErrMin= 6.55D-05
 ErrMax= 6.55D-05 EMaxC= 1.00D-01 BMatC= 8.05D-07 BMatP= 4.22D-06
 IDIUse=1 WtCom= 1.00D+00 WtEn= 0.00D+00
 Coeff-Com: -0.544D-03 0.233D-02 0.142D-01 0.304D-01-0.555D-01-0.251D+00
 Coeff-Com:  0.217D+00 0.104D+01
 Coeff:     -0.544D-03 0.233D-02 0.142D-01 0.304D-01-0.555D-01-0.251D+00
 Coeff:      0.217D+00 0.104D+01
 Gap=     0.390 Goal=   None    Shift=    0.000
 RMSDP=9.46D-06 MaxDP=2.43D-04 DE=-1.66D-05 OVMax= 6.62D-04

 Initial convergence to 1.0D-05 achieved.  Increase integral accuracy.
 Cycle   9  Pass 1  IDiag  1:
 E= -1780.26866859235     Delta-E=       -0.000021417037 Rises=F Damp=F
 DIIS: error= 6.96D-05 at cycle   1 NSaved=   1.
 NSaved= 1 IEnMin= 1 EnMin= -1780.26866859235     IErMin= 1 ErrMin= 6.96D-05
 ErrMax= 6.96D-05 EMaxC= 1.00D-01 BMatC= 1.68D-06 BMatP= 1.68D-06
 IDIUse=1 WtCom= 1.00D+00 WtEn= 0.00D+00
 Coeff-Com:  0.100D+01
 Coeff:      0.100D+01
 Gap=     0.390 Goal=   None    Shift=    0.000
 RMSDP=9.46D-06 MaxDP=2.43D-04 DE=-2.14D-05 OVMax= 2.20D-04

 Cycle  10  Pass 1  IDiag  1:
 RMSU=  3.96D-05    CP:  1.00D+00
 E= -1780.26867036491     Delta-E=       -0.000001772555 Rises=F Damp=F
 DIIS: error= 1.59D-05 at cycle   2 NSaved=   2.
 NSaved= 2 IEnMin= 2 EnMin= -1780.26867036491     IErMin= 2 ErrMin= 1.59D-05
 ErrMax= 1.59D-05 EMaxC= 1.00D-01 BMatC= 4.06D-08 BMatP= 1.68D-06
 IDIUse=1 WtCom= 1.00D+00 WtEn= 0.00D+00
 Coeff-Com: -0.274D-01 0.103D+01
 Coeff:     -0.274D-01 0.103D+01
 Gap=     0.390 Goal=   None    Shift=    0.000
 RMSDP=3.24D-06 MaxDP=4.62D-05 DE=-1.77D-06 OVMax= 1.22D-04

 Cycle  11  Pass 1  IDiag  1:
 RMSU=  1.05D-06    CP:  1.00D+00  1.05D+00
 E= -1780.26867047218     Delta-E=       -0.000000107274 Rises=F Damp=F
 DIIS: error= 1.13D-05 at cycle   3 NSaved=   3.
 NSaved= 3 IEnMin= 3 EnMin= -1780.26867047218     IErMin= 3 ErrMin= 1.13D-05
 ErrMax= 1.13D-05 EMaxC= 1.00D-01 BMatC= 1.85D-08 BMatP= 4.06D-08
 IDIUse=1 WtCom= 1.00D+00 WtEn= 0.00D+00
 Coeff-Com: -0.242D-01 0.325D+00 0.699D+00
 Coeff:     -0.242D-01 0.325D+00 0.699D+00
 Gap=     0.390 Goal=   None    Shift=    0.000
 RMSDP=6.29D-07 MaxDP=1.51D-05 DE=-1.07D-07 OVMax= 6.27D-05

 Cycle  12  Pass 1  IDiag  1:
 RMSU=  4.32D-07    CP:  1.00D+00  1.05D+00  1.01D+00
 E= -1780.26867051092     Delta-E=       -0.000000038735 Rises=F Damp=F
 DIIS: error= 7.19D-06 at cycle   4 NSaved=   4.
 NSaved= 4 IEnMin= 4 EnMin= -1780.26867051092     IErMin= 4 ErrMin= 7.19D-06
 ErrMax= 7.19D-06 EMaxC= 1.00D-01 BMatC= 5.75D-09 BMatP= 1.85D-08
 IDIUse=1 WtCom= 1.00D+00 WtEn= 0.00D+00
 Coeff-Com:  0.231D-01-0.613D+00-0.263D+00 0.185D+01
 Coeff:      0.231D-01-0.613D+00-0.263D+00 0.185D+01
 Gap=     0.390 Goal=   None    Shift=    0.000
 RMSDP=1.07D-06 MaxDP=2.11D-05 DE=-3.87D-08 OVMax= 1.17D-04

 Cycle  13  Pass 1  IDiag  1:
 RMSU=  3.16D-07    CP:  1.00D+00  1.06D+00  1.54D+00  1.93D+00
 E= -1780.26867054670     Delta-E=       -0.000000035789 Rises=F Damp=F
 DIIS: error= 2.00D-06 at cycle   5 NSaved=   5.
 NSaved= 5 IEnMin= 5 EnMin= -1780.26867054670     IErMin= 5 ErrMin= 2.00D-06
 ErrMax= 2.00D-06 EMaxC= 1.00D-01 BMatC= 5.28D-10 BMatP= 5.75D-09
 IDIUse=1 WtCom= 1.00D+00 WtEn= 0.00D+00
 Coeff-Com:  0.970D-02-0.221D+00-0.148D+00 0.550D+00 0.809D+00
 Coeff:      0.970D-02-0.221D+00-0.148D+00 0.550D+00 0.809D+00
 Gap=     0.390 Goal=   None    Shift=    0.000
 RMSDP=2.02D-07 MaxDP=5.40D-06 DE=-3.58D-08 OVMax= 2.40D-05

 Cycle  14  Pass 1  IDiag  1:
 RMSU=  8.00D-08    CP:  1.00D+00  1.05D+00  1.60D+00  2.12D+00  1.15D+00
 E= -1780.26867054843     Delta-E=       -0.000000001726 Rises=F Damp=F
 DIIS: error= 6.37D-07 at cycle   6 NSaved=   6.
 NSaved= 6 IEnMin= 6 EnMin= -1780.26867054843     IErMin= 6 ErrMin= 6.37D-07
 ErrMax= 6.37D-07 EMaxC= 1.00D-01 BMatC= 6.83D-11 BMatP= 5.28D-10
 IDIUse=1 WtCom= 1.00D+00 WtEn= 0.00D+00
 Coeff-Com: -0.357D-02 0.955D-01 0.437D-01-0.303D+00 0.282D-01 0.114D+01
 Coeff:     -0.357D-02 0.955D-01 0.437D-01-0.303D+00 0.282D-01 0.114D+01
 Gap=     0.390 Goal=   None    Shift=    0.000
 RMSDP=8.99D-08 MaxDP=1.98D-06 DE=-1.73D-09 OVMax= 9.20D-06

 Cycle  15  Pass 1  IDiag  1:
 RMSU=  3.43D-08    CP:  1.00D+00  1.05D+00  1.62D+00  2.18D+00  1.28D+00
                    CP:  1.17D+00
 E= -1780.26867054870     Delta-E=       -0.000000000266 Rises=F Damp=F
 DIIS: error= 1.71D-07 at cycle   7 NSaved=   7.
 NSaved= 7 IEnMin= 7 EnMin= -1780.26867054870     IErMin= 7 ErrMin= 1.71D-07
 ErrMax= 1.71D-07 EMaxC= 1.00D-01 BMatC= 8.24D-12 BMatP= 6.83D-11
 IDIUse=1 WtCom= 1.00D+00 WtEn= 0.00D+00
 Coeff-Com: -0.983D-03 0.218D-01 0.168D-01-0.563D-01-0.915D-01-0.376D-01
 Coeff-Com:  0.115D+01
 Coeff:     -0.983D-03 0.218D-01 0.168D-01-0.563D-01-0.915D-01-0.376D-01
 Coeff:      0.115D+01
 Gap=     0.390 Goal=   None    Shift=    0.000
 RMSDP=2.94D-08 MaxDP=6.96D-07 DE=-2.66D-10 OVMax= 2.90D-06

 Cycle  16  Pass 1  IDiag  1:
 RMSU=  1.11D-08    CP:  1.00D+00  1.05D+00  1.62D+00  2.19D+00  1.30D+00
                    CP:  1.29D+00  1.34D+00
 E= -1780.26867054872     Delta-E=       -0.000000000019 Rises=F Damp=F
 DIIS: error= 8.35D-08 at cycle   8 NSaved=   8.
 NSaved= 8 IEnMin= 8 EnMin= -1780.26867054872     IErMin= 8 ErrMin= 8.35D-08
 ErrMax= 8.35D-08 EMaxC= 1.00D-01 BMatC= 1.94D-12 BMatP= 8.24D-12
 IDIUse=1 WtCom= 1.00D+00 WtEn= 0.00D+00
 Coeff-Com:  0.403D-03-0.121D-01-0.248D-02 0.416D-01-0.312D-01-0.235D+00
 Coeff-Com:  0.333D+00 0.906D+00
 Coeff:      0.403D-03-0.121D-01-0.248D-02 0.416D-01-0.312D-01-0.235D+00
 Coeff:      0.333D+00 0.906D+00
 Gap=     0.390 Goal=   None    Shift=    0.000
 RMSDP=1.14D-08 MaxDP=3.32D-07 DE=-1.91D-11 OVMax= 1.12D-06

 Cycle  17  Pass 1  IDiag  1:
 RMSU=  4.84D-09    CP:  1.00D+00  1.05D+00  1.62D+00  2.19D+00  1.30D+00
                    CP:  1.31D+00  1.51D+00  1.04D+00
 E= -1780.26867054870     Delta-E=        0.000000000015 Rises=F Damp=F
 DIIS: error= 4.61D-08 at cycle   9 NSaved=   9.
 NSaved= 9 IEnMin= 8 EnMin= -1780.26867054872     IErMin= 9 ErrMin= 4.61D-08
 ErrMax= 4.61D-08 EMaxC= 1.00D-01 BMatC= 1.82D-13 BMatP= 1.94D-12
 IDIUse=1 WtCom= 1.00D+00 WtEn= 0.00D+00
 Coeff-Com:  0.506D-04-0.792D-03-0.881D-03 0.230D-03 0.131D-01 0.282D-01
 Coeff-Com: -0.138D+00-0.105D+00 0.120D+01
 Coeff:      0.506D-04-0.792D-03-0.881D-03 0.230D-03 0.131D-01 0.282D-01
 Coeff:     -0.138D+00-0.105D+00 0.120D+01
 Gap=     0.390 Goal=   None    Shift=    0.000
 RMSDP=4.29D-09 MaxDP=1.05D-07 DE= 1.46D-11 OVMax= 5.02D-07

 SCF Done:  E(RHF) =  -1780.26867055     A.U. after   17 cycles
             Convg  =    0.4290D-08             -V/T =  2.0002
 KE= 1.779919320187D+03 PE=-1.042389329337D+04 EE= 3.740086889808D+03
 Leave Link  502 at Tue Aug 30 11:26:46 2022, MaxMem=  209715200 cpu:     670.9
 (Enter /opt/gaussian/l601.exe)
 Copying SCF densities to generalized density rwf, IOpCl= 0 IROHF=0.

 **********************************************************************

            Population analysis using the SCF density.

 **********************************************************************

 Orbital symmetries:
       Occupied  (A) (A) (A) (A) (A) (A) (A) (A) (A) (A) (A) (A)
                 (A) (A) (A) (A) (A) (A) (A) (A) (A) (A) (A) (A)
                 (A) (A) (A) (A) (A) (A) (A) (A) (A) (A) (A) (A)
                 (A) (A) (A) (A) (A) (A) (A) (A) (A) (A) (A) (A)
                 (A) (A) (A) (A) (A) (A) (A) (A) (A) (A) (A) (A)
                 (A) (A) (A) (A) (A) (A) (A) (A) (A) (A) (A) (A)
                 (A) (A) (A) (A) (A) (A) (A) (A) (A) (A) (A) (A)
                 (A) (A) (A) (A) (A) (A) (A) (A) (A) (A) (A) (A)
                 (A) (A) (A) (A) (A) (A) (A) (A) (A) (A) (A) (A)
                 (A) (A) (A) (A) (A) (A) (A)
       Virtual   (A) (A) (A) (A) (A) (A) (A) (A) (A) (A) (A) (A)
                 (A) (A) (A) (A) (A) (A) (A) (A) (A) (A) (A) (A)
                 (A) (A) (A) (A) (A) (A) (A) (A) (A) (A) (A) (A)
                 (A) (A) (A) (A) (A) (A) (A) (A) (A) (A) (A) (A)
                 (A) (A) (A) (A) (A) (A) (A) (A) (A) (A) (A) (A)
                 (A) (A) (A) (A) (A) (A) (A) (A) (A) (A) (A) (A)
                 (A) (A) (A) (A) (A) (A) (A) (A) (A) (A) (A) (A)
                 (A) (A) (A) (A) (A) (A) (A) (A) (A) (A) (A) (A)
                 (A) (A) (A) (A) (A) (A) (A) (A) (A) (A) (A) (A)
                 (A) (A) (A) (A) (A) (A) (A) (A) (A) (A) (A) (A)
                 (A) (A) (A) (A) (A) (A) (A) (A) (A) (A) (A) (A)
                 (A) (A) (A) (A) (A) (A) (A) (A) (A) (A) (A) (A)
                 (A) (A) (A) (A) (A) (A) (A) (A) (A) (A) (A) (A)
                 (A) (A) (A) (A) (A) (A) (A) (A) (A) (A) (A) (A)
                 (A) (A) (A) (A) (A) (A) (A) (A) (A) (A) (A) (A)
                 (A) (A) (A) (A) (A) (A) (A) (A) (A) (A) (A) (A)
                 (A) (A) (A) (A) (A) (A) (A) (A) (A) (A) (A) (A)
                 (A) (A) (A) (A) (A) (A) (A) (A) (A) (A) (A)
 The electronic state is 1-A.
 Alpha  occ. eigenvalues -- -104.82148 -20.55937 -15.67836 -15.66562 -15.65475
 Alpha  occ. eigenvalues --  -15.62621 -15.62136 -15.61436 -11.39838 -11.32424
 Alpha  occ. eigenvalues --  -11.31286 -11.30989 -11.30144 -11.30079 -11.29364
 Alpha  occ. eigenvalues --  -11.28687 -11.27532 -11.27016 -11.26782 -11.26515
 Alpha  occ. eigenvalues --  -11.26419 -11.26290 -11.26258 -11.26224 -11.26087
 Alpha  occ. eigenvalues --  -11.26057 -11.25859 -11.25674 -11.25661 -11.25644
 Alpha  occ. eigenvalues --  -11.25531 -11.24851 -10.56380  -8.03257  -8.02807
 Alpha  occ. eigenvalues --   -8.02794  -1.47131  -1.41460  -1.39339  -1.28546
 Alpha  occ. eigenvalues --   -1.25011  -1.20533  -1.17428  -1.17409  -1.13566
 Alpha  occ. eigenvalues --   -1.10496  -1.08872  -1.06283  -1.05479  -1.04489
 Alpha  occ. eigenvalues --   -1.03756  -1.02098  -1.01254  -0.99831  -0.94878
 Alpha  occ. eigenvalues --   -0.88924  -0.88561  -0.86252  -0.85184  -0.83965
 Alpha  occ. eigenvalues --   -0.82623  -0.82187  -0.80339  -0.79606  -0.76848
 Alpha  occ. eigenvalues --   -0.74919  -0.74370  -0.72454  -0.70892  -0.70445
 Alpha  occ. eigenvalues --   -0.67524  -0.67078  -0.66417  -0.66372  -0.65771
 Alpha  occ. eigenvalues --   -0.65289  -0.63700  -0.63153  -0.62711  -0.61919
 Alpha  occ. eigenvalues --   -0.61287  -0.61156  -0.60721  -0.60011  -0.59140
 Alpha  occ. eigenvalues --   -0.58761  -0.58470  -0.57248  -0.55595  -0.55032
 Alpha  occ. eigenvalues --   -0.54785  -0.54072  -0.53514  -0.53167  -0.52413
 Alpha  occ. eigenvalues --   -0.51380  -0.50757  -0.50476  -0.50072  -0.49936
 Alpha  occ. eigenvalues --   -0.46866  -0.46244  -0.45459  -0.45044  -0.43339
 Alpha  occ. eigenvalues --   -0.42260  -0.41300  -0.38724  -0.35983  -0.35610
 Alpha  occ. eigenvalues --   -0.34899  -0.34160  -0.33332  -0.32858  -0.29975
 Alpha virt. eigenvalues --    0.08976   0.09421   0.11935   0.12178   0.12759
 Alpha virt. eigenvalues --    0.13890   0.14442   0.16054   0.19853   0.20771
 Alpha virt. eigenvalues --    0.21653   0.22068   0.22670   0.23311   0.24501
 Alpha virt. eigenvalues --    0.25171   0.25517   0.25965   0.26863   0.28172
 Alpha virt. eigenvalues --    0.28287   0.29153   0.29857   0.30946   0.31311
 Alpha virt. eigenvalues --    0.31745   0.32286   0.33065   0.33753   0.34313
 Alpha virt. eigenvalues --    0.35278   0.35632   0.36010   0.36642   0.37705
 Alpha virt. eigenvalues --    0.37983   0.39132   0.39335   0.39977   0.40197
 Alpha virt. eigenvalues --    0.40695   0.42815   0.43527   0.44136   0.45039
 Alpha virt. eigenvalues --    0.45285   0.45846   0.47410   0.48577   0.49361
 Alpha virt. eigenvalues --    0.50856   0.51026   0.51630   0.52443   0.53866
 Alpha virt. eigenvalues --    0.55758   0.57387   0.57882   0.60242   0.60409
 Alpha virt. eigenvalues --    0.61507   0.61667   0.63566   0.63909   0.63993
 Alpha virt. eigenvalues --    0.64716   0.68358   0.69890   0.71839   0.72135
 Alpha virt. eigenvalues --    0.72899   0.73439   0.74070   0.74175   0.75388
 Alpha virt. eigenvalues --    0.75900   0.76064   0.76450   0.76884   0.77759
 Alpha virt. eigenvalues --    0.78072   0.79171   0.79652   0.79871   0.80291
 Alpha virt. eigenvalues --    0.80899   0.81159   0.82019   0.82264   0.82836
 Alpha virt. eigenvalues --    0.83286   0.83717   0.84432   0.84557   0.84850
 Alpha virt. eigenvalues --    0.85676   0.86283   0.86591   0.86879   0.87202
 Alpha virt. eigenvalues --    0.87472   0.88022   0.88248   0.89122   0.89231
 Alpha virt. eigenvalues --    0.89487   0.89988   0.90751   0.91241   0.91787
 Alpha virt. eigenvalues --    0.92034   0.92716   0.93355   0.93722   0.95025
 Alpha virt. eigenvalues --    0.96271   0.97577   0.98378   0.98754   0.99237
 Alpha virt. eigenvalues --    1.00138   1.00638   1.01282   1.02200   1.02837
 Alpha virt. eigenvalues --    1.05306   1.05618   1.06449   1.06948   1.07704
 Alpha virt. eigenvalues --    1.08186   1.08926   1.09523   1.09991   1.10844
 Alpha virt. eigenvalues --    1.10913   1.11566   1.11643   1.12438   1.12536
 Alpha virt. eigenvalues --    1.12698   1.13108   1.13980   1.14744   1.14952
 Alpha virt. eigenvalues --    1.15843   1.16242   1.16587   1.16996   1.17405
 Alpha virt. eigenvalues --    1.18188   1.19159   1.19883   1.20639   1.20832
 Alpha virt. eigenvalues --    1.21599   1.23573   1.23990   1.24765   1.25536
 Alpha virt. eigenvalues --    1.25765   1.26904   1.27957   1.28576   1.29626
 Alpha virt. eigenvalues --    1.30245   1.30802   1.31442   1.32293   1.35009
 Alpha virt. eigenvalues --    1.36053   1.37080   1.38166   1.39225   1.40389
 Alpha virt. eigenvalues --    1.41356   1.41873   1.42172   1.43182   1.44374
 Alpha virt. eigenvalues --    1.45267   1.45448   1.46978   1.49331   1.49559
 Alpha virt. eigenvalues --    1.51107   1.53251   1.55557   1.57666   1.58446
 Alpha virt. eigenvalues --    1.61434   1.63163   1.65798   1.66953   1.68808
 Alpha virt. eigenvalues --    1.68896   1.69616   1.71766   1.72588   1.75007
 Alpha virt. eigenvalues --    1.79167   1.81658   1.84649   1.89927   1.91048
 Alpha virt. eigenvalues --    1.93934   1.96394   1.98656   2.01957   2.05985
 Alpha virt. eigenvalues --    2.11213   2.15522   2.20476   2.22089   2.32483
          Condensed to atoms (all electrons):
 Mulliken atomic charges:
              1
     1  C    0.380533
     2  C    0.025877
     3  C   -0.115505
     4  C   -0.109388
     5  C   -0.209076
     6  C   -0.231497
     7  N   -0.836066
     8  N   -0.325353
     9  N    0.117054
    10  C   -0.129071
    11  C    0.797861
    12  N   -0.923264
    13  O   -0.629883
    14  C   -0.151173
    15  C   -0.381060
    16  C   -0.142484
    17  C   -0.135014
    18  C   -0.202977
    19  C    0.001578
    20  C   -0.206229
    21  Cl   0.148279
    22  C   -0.198784
    23  C    0.050133
    24  C   -0.190738
    25  C   -0.195226
    26  C    0.282179
    27  C   -0.173982
    28  C   -0.296998
    29  C    0.198317
    30  C    0.074363
    31  N   -0.659940
    32  N   -0.251008
    33  H    0.275551
    34  H    0.244546
    35  H    0.215068
    36  H    0.209526
    37  H    0.248113
    38  H    0.241051
    39  H    0.233451
    40  H    0.194618
    41  H    0.232454
    42  H    0.241706
    43  H    0.215211
    44  H    0.272204
    45  H    0.214906
    46  H    0.223186
    47  H    0.226442
    48  H    0.229610
    49  H    0.255831
    50  H    0.233694
    51  H    0.411373
 Sum of Mulliken atomic charges =   0.00000
 Mulliken charges with hydrogens summed into heavy atoms:
              1
     1  C    0.380533
     2  C    0.025877
     3  C    0.160047
     4  C    0.135158
     5  C    0.005992
     6  C   -0.021970
     7  N   -0.836066
     8  N   -0.325353
     9  N    0.117054
    10  C    0.360093
    11  C    0.797861
    12  N   -0.923264
    13  O   -0.629883
    14  C    0.276896
    15  C   -0.381060
    16  C    0.089971
    17  C    0.106692
    18  C    0.012234
    19  C    0.001578
    20  C    0.065975
    21  Cl   0.148279
    22  C    0.016122
    23  C    0.050133
    24  C    0.032447
    25  C    0.031216
    26  C    0.282179
    27  C    0.055628
    28  C   -0.296998
    29  C    0.454148
    30  C    0.308056
    31  N   -0.248567
    32  N   -0.251008
 Sum of Mulliken charges with hydrogens summed into heavy atoms =   0.00000
 Electronic spatial extent (au):  <R**2>=          17029.5139
 Charge=              0.0000 electrons
 Dipole moment (field-independent basis, Debye):
    X=             -0.7686    Y=             -1.5318    Z=              2.2564  Tot=              2.8335
 Quadrupole moment (field-independent basis, Debye-Ang):
   XX=           -199.9782   YY=           -201.8249   ZZ=           -178.4087
   XY=             11.8176   XZ=             20.8603   YZ=             11.8295
 Traceless Quadrupole moment (field-independent basis, Debye-Ang):
   XX=             -6.5743   YY=             -8.4210   ZZ=             14.9953
   XY=             11.8176   XZ=             20.8603   YZ=             11.8295
 Octapole moment (field-independent basis, Debye-Ang**2):
  XXX=           -162.1507  YYY=            -39.0112  ZZZ=             17.4742  XYY=             58.0703
  XXY=            -46.7966  XXZ=             -5.5839  XZZ=              9.9736  YZZ=             32.1647
  YYZ=            128.5458  XYZ=             31.1570
 Hexadecapole moment (field-independent basis, Debye-Ang**3):
 XXXX=         -12545.2039 YYYY=          -9688.1153 ZZZZ=          -1106.1129 XXXY=            268.3164
 XXXZ=            605.5343 YYYX=             50.9863 YYYZ=            754.6701 ZZZX=             -7.6469
 ZZZY=             14.6187 XXYY=          -3641.8796 XXZZ=          -2256.3247 YYZZ=          -1629.9526
 XXYZ=             36.4651 YYXZ=            505.5565 ZZXY=             71.7207
 N-N= 3.123618412824D+03 E-N=-1.042389329119D+04  KE= 1.779919320187D+03
 No NMR shielding tensors so no spin-rotation constants.
 Leave Link  601 at Tue Aug 30 11:26:46 2022, MaxMem=  209715200 cpu:       2.0
 (Enter /opt/gaussian/l701.exe)
 Compute integral first derivatives.
 ... and contract with generalized density number  0.
 Leave Link  701 at Tue Aug 30 11:26:47 2022, MaxMem=  209715200 cpu:       1.7
 (Enter /opt/gaussian/l702.exe)
 L702 exits ... SP integral derivatives will be done elsewhere.
 Leave Link  702 at Tue Aug 30 11:26:47 2022, MaxMem=  209715200 cpu:       0.2
 (Enter /opt/gaussian/l703.exe)
 Compute integral first derivatives, UseDBF=F ICtDFT=           0.
 Integral derivatives from FoFDir, PRISM(SPDF).
 Calling FoFJK, ICntrl=      2127 FMM=F ISym2X=0 I1Cent= 0 IOpClX= 0 NMat=1 NMatS=1 NMatT=0.
 FoFCou: FMM=F IPFlag=           0 FMFlag=      100000 FMFlg1=         800
         NFxFlg=           0 DoJE=F BraDBF=F KetDBF=F FulRan=T
         Omega=  0.000000  0.000000  1.000000  0.000000  0.000000 ICntrl=    2127 IOpCl=  0
         NMat0=    1 NMatS0=    1 NMatT0=    0 NMatD0=    1 NMtDS0=    0 NMtDT0=    0
         I1Cent=           0 NGrid=           0.
 Symmetry not used in FoFCou.
 Leave Link  703 at Tue Aug 30 11:27:20 2022, MaxMem=  209715200 cpu:     256.2
 (Enter /opt/gaussian/l716.exe)
 Dipole        =-3.02395149D-01-6.02646528D-01 8.87754262D-01
 ***** Axes restored to original set *****
 -------------------------------------------------------------------
 Center     Atomic                   Forces (Hartrees/Bohr)
 Number     Number              X              Y              Z
 -------------------------------------------------------------------
      1        6          -0.003200239   -0.045607161    0.003793341
      2        6           0.026226562    0.030865147   -0.027321574
      3        6           0.008399688    0.010163002   -0.008795450
      4        6          -0.000495327   -0.012773066    0.001807646
      5        6          -0.003175975    0.011714146    0.001820322
      6        6          -0.011033184   -0.002894320    0.010217289
      7        7          -0.028567396    0.011496264    0.038928038
      8        7          -0.018347158    0.018932372    0.015867120
      9        7           0.009825865    0.003654284   -0.012565639
     10        6           0.008390675    0.002620330   -0.036736107
     11        6           0.004257692    0.015369917    0.015740315
     12        7          -0.022397481    0.000298256   -0.027421633
     13        8           0.005597098   -0.026177385   -0.002438232
     14        6          -0.012773078    0.016246050    0.043426869
     15        6          -0.060255344    0.024202662   -0.013243358
     16        6           0.007681000    0.000437703   -0.000949280
     17        6           0.003988322   -0.000889430   -0.000000580
     18        6          -0.002727888    0.007522357   -0.006296865
     19        6           0.007215272    0.002541195   -0.004294207
     20        6          -0.008430710    0.006638606   -0.004192359
     21       17           0.053438574   -0.020597766    0.010581103
     22        6           0.001842137   -0.001849196   -0.006615319
     23        6          -0.009469876    0.023026566    0.001355885
     24        6          -0.002205228    0.009016740    0.002323653
     25        6           0.000748461   -0.004380969    0.006941723
     26        6           0.008350442   -0.025920569   -0.001354713
     27        6          -0.002997863    0.008884692    0.000710141
     28        6           0.022462279   -0.056558369   -0.016176045
     29        6           0.004611943   -0.010103757    0.027113861
     30        6           0.006662636   -0.018030935   -0.030819637
     31        7          -0.016361091    0.040035985   -0.013882717
     32        7          -0.013203090    0.033102904    0.029175293
     33        1          -0.008429209   -0.016669056    0.009069037
     34        1           0.006883715    0.016733219   -0.007870146
     35        1           0.008495210   -0.017606131   -0.005790614
     36        1           0.014802721   -0.001323656   -0.013427375
     37        1          -0.025655463    0.014233279    0.018583073
     38        1           0.021262959   -0.016745654    0.017529042
     39        1           0.018685125   -0.025530945   -0.007577181
     40        1          -0.010764671    0.017839088   -0.022745176
     41        1          -0.015339178   -0.010387600    0.008951391
     42        1          -0.001333369    0.017111190   -0.011703093
     43        1           0.002595293   -0.015692572    0.011286207
     44        1           0.020830002   -0.007137048    0.004827784
     45        1          -0.007691147    0.006310545    0.017920257
     46        1          -0.000496043   -0.010888980    0.016491851
     47        1          -0.000572960    0.014130651   -0.015822506
     48        1           0.007469588   -0.003118325   -0.018841588
     49        1           0.002250837   -0.007116896    0.016782169
     50        1           0.003392314   -0.006885531   -0.018839632
     51        1          -0.000443439    0.001758169    0.004477619
 -------------------------------------------------------------------
 Cartesian Forces:  Max     0.060255344 RMS     0.017235187
 Leave Link  716 at Tue Aug 30 11:27:20 2022, MaxMem=  209715200 cpu:       0.2
 (Enter /opt/gaussian/l103.exe)

 GradGradGradGradGradGradGradGradGradGradGradGradGradGradGradGradGradGrad
 Berny optimization.
 Internal  Forces:  Max     0.058239504 RMS     0.010460206
 Search for a local minimum.
 Step number   1 out of a maximum of  288
 All quantities printed in internal units (Hartrees-Bohrs-Radians)
 RMS Force = .10460D-01 SwitMx=.10000D-02 MixMth= 1
 Mixed Optimization -- RFO/linear search
 Second derivative matrix not updated -- first step.
 ITU=  0
     Eigenvalues ---    0.00231   0.00731   0.00926   0.01003   0.01194
     Eigenvalues ---    0.01389   0.01421   0.01442   0.01565   0.01588
     Eigenvalues ---    0.01614   0.01627   0.01696   0.01726   0.01740
     Eigenvalues ---    0.01776   0.01789   0.01864   0.01909   0.01911
     Eigenvalues ---    0.01924   0.01987   0.02048   0.02063   0.02065
     Eigenvalues ---    0.02069   0.02074   0.02109   0.02114   0.02116
     Eigenvalues ---    0.02117   0.02119   0.02119   0.02122   0.02123
     Eigenvalues ---    0.02136   0.02141   0.02152   0.02154   0.02157
     Eigenvalues ---    0.02168   0.02180   0.02184   0.02192   0.04887
     Eigenvalues ---    0.04940   0.06576   0.06579   0.10046   0.10371
     Eigenvalues ---    0.13330   0.13500   0.15998   0.15998   0.15999
     Eigenvalues ---    0.15999   0.15999   0.15999   0.16000   0.16000
     Eigenvalues ---    0.16000   0.16000   0.16000   0.16000   0.16000
     Eigenvalues ---    0.16000   0.16000   0.22000   0.22000   0.22000
     Eigenvalues ---    0.22100   0.22109   0.22588   0.22663   0.22959
     Eigenvalues ---    0.23427   0.23480   0.23494   0.23997   0.24507
     Eigenvalues ---    0.24662   0.24782   0.24890   0.24980   0.24985
     Eigenvalues ---    0.24989   0.24993   0.24999   0.24999   0.25000
     Eigenvalues ---    0.25000   0.25000   0.28477   0.30553   0.30578
     Eigenvalues ---    0.30716   0.30837   0.32102   0.33302   0.33523
     Eigenvalues ---    0.33528   0.33542   0.33555   0.33577   0.33610
     Eigenvalues ---    0.33617   0.33647   0.33657   0.33662   0.33777
     Eigenvalues ---    0.34804   0.34920   0.35084   0.35758   0.35854
     Eigenvalues ---    0.37972   0.38876   0.39917   0.40156   0.40913
     Eigenvalues ---    0.41599   0.41700   0.42007   0.42032   0.42118
     Eigenvalues ---    0.42539   0.42747   0.42819   0.44497   0.44586
     Eigenvalues ---    0.44599   0.45637   0.45853   0.45969   0.45990
     Eigenvalues ---    0.46346   0.46534   0.46902   0.47155   0.47391
     Eigenvalues ---    0.48459   0.49025   0.49461   0.51844   0.55903
     Eigenvalues ---    0.75909   0.84221
 RFO step:  Lambda=-6.98954047D-02 EMin= 2.30523160D-03
 Linear search not attempted -- first point.
 Maximum step size (   0.300) exceeded in Quadratic search.
    -- Step size scaled by   0.746
 Iteration  1 RMS(Cart)=  0.05675392 RMS(Int)=  0.00075238
 Iteration  2 RMS(Cart)=  0.00146750 RMS(Int)=  0.00005019
 Iteration  3 RMS(Cart)=  0.00000146 RMS(Int)=  0.00005019
 Iteration  4 RMS(Cart)=  0.00000000 RMS(Int)=  0.00005019
 Variable       Old X    -DE/DX   Delta X   Delta X   Delta X     New X
                                 (Linear)    (Quad)   (Total)
    R1        2.73612  -0.04430   0.00000  -0.07665  -0.07658   2.65955
    R2        2.64181  -0.00900   0.00000  -0.01334  -0.01333   2.62848
    R3        2.66858  -0.03206   0.00000  -0.04831  -0.04831   2.62027
    R4        2.63939  -0.01129   0.00000  -0.01665  -0.01663   2.62277
    R5        2.70079  -0.02568   0.00000  -0.03985  -0.03983   2.66096
    R6        2.62419  -0.00922   0.00000  -0.01181  -0.01183   2.61236
    R7        2.07912  -0.02070   0.00000  -0.03799  -0.03799   2.04113
    R8        2.62490  -0.01103   0.00000  -0.01445  -0.01446   2.61044
    R9        2.07709  -0.01973   0.00000  -0.03612  -0.03612   2.04097
   R10        2.65974  -0.00726   0.00000  -0.00908  -0.00911   2.65063
   R11        2.08134  -0.02039   0.00000  -0.03755  -0.03755   2.04380
   R12        2.07993  -0.02003   0.00000  -0.03681  -0.03681   2.04312
   R13        2.58384  -0.00965   0.00000  -0.01103  -0.01107   2.57277
   R14        2.71667  -0.00181   0.00000  -0.00288  -0.00288   2.71379
   R15        2.37847  -0.00212   0.00000  -0.00060  -0.00064   2.37784
   R16        2.91108  -0.01002   0.00000  -0.02109  -0.02109   2.88999
   R17        2.13025  -0.03404   0.00000  -0.06715  -0.06715   2.06310
   R18        2.13525  -0.03204   0.00000  -0.06363  -0.06363   2.07162
   R19        2.61453  -0.02302   0.00000  -0.03098  -0.03098   2.58355
   R20        2.35716  -0.02682   0.00000  -0.02194  -0.02194   2.33522
   R21        2.74406   0.01376   0.00000   0.02283   0.02283   2.76689
   R22        2.68882   0.00936   0.00000   0.01425   0.01425   2.70307
   R23        2.83958   0.00985   0.00000   0.01880   0.01880   2.85838
   R24        2.13574  -0.03233   0.00000  -0.06425  -0.06425   2.07148
   R25        2.13259  -0.03072   0.00000  -0.06080  -0.06080   2.07178
   R26        2.64203  -0.01635   0.00000  -0.02346  -0.02347   2.61857
   R27        2.64213  -0.01304   0.00000  -0.01876  -0.01875   2.62338
   R28        3.21461   0.05824   0.00000   0.10166   0.10166   3.31627
   R29        2.63511  -0.00812   0.00000  -0.01135  -0.01136   2.62375
   R30        2.07929  -0.02050   0.00000  -0.03765  -0.03765   2.04165
   R31        2.63995  -0.00740   0.00000  -0.01036  -0.01035   2.62959
   R32        2.08088  -0.02074   0.00000  -0.03816  -0.03816   2.04272
   R33        2.63343  -0.00932   0.00000  -0.01259  -0.01259   2.62083
   R34        2.07905  -0.01950   0.00000  -0.03580  -0.03580   2.04325
   R35        2.64373  -0.00711   0.00000  -0.00964  -0.00964   2.63409
   R36        2.08524  -0.02253   0.00000  -0.04172  -0.04172   2.04352
   R37        2.65237  -0.00856   0.00000  -0.01162  -0.01162   2.64076
   R38        2.62584  -0.00699   0.00000  -0.00954  -0.00955   2.61629
   R39        2.07981  -0.02044   0.00000  -0.03755  -0.03755   2.04225
   R40        2.65218  -0.00836   0.00000  -0.01138  -0.01138   2.64080
   R41        2.71341   0.02565   0.00000   0.04060   0.04060   2.75401
   R42        2.66423  -0.02113   0.00000  -0.03153  -0.03153   2.63270
   R43        2.08109  -0.01959   0.00000  -0.03606  -0.03606   2.04503
   R44        2.62603  -0.00771   0.00000  -0.01063  -0.01063   2.61541
   R45        2.08050  -0.02116   0.00000  -0.03892  -0.03892   2.04159
   R46        2.66488  -0.02215   0.00000  -0.03310  -0.03311   2.63177
   R47        2.08143  -0.02036   0.00000  -0.03750  -0.03750   2.04393
   R48        2.66496  -0.03889   0.00000  -0.05697  -0.05696   2.60800
   R49        2.74602  -0.02388   0.00000  -0.04062  -0.04052   2.70551
[...]
 ! D123  D(23,28,30,50)         -1.1307         -DE/DX =    0.0                 !
 ! D124  D(29,28,30,32)          0.1585         -DE/DX =    0.0                 !
 ! D125  D(29,28,30,50)        178.945          -DE/DX =    0.0                 !
 ! D126  D(28,29,31,32)         -0.0828         -DE/DX =    0.0                 !
 ! D127  D(28,29,31,51)        179.4439         -DE/DX =    0.0                 !
 ! D128  D(49,29,31,32)       -178.8181         -DE/DX =    0.0                 !
 ! D129  D(49,29,31,51)          0.7086         -DE/DX =    0.0                 !
 ! D130  D(28,30,32,31)         -0.2053         -DE/DX =    0.0                 !
 ! D131  D(50,30,32,31)       -179.1006         -DE/DX =    0.0                 !
 ! D132  D(29,31,32,30)          0.18           -DE/DX =    0.0                 !
 ! D133  D(51,31,32,30)       -179.395          -DE/DX =    0.0                 !
 --------------------------------------------------------------------------------
 GradGradGradGradGradGradGradGradGradGradGradGradGradGradGradGradGradGrad

 Largest change from initial coordinates is atom   51       2.372 Angstoms.
 Leave Link  103 at Tue Aug 30 12:02:08 2022, MaxMem=  209715200 cpu:       0.8
 (Enter /opt/gaussian/l202.exe)
 Stoichiometry    C24H19ClN6O
 Framework group  C1[X(C24H19ClN6O)]
 Deg. of freedom   147
 Full point group                 C1      NOp   1
 RotChk:  IX=0 Diff= 1.75D-15
 Largest Abelian subgroup         C1      NOp   1
 Largest concise Abelian subgroup C1      NOp   1
                         Standard orientation:                         
 ---------------------------------------------------------------------
 Center     Atomic      Atomic             Coordinates (Angstroms)
 Number     Number       Type             X           Y           Z
 ---------------------------------------------------------------------
      1          6           0       -4.472867    0.227106    0.310929
      2          6           0       -5.113596    1.287038   -0.319555
      3          6           0       -5.142357   -0.964633    0.608777
      4          6           0       -6.460648    1.217280   -0.676787
      5          6           0       -6.469770   -1.020931    0.257968
      6          6           0       -7.128926    0.056687   -0.377229
      7          7           0       -3.196431    0.676897    0.506069
      8          7           0       -4.194014    2.310707   -0.476809
      9          7           0       -3.081820    1.943799    0.011335
     10          6           0       -2.069820    0.069606    1.177144
     11          6           0       -1.490130   -1.060305    0.340124
     12          7           0       -0.315414   -0.881387   -0.307234
     13          8           0       -2.128568   -2.113696    0.262594
     14          6           0        0.164936   -1.955038   -1.203563
     15          6           0        3.353073   -3.724060   -0.184335
     16          6           0        2.904488   -4.705760    0.671689
     17          6           0        2.490549   -2.834263   -0.793817
     18          6           0        1.540288   -4.793265    0.920250
     19          6           0        1.125614   -2.920071   -0.541577
     20          6           0        0.656632   -3.911271    0.319672
     21         17           0        5.128329   -3.594019   -0.524184
     22          6           0        2.343756    1.436427    0.867481
     23          6           0        2.167380    2.535757    0.026668
     24          6           0        1.520851    0.326120    0.772608
     25          6           0        1.143055    2.482988   -0.919597
     26          6           0        0.508531    0.287108   -0.177052
     27          6           0        0.326893    1.369848   -1.026395
     28          6           0        3.031232    3.718835    0.131189
     29          6           0        3.627133    4.237965    1.252701
     30          6           0        3.439205    4.591310   -0.916739
     31          7           0        4.322633    5.326503    0.860958
     32          7           0        4.214706    5.548309   -0.466192
     33          1           0       -4.634543   -1.796732    1.048525
     34          1           0       -6.938350    2.044001   -1.162553
     35          1           0       -7.025376   -1.915574    0.462205
     36          1           0       -8.165520   -0.045874   -0.631069
     37          1           0       -1.365535    0.855024    1.378855
     38          1           0       -2.400930   -0.362546    2.110645
     39          1           0       -0.702544   -2.485115   -1.561817
     40          1           0        0.642789   -1.473952   -2.044455
     41          1           0        3.594655   -5.385045    1.128268
     42          1           0        2.877471   -2.085081   -1.455043
     43          1           0        1.171719   -5.555476    1.578683
     44          1           0       -0.395664   -3.984210    0.510770
     45          1           0        3.141526    1.437142    1.584350
     46          1           0        1.672572   -0.514943    1.420142
     47          1           0        0.965508    3.324511   -1.559465
     48          1           0       -0.466269    1.351280   -1.747275
     49          1           0        3.586445    3.926559    2.271160
     50          1           0        3.205195    4.530590   -1.954468
     51          1           0        4.863175    5.942646    1.412708
 ---------------------------------------------------------------------
 Rotational constants (GHZ):      0.1278651      0.0837785      0.0529776
 Leave Link  202 at Tue Aug 30 12:02:08 2022, MaxMem=  209715200 cpu:       0.0
 (Enter /opt/gaussian/l601.exe)
 Copying SCF densities to generalized density rwf, IOpCl= 0 IROHF=0.

 **********************************************************************

            Population analysis using the SCF density.

 **********************************************************************

 Orbital symmetries:
       Occupied  (A) (A) (A) (A) (A) (A) (A) (A) (A) (A) (A) (A)
                 (A) (A) (A) (A) (A) (A) (A) (A) (A) (A) (A) (A)
                 (A) (A) (A) (A) (A) (A) (A) (A) (A) (A) (A) (A)
                 (A) (A) (A) (A) (A) (A) (A) (A) (A) (A) (A) (A)
                 (A) (A) (A) (A) (A) (A) (A) (A) (A) (A) (A) (A)
                 (A) (A) (A) (A) (A) (A) (A) (A) (A) (A) (A) (A)
                 (A) (A) (A) (A) (A) (A) (A) (A) (A) (A) (A) (A)
                 (A) (A) (A) (A) (A) (A) (A) (A) (A) (A) (A) (A)
                 (A) (A) (A) (A) (A) (A) (A) (A) (A) (A) (A) (A)
                 (A) (A) (A) (A) (A) (A) (A)
       Virtual   (A) (A) (A) (A) (A) (A) (A) (A) (A) (A) (A) (A)
                 (A) (A) (A) (A) (A) (A) (A) (A) (A) (A) (A) (A)
                 (A) (A) (A) (A) (A) (A) (A) (A) (A) (A) (A) (A)
                 (A) (A) (A) (A) (A) (A) (A) (A) (A) (A) (A) (A)
                 (A) (A) (A) (A) (A) (A) (A) (A) (A) (A) (A) (A)
                 (A) (A) (A) (A) (A) (A) (A) (A) (A) (A) (A) (A)
                 (A) (A) (A) (A) (A) (A) (A) (A) (A) (A) (A) (A)
                 (A) (A) (A) (A) (A) (A) (A) (A) (A) (A) (A) (A)
                 (A) (A) (A) (A) (A) (A) (A) (A) (A) (A) (A) (A)
                 (A) (A) (A) (A) (A) (A) (A) (A) (A) (A) (A) (A)
                 (A) (A) (A) (A) (A) (A) (A) (A) (A) (A) (A) (A)
                 (A) (A) (A) (A) (A) (A) (A) (A) (A) (A) (A) (A)
                 (A) (A) (A) (A) (A) (A) (A) (A) (A) (A) (A) (A)
                 (A) (A) (A) (A) (A) (A) (A) (A) (A) (A) (A) (A)
                 (A) (A) (A) (A) (A) (A) (A) (A) (A) (A) (A) (A)
                 (A) (A) (A) (A) (A) (A) (A) (A) (A) (A) (A) (A)
                 (A) (A) (A) (A) (A) (A) (A) (A) (A) (A) (A) (A)
                 (A) (A) (A) (A) (A) (A) (A) (A) (A) (A) (A)
 The electronic state is 1-A.
 Alpha  occ. eigenvalues -- -104.82000 -20.54905 -15.66954 -15.66263 -15.65101
 Alpha  occ. eigenvalues --  -15.62044 -15.61807 -15.60981 -11.38965 -11.32061
 Alpha  occ. eigenvalues --  -11.30898 -11.29798 -11.29753 -11.29580 -11.28739
 Alpha  occ. eigenvalues --  -11.27314 -11.27016 -11.26797 -11.26656 -11.26122
 Alpha  occ. eigenvalues --  -11.26101 -11.25961 -11.25728 -11.25668 -11.25474
 Alpha  occ. eigenvalues --  -11.25469 -11.25302 -11.25226 -11.25094 -11.25025
 Alpha  occ. eigenvalues --  -11.24904 -11.24403 -10.55920  -8.02770  -8.02386
 Alpha  occ. eigenvalues --   -8.02369  -1.47937  -1.41983  -1.40869  -1.28423
 Alpha  occ. eigenvalues --   -1.25152  -1.20143  -1.18097  -1.17977  -1.12842
 Alpha  occ. eigenvalues --   -1.12243  -1.09700  -1.07253  -1.06397  -1.04976
 Alpha  occ. eigenvalues --   -1.04342  -1.02409  -1.02227  -1.00941  -0.95974
 Alpha  occ. eigenvalues --   -0.89060  -0.88800  -0.86588  -0.85370  -0.85010
 Alpha  occ. eigenvalues --   -0.83387  -0.83016  -0.81264  -0.80747  -0.77683
 Alpha  occ. eigenvalues --   -0.76224  -0.74811  -0.72655  -0.72215  -0.71762
 Alpha  occ. eigenvalues --   -0.68707  -0.67483  -0.67085  -0.66851  -0.65707
 Alpha  occ. eigenvalues --   -0.65496  -0.64154  -0.63654  -0.62811  -0.62658
 Alpha  occ. eigenvalues --   -0.62419  -0.61994  -0.61356  -0.60772  -0.59454
 Alpha  occ. eigenvalues --   -0.58960  -0.58510  -0.58336  -0.56902  -0.55681
 Alpha  occ. eigenvalues --   -0.54828  -0.53801  -0.53488  -0.53274  -0.52752
 Alpha  occ. eigenvalues --   -0.51521  -0.51244  -0.50800  -0.49986  -0.49680
 Alpha  occ. eigenvalues --   -0.46614  -0.45969  -0.45657  -0.45477  -0.43124
 Alpha  occ. eigenvalues --   -0.42832  -0.40430  -0.39730  -0.37572  -0.36123
 Alpha  occ. eigenvalues --   -0.35282  -0.34506  -0.34086  -0.32331  -0.31505
 Alpha virt. eigenvalues --    0.09356   0.10440   0.11359   0.12214   0.12822
 Alpha virt. eigenvalues --    0.14909   0.16189   0.16485   0.18092   0.20053
 Alpha virt. eigenvalues --    0.22087   0.23503   0.24104   0.24299   0.25603
 Alpha virt. eigenvalues --    0.25785   0.26065   0.26588   0.27705   0.28096
 Alpha virt. eigenvalues --    0.29481   0.29929   0.30422   0.31085   0.31664
 Alpha virt. eigenvalues --    0.32070   0.32218   0.32958   0.33891   0.34560
 Alpha virt. eigenvalues --    0.34962   0.35545   0.36395   0.36695   0.37005
 Alpha virt. eigenvalues --    0.38740   0.39457   0.39569   0.40163   0.41031
 Alpha virt. eigenvalues --    0.42935   0.43673   0.43916   0.44180   0.44926
 Alpha virt. eigenvalues --    0.46490   0.46874   0.48079   0.48363   0.49606
 Alpha virt. eigenvalues --    0.51161   0.51441   0.52340   0.52731   0.53189
 Alpha virt. eigenvalues --    0.56541   0.57455   0.58634   0.59483   0.59772
 Alpha virt. eigenvalues --    0.61267   0.61609   0.63140   0.64036   0.64416
 Alpha virt. eigenvalues --    0.64784   0.69197   0.69835   0.71882   0.72822
 Alpha virt. eigenvalues --    0.73648   0.73863   0.74302   0.74925   0.75263
 Alpha virt. eigenvalues --    0.75594   0.75911   0.76502   0.77699   0.78266
 Alpha virt. eigenvalues --    0.78763   0.79197   0.79735   0.80375   0.80765
 Alpha virt. eigenvalues --    0.81353   0.81809   0.82473   0.83079   0.83221
 Alpha virt. eigenvalues --    0.83646   0.83756   0.84322   0.84959   0.85480
 Alpha virt. eigenvalues --    0.85733   0.85830   0.86113   0.86556   0.86950
 Alpha virt. eigenvalues --    0.87459   0.87601   0.88290   0.88650   0.89531
 Alpha virt. eigenvalues --    0.89971   0.90682   0.90898   0.91278   0.91488
 Alpha virt. eigenvalues --    0.92879   0.93611   0.94237   0.94630   0.95283
 Alpha virt. eigenvalues --    0.97101   0.97972   0.98445   0.99091   0.99619
 Alpha virt. eigenvalues --    1.01205   1.01531   1.02257   1.02600   1.03281
 Alpha virt. eigenvalues --    1.04457   1.06186   1.06559   1.07358   1.08609
 Alpha virt. eigenvalues --    1.09643   1.09911   1.10528   1.10785   1.11810
 Alpha virt. eigenvalues --    1.11890   1.12603   1.12830   1.13355   1.13813
 Alpha virt. eigenvalues --    1.14254   1.14771   1.15140   1.15342   1.16044
 Alpha virt. eigenvalues --    1.16288   1.16905   1.17253   1.18755   1.18916
 Alpha virt. eigenvalues --    1.19193   1.20071   1.20557   1.21426   1.21845
 Alpha virt. eigenvalues --    1.22783   1.23704   1.24907   1.25155   1.25929
 Alpha virt. eigenvalues --    1.27056   1.27811   1.28360   1.29283   1.30218
 Alpha virt. eigenvalues --    1.30520   1.31087   1.32303   1.33206   1.34784
 Alpha virt. eigenvalues --    1.35176   1.35716   1.37531   1.39383   1.40063
 Alpha virt. eigenvalues --    1.41004   1.41531   1.42108   1.43331   1.43582
 Alpha virt. eigenvalues --    1.44868   1.45458   1.46226   1.47234   1.49884
 Alpha virt. eigenvalues --    1.51569   1.53116   1.55094   1.57289   1.58768
 Alpha virt. eigenvalues --    1.59538   1.61149   1.61930   1.66268   1.68199
 Alpha virt. eigenvalues --    1.69596   1.71815   1.73853   1.74127   1.75048
 Alpha virt. eigenvalues --    1.75937   1.81977   1.86239   1.88675   1.90963
 Alpha virt. eigenvalues --    1.97369   1.98844   2.04180   2.05766   2.08569
 Alpha virt. eigenvalues --    2.09744   2.16231   2.21346   2.25708   2.36256
          Condensed to atoms (all electrons):
 Mulliken atomic charges:
              1
     1  C    0.442605
     2  C   -0.016064
     3  C   -0.062235
     4  C   -0.083780
     5  C   -0.212108
     6  C   -0.230024
     7  N   -0.878937
     8  N   -0.336645
     9  N    0.085923
    10  C   -0.104811
    11  C    0.799540
    12  N   -0.923389
    13  O   -0.638111
    14  C   -0.111751
    15  C   -0.317740
    16  C   -0.150146
    17  C   -0.152775
    18  C   -0.200200
    19  C   -0.013208
    20  C   -0.198062
    21  Cl   0.087118
    22  C   -0.214618
    23  C    0.057266
    24  C   -0.166643
    25  C   -0.211398
    26  C    0.219409
    27  C   -0.146221
    28  C   -0.311474
    29  C    0.230984
    30  C    0.080494
    31  N   -0.684829
    32  N   -0.244744
    33  H    0.265271
    34  H    0.239564
    35  H    0.206528
    36  H    0.204600
    37  H    0.253645
    38  H    0.228849
    39  H    0.239946
    40  H    0.196686
    41  H    0.236564
    42  H    0.241713
    43  H    0.214986
    44  H    0.264666
    45  H    0.215618
    46  H    0.231579
    47  H    0.228190
    48  H    0.238039
    49  H    0.257035
    50  H    0.233689
    51  H    0.409404
 Sum of Mulliken atomic charges =   0.00000
 Mulliken charges with hydrogens summed into heavy atoms:
              1
     1  C    0.442605
     2  C   -0.016064
     3  C    0.203037
     4  C    0.155783
     5  C   -0.005580
     6  C   -0.025423
     7  N   -0.878937
     8  N   -0.336645
     9  N    0.085923
    10  C    0.377683
    11  C    0.799540
    12  N   -0.923389
    13  O   -0.638111
    14  C    0.324881
    15  C   -0.317740
    16  C    0.086418
    17  C    0.088938
    18  C    0.014786
    19  C   -0.013208
    20  C    0.066604
    21  Cl   0.087118
    22  C    0.001000
    23  C    0.057266
    24  C    0.064936
    25  C    0.016792
    26  C    0.219409
    27  C    0.091819
    28  C   -0.311474
    29  C    0.488019
    30  C    0.314182
    31  N   -0.275425
    32  N   -0.244744
 Sum of Mulliken charges with hydrogens summed into heavy atoms =   0.00000
 Electronic spatial extent (au):  <R**2>=          18694.7069
 Charge=              0.0000 electrons
 Dipole moment (field-independent basis, Debye):
    X=             -0.2438    Y=             -1.4526    Z=              4.0051  Tot=              4.2674
 Quadrupole moment (field-independent basis, Debye-Ang):
   XX=           -197.2737   YY=           -205.6706   ZZ=           -180.0845
   XY=             16.3623   XZ=             14.7751   YZ=              6.9121
 Traceless Quadrupole moment (field-independent basis, Debye-Ang):
   XX=             -2.9308   YY=            -11.3277   ZZ=             14.2585
   XY=             16.3623   XZ=             14.7751   YZ=              6.9121
 Octapole moment (field-independent basis, Debye-Ang**2):
  XXX=           -210.8271  YYY=           -107.4090  ZZZ=             10.1850  XYY=             24.0015
  XXY=             19.4258  XXZ=             73.4296  XZZ=             37.1770  YZZ=             25.7831
  YYZ=            121.7622  XYZ=             63.6134
 Hexadecapole moment (field-independent basis, Debye-Ang**3):
 XXXX=         -14264.6121 YYYY=         -10044.7418 ZZZZ=           -776.3444 XXXY=            503.6685
 XXXZ=            566.0341 YYYX=             24.3392 YYYZ=            285.3326 ZZZX=             28.9178
 ZZZY=             37.1649 XXYY=          -4373.9464 XXZZ=          -2621.0390 YYZZ=          -1592.3971
 XXYZ=            247.7274 YYXZ=            530.2593 ZZXY=            131.1427
 N-N= 3.073984860487D+03 E-N=-1.032612778821D+04  KE= 1.781766669950D+03
 No NMR shielding tensors so no spin-rotation constants.
 Leave Link  601 at Tue Aug 30 12:02:08 2022, MaxMem=  209715200 cpu:       1.5
 (Enter /opt/gaussian/l9999.exe)
 1\1\GINC-LQCAPF-6\FOpt\RHF\6-31G\C24H19Cl1N6O1\LQCAPF-6\30-Aug-2022\0\
 \#p opt hf/6-31G\\Mol37.out\\0,1\C,15.356218106,-6.3351803794,-1.67513
 55437\C,14.6369983249,-7.3064967721,-0.9890111291\C,14.8796349849,-5.0
 27046636,-1.8123470928\C,13.3978381426,-7.0258249758,-0.412178506\C,13
 .6560613395,-4.7626050765,-1.2456022054\C,12.9164316692,-5.7483783103,
 -0.5524772405\N,16.482015353,-6.9876974601,-2.0952325358\N,15.36544904
 61,-8.4839153218,-1.0251088888\N,16.4367490194,-8.2856301906,-1.675402
 5585\C,17.5831870466,-6.543450042,-2.9189205398\C,18.4837186175,-5.592
 1744573,-2.1459651517\N,19.6913680736,-6.0179181229,-1.7085098918\O,18
 .0700393018,-4.4508149614,-1.923674591\C,20.4943258987,-5.1084874548,-
 0.862895725\C,23.7562618395,-3.861397641,-2.3247501757\C,23.3688170765
 ,-2.7604786534,-3.0565989997\C,22.8498386818,-4.6252740518,-1.61619784
 92\C,22.0222973553,-2.4183010116,-3.073303083\C,21.501722503,-4.284383
 658,-1.6364723127\C,21.0954183698,-3.170200188,-2.3697423475\Cl,25.508
 0772459,-4.3236720995,-2.2874811822\C,21.6633128038,-8.6813401776,-3.3
 940437624\C,21.420163511,-9.7870929907,-2.5786964874\C,21.0837625411,-
 7.4528862666,-3.1220542281\C,20.5824922976,-9.6196684311,-1.4751926285
 \C,20.2557372562,-7.3013104934,-2.0177146679\C,20.011857588,-8.3904238
 33,-1.192452971\C,22.0245609309,-11.0935493804,-2.8697511742\C,22.3333
 576763,-11.6319500085,-4.0933331796\C,22.4224708916,-12.0930766334,-1.
 9378605448\N,22.8687530112,-12.8496543981,-3.8638886549\N,22.929058701
 8,-13.1385301944,-2.546661403\H,15.4574928747,-4.269101699,-2.29736593
 2\H,12.8573361059,-7.7868909863,0.1134367057\H,13.2498346247,-3.772593
 4495,-1.3207891834\H,11.9685962895,-5.4829578252,-0.1274603832\H,18.09
 08501918,-7.4247574885,-3.2641194856\H,17.1965592478,-5.9976283109,-3.
 7676914216\H,19.8055415362,-4.4599383242,-0.3463600954\H,21.0000024356
 ,-5.7218413459,-0.1314757278\H,24.0929160366,-2.1834771637,-3.59416114
 71\H,23.1900237484,-5.4738006577,-1.0572010893\H,21.7027567371,-1.5603
 86623,-3.6320709173\H,20.0578603147,-2.9009556629,-2.3817930405\H,22.3
 262665333,-8.7734357954,-4.2321060527\H,21.2854164921,-6.6095661901,-3
 .7528104974\H,20.3544986513,-10.458388661,-0.8477522895\H,19.357285834
 7,-8.2818747194,-0.3505088735\H,22.193196561,-11.2499227338,-5.0783702
 195\H,22.3675196666,-12.06272507,-0.8741935909\H,23.1943509126,-13.512
 2470222,-4.5205495072\\Version=EM64L-G09RevC.01\State=1-A\HF=-1780.312
 0145\RMSD=4.639e-09\RMSF=1.882e-06\Dipole=-0.2323229,0.684935,-1.51514
 46\Quadrupole=-9.4454262,-4.894727,14.3401533,-10.7259105,-7.4400876,7
 .6995615\PG=C01 [X(C24H19Cl1N6O1)]\\@


 THE ONLY EXISTING THINGS ARE ATOMS AND EMPTY SPACE;
 ALL ELSE IS MERE OPINION. -- DEMOCRITUS OF ABDERA D. 370 B.C.
 EXPERIMENTS ARE THE ONLY MEANS OF KNOWLEDGE AT OUR DISPOSAL
 THE REST IS POETRY, IMAGINATION. -- MAX PLANCK
 Job cpu time:  0 days  4 hours 48 minutes  7.5 seconds.
 File lengths (MBytes):  RWF=     74 Int=      0 D2E=      0 Chk=     11 Scr=      1
 Normal termination of Gaussian 09 at Tue Aug 30 12:02:08 2022.
