 Entering Gaussian System, Link 0=g09
 Input=Mol36.gjf
 Output=Mol36.log
 Initial command:
 /opt/gaussian/l1.exe /home/scr/lqcapf-6/Gau-312198.inp -scrdir=/home/scr/lqcapf-6/
 Entering Link 1 = /opt/gaussian/l1.exe PID=    312200.
  
 Copyright (c) 1988,1990,1992,1993,1995,1998,2003,2009,2011,
            Gaussian, Inc.  All Rights Reserved.
  
 This is part of the Gaussian(R) 09 program.  It is based on
 the Gaussian(R) 03 system (copyright 2003, Gaussian, Inc.),
 the Gaussian(R) 98 system (copyright 1998, Gaussian, Inc.),
 the Gaussian(R) 94 system (copyright 1995, Gaussian, Inc.),
 the Gaussian 92(TM) system (copyright 1992, Gaussian, Inc.),
 the Gaussian 90(TM) system (copyright 1990, Gaussian, Inc.),
 the Gaussian 88(TM) system (copyright 1988, Gaussian, Inc.),
 the Gaussian 86(TM) system (copyright 1986, Carnegie Mellon
 University), and the Gaussian 82(TM) system (copyright 1983,
 Carnegie Mellon University). Gaussian is a federally registered
 trademark of Gaussian, Inc.
  
 This software contains proprietary and confidential information,
 including trade secrets, belonging to Gaussian, Inc.
  
 This software is provided under written license and may be
 used, copied, transmitted, or stored only in accord with that
 written license.
  
 The following legend is applicable only to US Government
 contracts under FAR:
  
                    RESTRICTED RIGHTS LEGEND
  
 Use, reproduction and disclosure by the US Government is
 subject to restrictions as set forth in subparagraphs (a)
 and (c) of the Commercial Computer Software - Restricted
 Rights clause in FAR 52.227-19.
  
 Gaussian, Inc.
 340 Quinnipiac St., Bldg. 40, Wallingford CT 06492
  
  
 ---------------------------------------------------------------
 Warning -- This program may not be used in any manner that
 competes with the business of Gaussian, Inc. or will provide
 assistance to any competitor of Gaussian, Inc.  The licensee
 of this program is prohibited from giving any competitor of
 Gaussian, Inc. access to this program.  By using this program,
 the user acknowledges that Gaussian, Inc. is engaged in the
 business of creating and licensing software in the field of
 computational chemistry and represents and warrants to the
 licensee that it is not a competitor of Gaussian, Inc. and that
 it will not use this program in any manner prohibited above.
 ---------------------------------------------------------------
  

 Cite this work as:
 Gaussian 09, Revision C.01,
 M. J. Frisch, G. W. Trucks, H. B. Schlegel, G. E. Scuseria, 
 M. A. Robb, J. R. Cheeseman, G. Scalmani, V. Barone, B. Mennucci, 
 G. A. Petersson, H. Nakatsuji, M. Caricato, X. Li, H. P. Hratchian, 
 A. F. Izmaylov, J. Bloino, G. Zheng, J. L. Sonnenberg, M. Hada, 
 M. Ehara, K. Toyota, R. Fukuda, J. Hasegawa, M. Ishida, T. Nakajima, 
 Y. Honda, O. Kitao, H. Nakai, T. Vreven, J. A. Montgomery, Jr., 
 J. E. Peralta, F. Ogliaro, M. Bearpark, J. J. Heyd, E. Brothers, 
 K. N. Kudin, V. N. Staroverov, T. Keith, R. Kobayashi, J. Normand, 
 K. Raghavachari, A. Rendell, J. C. Burant, S. S. Iyengar, J. Tomasi, 
 M. Cossi, N. Rega, J. M. Millam, M. Klene, J. E. Knox, J. B. Cross, 
 V. Bakken, C. Adamo, J. Jaramillo, R. Gomperts, R. E. Stratmann, 
 O. Yazyev, A. J. Austin, R. Cammi, C. Pomelli, J. W. Ochterski, 
 R. L. Martin, K. Morokuma, V. G. Zakrzewski, G. A. Voth, 
 P. Salvador, J. J. Dannenberg, S. Dapprich, A. D. Daniels, 
 O. Farkas, J. B. Foresman, J. V. Ortiz, J. Cioslowski, 
 and D. J. Fox, Gaussian, Inc., Wallingford CT, 2010.
 
 ******************************************
 Gaussian 09:  EM64L-G09RevC.01 23-Sep-2011
                27-Aug-2022 
 ******************************************
 %nprocshared=8
 Will use up to    8 processors via shared memory.
 %mem=1600MB
 ---------------
 #p opt hf/6-31G
 ---------------
 1/18=20,19=15,38=1/1,3;
 2/9=110,12=2,17=6,18=5,40=1/2;
 3/5=1,6=6,11=9,16=1,25=1,30=1,71=1/1,2,3;
 4//1;
 5/5=2,38=5/2;
 6/7=2,8=2,9=2,10=2,28=1/1;
 7//1,2,3,16;
 1/18=20,19=15/3(2);
 2/9=110/2;
 99//99;
 2/9=110/2;
 3/5=1,6=6,11=9,16=1,25=1,30=1,71=1/1,2,3;
 4/5=5,16=3/1;
 5/5=2,38=5/2;
 7//1,2,3,16;
 1/18=20,19=15/3(-5);
 2/9=110/2;
 6/7=2,8=2,9=2,10=2,19=2,28=1/1;
 99/9=1/99;
 Leave Link    1 at Sat Aug 27 08:48:36 2022, MaxMem=  209715200 cpu:       0.1
 (Enter /opt/gaussian/l101.exe)
 ---------
 Mol36.out
 ---------
 Charge =  0 Multiplicity = 1
 Symbolic Z-Matrix:
 Cl                    23.9688  -15.1566  -3.027 
 C                     23.1621  -13.7584  -2.4966 
 C                     23.2175  -13.3944  -1.1461 
 C                     22.5454  -12.2504  -0.724 
 C                     21.8213  -11.4753  -1.6315 
 C                     21.7697  -11.8376  -2.9792 
 C                     22.4468  -12.9861  -3.4129 
 C                     20.9864  -11.0832  -4.0207 
 N                     20.3808  -9.83     -3.6417 
 C                     21.1336  -8.6549   -3.5455 
 O                     20.6135  -7.5781   -3.2144 
 C                     22.6279  -8.7583   -3.9045 
 N                     23.4056  -7.581    -3.6243 
 N                     23.3345  -6.4263   -4.3688 
 N                     23.8307  -5.4422   -3.7702 
 C                     24.2456  -5.8422   -2.4574 
 C                     24.8506  -5.1681   -1.3975 
 C                     25.1258  -5.8993   -0.2461 
 C                     24.8195  -7.266    -0.1455 
 C                     24.2255  -7.9695   -1.1889 
 C                     23.933   -7.2522   -2.3489 
 C                     19.0211  -9.8649   -3.2253 
 C                     18.5392  -10.9476  -2.4578 
 C                     17.2025  -11.0087  -2.088 
 C                     16.3019  -9.9978   -2.458 
 C                     16.7862  -8.9146   -3.2069 
 C                     18.1206  -8.8423   -3.5896 
 C                     14.9199  -10.0738  -2.0757 
 C                     14.2168  -11.1852  -1.566 
 N                     12.909   -10.7552  -1.3481 
 N                     12.7313  -9.4738   -1.6759 
 C                     13.9257  -9.015    -2.1249 
 H                     23.7819  -14.0069  -0.4268 
 H                     22.5807  -11.9574   0.3365 
 H                     21.2837  -10.5854  -1.2678 
 H                     22.4068  -13.2791  -4.4736 
 H                     21.6681  -10.8955  -4.9034 
 H                     20.1614  -11.7709  -4.3797 
 H                     23.0881  -9.6078   -3.3201 
 H                     22.7036  -8.9747   -5.0104 
 H                     25.0985  -4.0998   -1.4743 
 H                     25.5966  -5.3952    0.6118 
 H                     25.0552  -7.7967    0.7902 
 H                     23.9964  -9.0394   -1.1004 
 H                     19.2219  -11.7527  -2.141 
 H                     16.8488  -11.8605  -1.4877 
 H                     16.0988  -8.1069   -3.5027 
 H                     18.4745  -7.9692   -4.1622 
 H                     14.5397  -12.2039  -1.3587 
 H                     14.0664  -7.9865   -2.4572 
 H                     12.1523  -11.2928  -0.9978 
 
 NAtoms=     51 NQM=        0 NQMF=       0 NMMI=     51 NMMIF=      0
                NMic=       0 NMicF=      0.
                    Isotopes and Nuclear Properties:
 (Nuclear quadrupole moments (NQMom) in fm**2, nuclear magnetic moments (NMagM)
  in nuclear magnetons)

  Atom         1           2           3           4           5           6           7           8           9          10
 IAtWgt=          35          12          12          12          12          12          12          12          14          12
 AtmWgt=  34.9688527  12.0000000  12.0000000  12.0000000  12.0000000  12.0000000  12.0000000  12.0000000  14.0030740  12.0000000
 NucSpn=           3           0           0           0           0           0           0           0           2           0
 AtZEff=   0.0000000   0.0000000   0.0000000   0.0000000   0.0000000   0.0000000   0.0000000   0.0000000   0.0000000   0.0000000
 NQMom=   -8.1650000   0.0000000   0.0000000   0.0000000   0.0000000   0.0000000   0.0000000   0.0000000   2.0440000   0.0000000
 NMagM=    0.8218740   0.0000000   0.0000000   0.0000000   0.0000000   0.0000000   0.0000000   0.0000000   0.4037610   0.0000000

  Atom        11          12          13          14          15          16          17          18          19          20
 IAtWgt=          16          12          14          14          14          12          12          12          12          12
 AtmWgt=  15.9949146  12.0000000  14.0030740  14.0030740  14.0030740  12.0000000  12.0000000  12.0000000  12.0000000  12.0000000
 NucSpn=           0           0           2           2           2           0           0           0           0           0
 AtZEff=   0.0000000   0.0000000   0.0000000   0.0000000   0.0000000   0.0000000   0.0000000   0.0000000   0.0000000   0.0000000
 NQMom=    0.0000000   0.0000000   2.0440000   2.0440000   2.0440000   0.0000000   0.0000000   0.0000000   0.0000000   0.0000000
 NMagM=    0.0000000   0.0000000   0.4037610   0.4037610   0.4037610   0.0000000   0.0000000   0.0000000   0.0000000   0.0000000

  Atom        21          22          23          24          25          26          27          28          29          30
 IAtWgt=          12          12          12          12          12          12          12          12          12          14
 AtmWgt=  12.0000000  12.0000000  12.0000000  12.0000000  12.0000000  12.0000000  12.0000000  12.0000000  12.0000000  14.0030740
 NucSpn=           0           0           0           0           0           0           0           0           0           2
 AtZEff=   0.0000000   0.0000000   0.0000000   0.0000000   0.0000000   0.0000000   0.0000000   0.0000000   0.0000000   0.0000000
 NQMom=    0.0000000   0.0000000   0.0000000   0.0000000   0.0000000   0.0000000   0.0000000   0.0000000   0.0000000   2.0440000
 NMagM=    0.0000000   0.0000000   0.0000000   0.0000000   0.0000000   0.0000000   0.0000000   0.0000000   0.0000000   0.4037610

  Atom        31          32          33          34          35          36          37          38          39          40
 IAtWgt=          14          12           1           1           1           1           1           1           1           1
 AtmWgt=  14.0030740  12.0000000   1.0078250   1.0078250   1.0078250   1.0078250   1.0078250   1.0078250   1.0078250   1.0078250
 NucSpn=           2           0           1           1           1           1           1           1           1           1
 AtZEff=   0.0000000   0.0000000   0.0000000   0.0000000   0.0000000   0.0000000   0.0000000   0.0000000   0.0000000   0.0000000
 NQMom=    2.0440000   0.0000000   0.0000000   0.0000000   0.0000000   0.0000000   0.0000000   0.0000000   0.0000000   0.0000000
 NMagM=    0.4037610   0.0000000   2.7928460   2.7928460   2.7928460   2.7928460   2.7928460   2.7928460   2.7928460   2.7928460

  Atom        41          42          43          44          45          46          47          48          49          50
 IAtWgt=           1           1           1           1           1           1           1           1           1           1
 AtmWgt=   1.0078250   1.0078250   1.0078250   1.0078250   1.0078250   1.0078250   1.0078250   1.0078250   1.0078250   1.0078250
 NucSpn=           1           1           1           1           1           1           1           1           1           1
 AtZEff=   0.0000000   0.0000000   0.0000000   0.0000000   0.0000000   0.0000000   0.0000000   0.0000000   0.0000000   0.0000000
 NQMom=    0.0000000   0.0000000   0.0000000   0.0000000   0.0000000   0.0000000   0.0000000   0.0000000   0.0000000   0.0000000
 NMagM=    2.7928460   2.7928460   2.7928460   2.7928460   2.7928460   2.7928460   2.7928460   2.7928460   2.7928460   2.7928460

  Atom        51
 IAtWgt=           1
 AtmWgt=   1.0078250
 NucSpn=           1
 AtZEff=   0.0000000
 NQMom=    0.0000000
 NMagM=    2.7928460
 Leave Link  101 at Sat Aug 27 08:48:36 2022, MaxMem=  209715200 cpu:       0.8
 (Enter /opt/gaussian/l103.exe)

 GradGradGradGradGradGradGradGradGradGradGradGradGradGradGradGradGradGrad
 Berny optimization.
 Initialization pass.
                           ----------------------------
                           !    Initial Parameters    !
                           ! (Angstroms and Degrees)  !
 --------------------------                            --------------------------
 ! Name  Definition              Value          Derivative Info.                !
 --------------------------------------------------------------------------------
 ! R1    R(1,2)                  1.6991         estimate D2E/DX2                !
 ! R2    R(2,3)                  1.3998         estimate D2E/DX2                !
 ! R3    R(2,7)                  1.3956         estimate D2E/DX2                !
 ! R4    R(3,4)                  1.3923         estimate D2E/DX2                !
 ! R5    R(3,33)                 1.1005         estimate D2E/DX2                !
 ! R6    R(4,5)                  1.3959         estimate D2E/DX2                !
 ! R7    R(4,34)                 1.1008         estimate D2E/DX2                !
 ! R8    R(5,6)                  1.3965         estimate D2E/DX2                !
 ! R9    R(5,35)                 1.1015         estimate D2E/DX2                !
 ! R10   R(6,7)                  1.402          estimate D2E/DX2                !
 ! R11   R(6,8)                  1.5058         estimate D2E/DX2                !
 ! R12   R(7,36)                 1.1012         estimate D2E/DX2                !
 ! R13   R(8,9)                  1.4425         estimate D2E/DX2                !
 ! R14   R(8,37)                 1.131          estimate D2E/DX2                !
 ! R15   R(8,38)                 1.1324         estimate D2E/DX2                !
 ! R16   R(9,10)                 1.3989         estimate D2E/DX2                !
 ! R17   R(9,22)                 1.4225         estimate D2E/DX2                !
 ! R18   R(10,11)                1.2408         estimate D2E/DX2                !
 ! R19   R(10,12)                1.5403         estimate D2E/DX2                !
 ! R20   R(12,13)                1.4385         estimate D2E/DX2                !
 ! R21   R(12,39)                1.1291         estimate D2E/DX2                !
 ! R22   R(12,40)                1.1294         estimate D2E/DX2                !
 ! R23   R(13,14)                1.3757         estimate D2E/DX2                !
 ! R24   R(13,21)                1.4188         estimate D2E/DX2                !
 ! R25   R(14,15)                1.2542         estimate D2E/DX2                !
 ! R26   R(15,16)                1.4337         estimate D2E/DX2                !
 ! R27   R(16,17)                1.3942         estimate D2E/DX2                !
 ! R28   R(16,21)                1.4483         estimate D2E/DX2                !
 ! R29   R(17,18)                1.3914         estimate D2E/DX2                !
 ! R30   R(17,41)                1.0994         estimate D2E/DX2                !
 ! R31   R(18,19)                1.4042         estimate D2E/DX2                !
 ! R32   R(18,42)                1.1008         estimate D2E/DX2                !
 ! R33   R(19,20)                1.3916         estimate D2E/DX2                !
 ! R34   R(19,43)                1.1012         estimate D2E/DX2                !
 ! R35   R(20,21)                1.3949         estimate D2E/DX2                !
 ! R36   R(20,44)                1.0977         estimate D2E/DX2                !
 ! R37   R(22,23)                1.4119         estimate D2E/DX2                !
 ! R38   R(22,27)                1.4104         estimate D2E/DX2                !
 ! R39   R(23,24)                1.3883         estimate D2E/DX2                !
 ! R40   R(23,45)                1.1021         estimate D2E/DX2                !
 ! R41   R(24,25)                1.4035         estimate D2E/DX2                !
 ! R42   R(24,46)                1.1005         estimate D2E/DX2                !
 ! R43   R(25,26)                1.4031         estimate D2E/DX2                !
 ! R44   R(25,28)                1.4359         estimate D2E/DX2                !
 ! R45   R(26,27)                1.3901         estimate D2E/DX2                !
 ! R46   R(26,47)                1.1011         estimate D2E/DX2                !
 ! R47   R(27,48)                1.1025         estimate D2E/DX2                !
 ! R48   R(28,29)                1.4104         estimate D2E/DX2                !
 ! R49   R(28,32)                1.4532         estimate D2E/DX2                !
 ! R50   R(29,30)                1.3938         estimate D2E/DX2                !
 ! R51   R(29,49)                1.0886         estimate D2E/DX2                !
 ! R52   R(30,31)                1.3345         estimate D2E/DX2                !
 ! R53   R(30,51)                0.9921         estimate D2E/DX2                !
 ! R54   R(31,32)                1.356          estimate D2E/DX2                !
 ! R55   R(32,50)                1.09           estimate D2E/DX2                !
 ! A1    A(1,2,3)              119.7595         estimate D2E/DX2                !
 ! A2    A(1,2,7)              119.5879         estimate D2E/DX2                !
 ! A3    A(3,2,7)              120.6523         estimate D2E/DX2                !
 ! A4    A(2,3,4)              119.1459         estimate D2E/DX2                !
 ! A5    A(2,3,33)             120.4088         estimate D2E/DX2                !
 ! A6    A(4,3,33)             120.4449         estimate D2E/DX2                !
 ! A7    A(3,4,5)              120.6321         estimate D2E/DX2                !
 ! A8    A(3,4,34)             119.6879         estimate D2E/DX2                !
 ! A9    A(5,4,34)             119.6791         estimate D2E/DX2                !
 ! A10   A(4,5,6)              120.1652         estimate D2E/DX2                !
 ! A11   A(4,5,35)             119.1513         estimate D2E/DX2                !
 ! A12   A(6,5,35)             120.6791         estimate D2E/DX2                !
 ! A13   A(5,6,7)              119.5519         estimate D2E/DX2                !
 ! A14   A(5,6,8)              123.8305         estimate D2E/DX2                !
 ! A15   A(7,6,8)              116.5948         estimate D2E/DX2                !
 ! A16   A(2,7,6)              119.8512         estimate D2E/DX2                !
 ! A17   A(2,7,36)             120.2527         estimate D2E/DX2                !
 ! A18   A(6,7,36)             119.8948         estimate D2E/DX2                !
 ! A19   A(6,8,9)              118.1581         estimate D2E/DX2                !
 ! A20   A(6,8,37)             108.0247         estimate D2E/DX2                !
 ! A21   A(6,8,38)             107.097          estimate D2E/DX2                !
 ! A22   A(9,8,37)             108.2958         estimate D2E/DX2                !
 ! A23   A(9,8,38)             107.7589         estimate D2E/DX2                !
 ! A24   A(37,8,38)            107.0062         estimate D2E/DX2                !
 ! A25   A(8,9,10)             121.4615         estimate D2E/DX2                !
 ! A26   A(8,9,22)             117.1866         estimate D2E/DX2                !
 ! A27   A(10,9,22)            120.9899         estimate D2E/DX2                !
 ! A28   A(9,10,11)            121.4516         estimate D2E/DX2                !
 ! A29   A(9,10,12)            116.7219         estimate D2E/DX2                !
 ! A30   A(11,10,12)           121.8092         estimate D2E/DX2                !
 ! A31   A(10,12,13)           115.0963         estimate D2E/DX2                !
 ! A32   A(10,12,39)           108.9821         estimate D2E/DX2                !
 ! A33   A(10,12,40)           107.8248         estimate D2E/DX2                !
 ! A34   A(13,12,39)           107.1317         estimate D2E/DX2                !
 ! A35   A(13,12,40)           108.1377         estimate D2E/DX2                !
 ! A36   A(39,12,40)           109.5918         estimate D2E/DX2                !
 ! A37   A(12,13,14)           123.6118         estimate D2E/DX2                !
 ! A38   A(12,13,21)           124.453          estimate D2E/DX2                !
 ! A39   A(14,13,21)           108.13           estimate D2E/DX2                !
 ! A40   A(13,14,15)           112.3242         estimate D2E/DX2                !
 ! A41   A(14,15,16)           109.4268         estimate D2E/DX2                !
 ! A42   A(15,16,17)           133.3754         estimate D2E/DX2                !
 ! A43   A(15,16,21)           106.1259         estimate D2E/DX2                !
 ! A44   A(17,16,21)           120.4921         estimate D2E/DX2                !
 ! A45   A(16,17,18)           117.4397         estimate D2E/DX2                !
 ! A46   A(16,17,41)           120.9692         estimate D2E/DX2                !
 ! A47   A(18,17,41)           121.5912         estimate D2E/DX2                !
 ! A48   A(17,18,19)           121.8435         estimate D2E/DX2                !
 ! A49   A(17,18,42)           119.2642         estimate D2E/DX2                !
 ! A50   A(19,18,42)           118.8923         estimate D2E/DX2                !
 ! A51   A(18,19,20)           122.1026         estimate D2E/DX2                !
 ! A52   A(18,19,43)           118.8961         estimate D2E/DX2                !
 ! A53   A(20,19,43)           119.0011         estimate D2E/DX2                !
 ! A54   A(19,20,21)           116.9421         estimate D2E/DX2                !
 ! A55   A(19,20,44)           121.4242         estimate D2E/DX2                !
 ! A56   A(21,20,44)           121.6336         estimate D2E/DX2                !
 ! A57   A(13,21,16)           103.7986         estimate D2E/DX2                !
 ! A58   A(13,21,20)           134.9391         estimate D2E/DX2                !
 ! A59   A(16,21,20)           121.1767         estimate D2E/DX2                !
 ! A60   A(9,22,23)            120.2775         estimate D2E/DX2                !
 ! A61   A(9,22,27)            121.1238         estimate D2E/DX2                !
 ! A62   A(23,22,27)           118.5849         estimate D2E/DX2                !
 ! A63   A(22,23,24)           120.4763         estimate D2E/DX2                !
 ! A64   A(22,23,45)           120.3319         estimate D2E/DX2                !
 ! A65   A(24,23,45)           119.1913         estimate D2E/DX2                !
 ! A66   A(23,24,25)           121.0587         estimate D2E/DX2                !
 ! A67   A(23,24,46)           119.2649         estimate D2E/DX2                !
 ! A68   A(25,24,46)           119.6743         estimate D2E/DX2                !
 ! A69   A(24,25,26)           118.3765         estimate D2E/DX2                !
 ! A70   A(24,25,28)           120.6149         estimate D2E/DX2                !
 ! A71   A(26,25,28)           121.0086         estimate D2E/DX2                !
 ! A72   A(25,26,27)           121.2273         estimate D2E/DX2                !
 ! A73   A(25,26,47)           119.6172         estimate D2E/DX2                !
 ! A74   A(27,26,47)           119.155          estimate D2E/DX2                !
 ! A75   A(22,27,26)           120.2693         estimate D2E/DX2                !
 ! A76   A(22,27,48)           120.2244         estimate D2E/DX2                !
 ! A77   A(26,27,48)           119.4941         estimate D2E/DX2                !
 ! A78   A(25,28,29)           128.1482         estimate D2E/DX2                !
 ! A79   A(25,28,32)           127.6519         estimate D2E/DX2                !
 ! A80   A(29,28,32)           104.1999         estimate D2E/DX2                !
 ! A81   A(28,29,30)           106.3277         estimate D2E/DX2                !
 ! A82   A(28,29,49)           131.1743         estimate D2E/DX2                !
 ! A83   A(30,29,49)           122.4969         estimate D2E/DX2                !
 ! A84   A(29,30,31)           112.5045         estimate D2E/DX2                !
 ! A85   A(29,30,51)           127.1328         estimate D2E/DX2                !
 ! A86   A(31,30,51)           120.3615         estimate D2E/DX2                !
 ! A87   A(30,31,32)           106.7936         estimate D2E/DX2                !
 ! A88   A(28,32,31)           110.1743         estimate D2E/DX2                !
 ! A89   A(28,32,50)           127.5534         estimate D2E/DX2                !
 ! A90   A(31,32,50)           122.2711         estimate D2E/DX2                !
 ! D1    D(1,2,3,4)           -179.6339         estimate D2E/DX2                !
 ! D2    D(1,2,3,33)             0.1332         estimate D2E/DX2                !
 ! D3    D(7,2,3,4)              0.1704         estimate D2E/DX2                !
 ! D4    D(7,2,3,33)           179.9375         estimate D2E/DX2                !
 ! D5    D(1,2,7,6)            179.4581         estimate D2E/DX2                !
 ! D6    D(1,2,7,36)            -0.1354         estimate D2E/DX2                !
 ! D7    D(3,2,7,6)             -0.3465         estimate D2E/DX2                !
 ! D8    D(3,2,7,36)          -179.94           estimate D2E/DX2                !
 ! D9    D(2,3,4,5)              0.1757         estimate D2E/DX2                !
 ! D10   D(2,3,4,34)           179.833          estimate D2E/DX2                !
 ! D11   D(33,3,4,5)          -179.5914         estimate D2E/DX2                !
 ! D12   D(33,3,4,34)            0.066          estimate D2E/DX2                !
 ! D13   D(3,4,5,6)             -0.3448         estimate D2E/DX2                !
 ! D14   D(3,4,5,35)           178.894          estimate D2E/DX2                !
 ! D15   D(34,4,5,6)           179.9978         estimate D2E/DX2                !
 ! D16   D(34,4,5,35)           -0.7634         estimate D2E/DX2                !
 ! D17   D(4,5,6,7)              0.1661         estimate D2E/DX2                !
 ! D18   D(4,5,6,8)            178.3685         estimate D2E/DX2                !
 ! D19   D(35,5,6,7)          -179.0609         estimate D2E/DX2                !
 ! D20   D(35,5,6,8)            -0.8585         estimate D2E/DX2                !
 ! D21   D(5,6,7,2)              0.1762         estimate D2E/DX2                !
 ! D22   D(5,6,7,36)           179.7712         estimate D2E/DX2                !
 ! D23   D(8,6,7,2)           -178.1539         estimate D2E/DX2                !
 ! D24   D(8,6,7,36)             1.4411         estimate D2E/DX2                !
 ! D25   D(5,6,8,9)              7.476          estimate D2E/DX2                !
 ! D26   D(5,6,8,37)           130.7477         estimate D2E/DX2                !
 ! D27   D(5,6,8,38)          -114.2991         estimate D2E/DX2                !
 ! D28   D(7,6,8,9)           -174.2727         estimate D2E/DX2                !
 ! D29   D(7,6,8,37)           -51.0011         estimate D2E/DX2                !
 ! D30   D(7,6,8,38)            63.9521         estimate D2E/DX2                !
 ! D31   D(6,8,9,10)            78.2654         estimate D2E/DX2                !
 ! D32   D(6,8,9,22)           -94.8912         estimate D2E/DX2                !
 ! D33   D(37,8,9,10)          -44.8704         estimate D2E/DX2                !
 ! D34   D(37,8,9,22)          141.973          estimate D2E/DX2                !
 ! D35   D(38,8,9,10)         -160.2971         estimate D2E/DX2                !
 ! D36   D(38,8,9,22)           26.5463         estimate D2E/DX2                !
 ! D37   D(8,9,10,11)         -179.7138         estimate D2E/DX2                !
 ! D38   D(8,9,10,12)            1.7733         estimate D2E/DX2                !
 ! D39   D(22,9,10,11)          -6.8162         estimate D2E/DX2                !
 ! D40   D(22,9,10,12)         174.671          estimate D2E/DX2                !
 ! D41   D(8,9,22,23)           37.3783         estimate D2E/DX2                !
 ! D42   D(8,9,22,27)         -141.2514         estimate D2E/DX2                !
 ! D43   D(10,9,22,23)        -135.8124         estimate D2E/DX2                !
 ! D44   D(10,9,22,27)          45.5578         estimate D2E/DX2                !
 ! D45   D(9,10,12,13)        -172.05           estimate D2E/DX2                !
 ! D46   D(9,10,12,39)         -51.7129         estimate D2E/DX2                !
 ! D47   D(9,10,12,40)          67.1741         estimate D2E/DX2                !
 ! D48   D(11,10,12,13)          9.4429         estimate D2E/DX2                !
 ! D49   D(11,10,12,39)        129.78           estimate D2E/DX2                !
 ! D50   D(11,10,12,40)       -111.333          estimate D2E/DX2                !
 ! D51   D(10,12,13,14)        -73.4255         estimate D2E/DX2                !
 ! D52   D(10,12,13,21)         81.9636         estimate D2E/DX2                !
 ! D53   D(39,12,13,14)        165.2271         estimate D2E/DX2                !
 ! D54   D(39,12,13,21)        -39.3837         estimate D2E/DX2                !
 ! D55   D(40,12,13,14)         47.1793         estimate D2E/DX2                !
 ! D56   D(40,12,13,21)       -157.4315         estimate D2E/DX2                !
 ! D57   D(12,13,14,15)        163.5222         estimate D2E/DX2                !
 ! D58   D(21,13,14,15)          4.7048         estimate D2E/DX2                !
 ! D59   D(12,13,21,16)       -162.5459         estimate D2E/DX2                !
 ! D60   D(12,13,21,20)         20.9481         estimate D2E/DX2                !
 ! D61   D(14,13,21,16)         -3.95           estimate D2E/DX2                !
 ! D62   D(14,13,21,20)        179.544          estimate D2E/DX2                !
 ! D63   D(13,14,15,16)         -3.2549         estimate D2E/DX2                !
 ! D64   D(14,15,16,17)        179.6116         estimate D2E/DX2                !
 ! D65   D(14,15,16,21)          0.5771         estimate D2E/DX2                !
 ! D66   D(15,16,17,18)       -179.4012         estimate D2E/DX2                !
 ! D67   D(15,16,17,41)          0.5922         estimate D2E/DX2                !
 ! D68   D(21,16,17,18)         -0.4776         estimate D2E/DX2                !
 ! D69   D(21,16,17,41)        179.5159         estimate D2E/DX2                !
 ! D70   D(15,16,21,13)          2.1264         estimate D2E/DX2                !
 ! D71   D(15,16,21,20)        179.2361         estimate D2E/DX2                !
 ! D72   D(17,16,21,13)       -177.0592         estimate D2E/DX2                !
 ! D73   D(17,16,21,20)          0.0505         estimate D2E/DX2                !
 ! D74   D(16,17,18,19)          0.4215         estimate D2E/DX2                !
 ! D75   D(16,17,18,42)       -179.5669         estimate D2E/DX2                !
 ! D76   D(41,17,18,19)       -179.5719         estimate D2E/DX2                !
 ! D77   D(41,17,18,42)          0.4397         estimate D2E/DX2                !
 ! D78   D(17,18,19,20)          0.0783         estimate D2E/DX2                !
 ! D79   D(17,18,19,43)       -179.7824         estimate D2E/DX2                !
 ! D80   D(42,18,19,20)       -179.9332         estimate D2E/DX2                !
 ! D81   D(42,18,19,43)          0.206          estimate D2E/DX2                !
 ! D82   D(18,19,20,21)         -0.5057         estimate D2E/DX2                !
 ! D83   D(18,19,20,44)        179.6239         estimate D2E/DX2                !
 ! D84   D(43,19,20,21)        179.3549         estimate D2E/DX2                !
 ! D85   D(43,19,20,44)         -0.5155         estimate D2E/DX2                !
 ! D86   D(19,20,21,13)        176.4713         estimate D2E/DX2                !
 ! D87   D(19,20,21,16)          0.4381         estimate D2E/DX2                !
 ! D88   D(44,20,21,13)         -3.6586         estimate D2E/DX2                !
 ! D89   D(44,20,21,16)       -179.6919         estimate D2E/DX2                !
 ! D90   D(9,22,23,24)        -177.7865         estimate D2E/DX2                !
 ! D91   D(9,22,23,45)           2.4985         estimate D2E/DX2                !
 ! D92   D(27,22,23,24)          0.8777         estimate D2E/DX2                !
 ! D93   D(27,22,23,45)       -178.8373         estimate D2E/DX2                !
 ! D94   D(9,22,27,26)         178.0541         estimate D2E/DX2                !
 ! D95   D(9,22,27,48)          -3.2202         estimate D2E/DX2                !
 ! D96   D(23,22,27,26)         -0.5983         estimate D2E/DX2                !
 ! D97   D(23,22,27,48)        178.1273         estimate D2E/DX2                !
 ! D98   D(22,23,24,25)         -0.3953         estimate D2E/DX2                !
 ! D99   D(22,23,24,46)       -179.8588         estimate D2E/DX2                !
 ! D100  D(45,23,24,25)        179.3229         estimate D2E/DX2                !
 ! D101  D(45,23,24,46)         -0.1406         estimate D2E/DX2                !
 ! D102  D(23,24,25,26)         -0.3726         estimate D2E/DX2                !
 ! D103  D(23,24,25,28)        179.7038         estimate D2E/DX2                !
 ! D104  D(46,24,25,26)        179.0887         estimate D2E/DX2                !
 ! D105  D(46,24,25,28)         -0.8349         estimate D2E/DX2                !
 ! D106  D(24,25,26,27)          0.6554         estimate D2E/DX2                !
 ! D107  D(24,25,26,47)       -179.6128         estimate D2E/DX2                !
 ! D108  D(28,25,26,27)       -179.4213         estimate D2E/DX2                !
 ! D109  D(28,25,26,47)          0.3104         estimate D2E/DX2                !
 ! D110  D(24,25,28,29)        -13.7094         estimate D2E/DX2                !
 ! D111  D(24,25,28,32)        166.1539         estimate D2E/DX2                !
 ! D112  D(26,25,28,29)        166.3691         estimate D2E/DX2                !
 ! D113  D(26,25,28,32)        -13.7677         estimate D2E/DX2                !
 ! D114  D(25,26,27,22)         -0.1681         estimate D2E/DX2                !
 ! D115  D(25,26,27,48)       -178.903          estimate D2E/DX2                !
 ! D116  D(47,26,27,22)       -179.9011         estimate D2E/DX2                !
 ! D117  D(47,26,27,48)          1.364          estimate D2E/DX2                !
 ! D118  D(25,28,29,30)        179.8562         estimate D2E/DX2                !
 ! D119  D(25,28,29,49)         -0.5155         estimate D2E/DX2                !
 ! D120  D(32,28,29,30)         -0.0321         estimate D2E/DX2                !
 ! D121  D(32,28,29,49)        179.5961         estimate D2E/DX2                !
 ! D122  D(25,28,32,31)       -179.827          estimate D2E/DX2                !
 ! D123  D(25,28,32,50)         -0.2377         estimate D2E/DX2                !
 ! D124  D(29,28,32,31)          0.0621         estimate D2E/DX2                !
 ! D125  D(29,28,32,50)        179.6514         estimate D2E/DX2                !
 ! D126  D(28,29,30,31)         -0.0075         estimate D2E/DX2                !
 ! D127  D(28,29,30,51)        179.6149         estimate D2E/DX2                !
 ! D128  D(49,29,30,31)       -179.6758         estimate D2E/DX2                !
 ! D129  D(49,29,30,51)         -0.0533         estimate D2E/DX2                !
 ! D130  D(29,30,31,32)          0.047          estimate D2E/DX2                !
 ! D131  D(51,30,31,32)       -179.6042         estimate D2E/DX2                !
 ! D132  D(30,31,32,28)         -0.0673         estimate D2E/DX2                !
 ! D133  D(30,31,32,50)       -179.6822         estimate D2E/DX2                !
 --------------------------------------------------------------------------------
 Trust Radius=3.00D-01 FncErr=1.00D-07 GrdErr=1.00D-07
 Number of steps in this run=    288 maximum allowed number of steps=    306.
 GradGradGradGradGradGradGradGradGradGradGradGradGradGradGradGradGradGrad

 Leave Link  103 at Sat Aug 27 08:48:36 2022, MaxMem=  209715200 cpu:       0.1
 (Enter /opt/gaussian/l202.exe)
 Stoichiometry    C24H19ClN6O
 Framework group  C1[X(C24H19ClN6O)]
 Deg. of freedom   147
 Full point group                 C1      NOp   1
 Largest Abelian subgroup         C1      NOp   1
 Largest concise Abelian subgroup C1      NOp   1
                         Standard orientation:                         
 ---------------------------------------------------------------------
 Center     Atomic      Atomic             Coordinates (Angstroms)
 Number     Number       Type             X           Y           Z
 ---------------------------------------------------------------------
      1         17           0       -2.317075    5.860083   -0.420483
      2          6           0       -1.761899    4.334592    0.081222
      3          6           0       -1.862769    3.966958    1.428102
      4          6           0       -1.396808    2.716858    1.826541
      5          6           0       -0.832189    1.839518    0.899106
      6          6           0       -0.735322    2.206107   -0.444936
      7          6           0       -1.205564    3.461678   -0.854844
      8          6           0       -0.110542    1.340637   -1.507016
      9          7           0        0.270198   -0.004667   -1.151914
     10          6           0       -0.676152   -1.030526   -1.057800
     11          8           0       -0.349185   -2.186498   -0.747232
     12          6           0       -2.133561   -0.661234   -1.392595
     13          7           0       -3.102401   -1.687483   -1.114158
     14          7           0       -3.245162   -2.826098   -1.873001
     15          7           0       -3.898781   -3.716103   -1.278305
     16          6           0       -4.219691   -3.268019    0.045260
     17          6           0       -4.919873   -3.840275    1.106435
     18          6           0       -5.047152   -3.088430    2.270325
     19          6           0       -4.504050   -1.798327    2.382051
     20          6           0       -3.809312   -1.195432    1.337883
     21          6           0       -3.662672   -1.936511    0.165290
     22          6           0        1.620181   -0.214993   -0.756060
     23          6           0        2.294921    0.755301    0.016453
     24          6           0        3.626261    0.575462    0.366373
     25          6           0        4.330187   -0.572573   -0.029106
     26          6           0        3.653239   -1.543200   -0.782992
     27          6           0        2.322025   -1.374608   -1.145974
     28          6           0        5.708901   -0.745877    0.332788
     29          6           0        6.603052    0.217457    0.844487
     30          7           0        7.817616   -0.438579    1.037283
     31          7           0        7.762959   -1.726515    0.691958
     32          6           0        6.500733   -1.962029    0.256057
     33          1           0       -2.301238    4.658849    2.163035
     34          1           0       -1.469202    2.419675    2.883989
     35          1           0       -0.454711    0.863989    1.244167
     36          1           0       -1.128547    3.758038   -1.912565
     37          1           0       -0.826106    1.288057   -2.381264
     38          1           0        0.817748    1.877750   -1.870641
     39          1           0       -2.429558    0.247553   -0.791388
     40          1           0       -2.184489   -0.419318   -2.494619
     41          1           0       -5.352716   -4.847239    1.021068
     42          1           0       -5.587988   -3.514064    3.129449
     43          1           0       -4.630519   -1.247739    3.327350
     44          1           0       -3.394540   -0.183756    1.435255
     45          1           0        1.768604    1.663237    0.353011
     46          1           0        4.132028    1.343344    0.971008
     47          1           0        4.184000   -2.454817   -1.098656
     48          1           0        1.812679   -2.163812   -1.723159
     49          1           0        6.467021    1.274005    1.068517
     50          1           0        6.177068   -2.945037   -0.085947
     51          1           0        8.661561   -0.047232    1.382135
 ---------------------------------------------------------------------
 Rotational constants (GHZ):      0.1339186      0.0724586      0.0525942
 Leave Link  202 at Sat Aug 27 08:48:36 2022, MaxMem=  209715200 cpu:       0.0
 (Enter /opt/gaussian/l301.exe)
 Standard basis: 6-31G (6D, 7F)
 Ernie: Thresh=  0.10000D-02 Tol=  0.10000D-05 Strict=F.
 There are   330 symmetry adapted basis functions of A   symmetry.
 Integral buffers will be    131072 words long.
 Raffenetti 1 integral format.
 Two-electron integral symmetry is turned on.
   330 basis functions,   804 primitive gaussians,   330 cartesian basis functions
   115 alpha electrons      115 beta electrons
       nuclear repulsion energy      3045.4748691281 Hartrees.
 IExCor=    0 DFT=F Ex=HF Corr=None ExCW=0 ScaHFX=  1.000000
 ScaDFX=  1.000000  1.000000  1.000000  1.000000 ScalE2=  1.000000  1.000000
 IRadAn=      0 IRanWt=     -1 IRanGd=            0 ICorTp=0
 NAtoms=   51 NActive=   51 NUniq=   51 SFac= 1.00D+00 NAtFMM=   60 NAOKFM=F Big=F
 Leave Link  301 at Sat Aug 27 08:48:36 2022, MaxMem=  209715200 cpu:       0.2
 (Enter /opt/gaussian/l302.exe)
 NPDir=0 NMtPBC=     1 NCelOv=     1 NCel=       1 NClECP=     1 NCelD=      1
         NCelK=      1 NCelE2=     1 NClLst=     1 CellRange=     0.0.
 One-electron integrals computed using PRISM.
 NBasis=   330 RedAO= T  NBF=   330
 NBsUse=   330 1.00D-06 NBFU=   330
 Leave Link  302 at Sat Aug 27 08:48:36 2022, MaxMem=  209715200 cpu:       1.9
 (Enter /opt/gaussian/l303.exe)
 DipDrv:  MaxL=1.
 Leave Link  303 at Sat Aug 27 08:48:36 2022, MaxMem=  209715200 cpu:       0.4
 (Enter /opt/gaussian/l401.exe)
 Harris functional with IExCor=  205 diagonalized for initial guess.
 ExpMin= 1.43D-01 ExpMax= 2.52D+04 ExpMxC= 3.78D+03 IAcc=1 IRadAn=         1 AccDes= 0.00D+00
 HarFok:  IExCor=  205 AccDes= 0.00D+00 IRadAn=         1 IDoV= 1
 ScaDFX=  1.000000  1.000000  1.000000  1.000000
 FoFCou: FMM=F IPFlag=           0 FMFlag=      100000 FMFlg1=           0
         NFxFlg=           0 DoJE=T BraDBF=F KetDBF=T FulRan=T
         Omega=  0.000000  0.000000  1.000000  0.000000  0.000000 ICntrl=     500 IOpCl=  0
         NMat0=    1 NMatS0=    1 NMatT0=    0 NMatD0=    1 NMtDS0=    0 NMtDT0=    0
         I1Cent=           4 NGrid=           0.
 Petite list used in FoFCou.
 Harris En= -1781.33367422759    
 Initial guess orbital symmetries:
       Occupied  (A) (A) (A) (A) (A) (A) (A) (A) (A) (A) (A) (A)
                 (A) (A) (A) (A) (A) (A) (A) (A) (A) (A) (A) (A)
                 (A) (A) (A) (A) (A) (A) (A) (A) (A) (A) (A) (A)
                 (A) (A) (A) (A) (A) (A) (A) (A) (A) (A) (A) (A)
                 (A) (A) (A) (A) (A) (A) (A) (A) (A) (A) (A) (A)
                 (A) (A) (A) (A) (A) (A) (A) (A) (A) (A) (A) (A)
                 (A) (A) (A) (A) (A) (A) (A) (A) (A) (A) (A) (A)
                 (A) (A) (A) (A) (A) (A) (A) (A) (A) (A) (A) (A)
                 (A) (A) (A) (A) (A) (A) (A) (A) (A) (A) (A) (A)
                 (A) (A) (A) (A) (A) (A) (A)
       Virtual   (A) (A) (A) (A) (A) (A) (A) (A) (A) (A) (A) (A)
                 (A) (A) (A) (A) (A) (A) (A) (A) (A) (A) (A) (A)
                 (A) (A) (A) (A) (A) (A) (A) (A) (A) (A) (A) (A)
                 (A) (A) (A) (A) (A) (A) (A) (A) (A) (A) (A) (A)
                 (A) (A) (A) (A) (A) (A) (A) (A) (A) (A) (A) (A)
                 (A) (A) (A) (A) (A) (A) (A) (A) (A) (A) (A) (A)
                 (A) (A) (A) (A) (A) (A) (A) (A) (A) (A) (A) (A)
                 (A) (A) (A) (A) (A) (A) (A) (A) (A) (A) (A) (A)
                 (A) (A) (A) (A) (A) (A) (A) (A) (A) (A) (A) (A)
                 (A) (A) (A) (A) (A) (A) (A) (A) (A) (A) (A) (A)
                 (A) (A) (A) (A) (A) (A) (A) (A) (A) (A) (A) (A)
                 (A) (A) (A) (A) (A) (A) (A) (A) (A) (A) (A) (A)
                 (A) (A) (A) (A) (A) (A) (A) (A) (A) (A) (A) (A)
                 (A) (A) (A) (A) (A) (A) (A) (A) (A) (A) (A) (A)
                 (A) (A) (A) (A) (A) (A) (A) (A) (A) (A) (A) (A)
                 (A) (A) (A) (A) (A) (A) (A) (A) (A) (A) (A) (A)
                 (A) (A) (A) (A) (A) (A) (A) (A) (A) (A) (A) (A)
                 (A) (A) (A) (A) (A) (A) (A) (A) (A) (A) (A)
 The electronic state of the initial guess is 1-A.
 Leave Link  401 at Sat Aug 27 08:48:37 2022, MaxMem=  209715200 cpu:       4.7
 (Enter /opt/gaussian/l502.exe)
 Closed shell SCF:
 Requested convergence on RMS density matrix=1.00D-08 within 128 cycles.
 Requested convergence on MAX density matrix=1.00D-06.
 Requested convergence on             energy=1.00D-06.
 No special actions if energy rises.
 Using DIIS extrapolation, IDIIS=  1040.
 Integral symmetry usage will be decided dynamically.
 IEnd=      350033 IEndB=      350033 NGot=   209715200 MDV=   209491038
 LenX=   209491038 LenY=   209381697
 Fock matrices will be formed incrementally for  20 cycles.
 Integral accuracy reduced to 1.0D-05 until final iterations.

 Cycle   1  Pass 0  IDiag  1:
 FoFCou: FMM=F IPFlag=           0 FMFlag=      100000 FMFlg1=           0
         NFxFlg=           0 DoJE=F BraDBF=F KetDBF=F FulRan=T
         Omega=  0.000000  0.000000  1.000000  0.000000  0.000000 ICntrl=       0 IOpCl=  0
         NMat0=    1 NMatS0=    1 NMatT0=    0 NMatD0=    1 NMtDS0=    0 NMtDT0=    0
         I1Cent=           0 NGrid=           0.
 Symmetry not used in FoFCou.
 E= -1779.34665770319    
 DIIS: error= 3.53D-02 at cycle   1 NSaved=   1.
 NSaved= 1 IEnMin= 1 EnMin= -1779.34665770319     IErMin= 1 ErrMin= 3.53D-02
 ErrMax= 3.53D-02 EMaxC= 1.00D-01 BMatC= 1.07D+00 BMatP= 1.07D+00
 IDIUse=3 WtCom= 6.47D-01 WtEn= 3.53D-01
 Coeff-Com:  0.100D+01
 Coeff-En:   0.100D+01
 Coeff:      0.100D+01
 Gap=     0.573 Goal=   None    Shift=    0.000
 GapD=    0.573 DampG=2.000 DampE=0.500 DampFc=1.0000 IDamp=-1.
 RMSDP=5.95D-03 MaxDP=1.69D-01              OVMax= 1.63D-01

 Cycle   2  Pass 0  IDiag  1:
 RMSU=  4.17D-03    CP:  9.70D-01
 E= -1780.06596898480     Delta-E=       -0.719311281619 Rises=F Damp=F
 DIIS: error= 2.29D-02 at cycle   2 NSaved=   2.
 NSaved= 2 IEnMin= 2 EnMin= -1780.06596898480     IErMin= 2 ErrMin= 2.29D-02
 ErrMax= 2.29D-02 EMaxC= 1.00D-01 BMatC= 1.92D-01 BMatP= 1.07D+00
 IDIUse=3 WtCom= 7.71D-01 WtEn= 2.29D-01
 Coeff-Com:  0.244D+00 0.756D+00
 Coeff-En:   0.000D+00 0.100D+01
 Coeff:      0.188D+00 0.812D+00
 Gap=     0.434 Goal=   None    Shift=    0.000
 RMSDP=2.53D-03 MaxDP=8.75D-02 DE=-7.19D-01 OVMax= 1.01D-01

 Cycle   3  Pass 0  IDiag  1:
 RMSU=  1.59D-03    CP:  9.69D-01  8.00D-01
 E= -1780.21929130800     Delta-E=       -0.153322323197 Rises=F Damp=F
 DIIS: error= 1.12D-02 at cycle   3 NSaved=   3.
 NSaved= 3 IEnMin= 3 EnMin= -1780.21929130800     IErMin= 3 ErrMin= 1.12D-02
 ErrMax= 1.12D-02 EMaxC= 1.00D-01 BMatC= 3.50D-02 BMatP= 1.92D-01
 IDIUse=3 WtCom= 8.88D-01 WtEn= 1.12D-01
 Coeff-Com:  0.618D-02 0.286D+00 0.708D+00
 Coeff-En:   0.000D+00 0.000D+00 0.100D+01
 Coeff:      0.549D-02 0.254D+00 0.740D+00
 Gap=     0.387 Goal=   None    Shift=    0.000
 RMSDP=8.61D-04 MaxDP=3.48D-02 DE=-1.53D-01 OVMax= 3.93D-02

 Cycle   4  Pass 0  IDiag  1:
 RMSU=  3.65D-04    CP:  9.69D-01  8.95D-01  8.20D-01
 E= -1780.25084283801     Delta-E=       -0.031551530007 Rises=F Damp=F
 DIIS: error= 2.44D-03 at cycle   4 NSaved=   4.
 NSaved= 4 IEnMin= 4 EnMin= -1780.25084283801     IErMin= 4 ErrMin= 2.44D-03
 ErrMax= 2.44D-03 EMaxC= 1.00D-01 BMatC= 3.10D-03 BMatP= 3.50D-02
 IDIUse=3 WtCom= 9.76D-01 WtEn= 2.44D-02
 Coeff-Com: -0.136D-01 0.261D-01 0.268D+00 0.719D+00
 Coeff-En:   0.000D+00 0.000D+00 0.000D+00 0.100D+01
 Coeff:     -0.132D-01 0.255D-01 0.262D+00 0.726D+00
 Gap=     0.381 Goal=   None    Shift=    0.000
 RMSDP=2.72D-04 MaxDP=9.33D-03 DE=-3.16D-02 OVMax= 8.87D-03

 Cycle   5  Pass 0  IDiag  1:
 RMSU=  1.22D-04    CP:  9.68D-01  8.90D-01  8.96D-01  7.74D-01
 E= -1780.25388098072     Delta-E=       -0.003038142708 Rises=F Damp=F
 DIIS: error= 9.29D-04 at cycle   5 NSaved=   5.
 NSaved= 5 IEnMin= 5 EnMin= -1780.25388098072     IErMin= 5 ErrMin= 9.29D-04
 ErrMax= 9.29D-04 EMaxC= 1.00D-01 BMatC= 1.09D-04 BMatP= 3.10D-03
 IDIUse=3 WtCom= 9.91D-01 WtEn= 9.29D-03
 Coeff-Com: -0.143D-02-0.151D-01-0.118D-01 0.678D-01 0.961D+00
 Coeff-En:   0.000D+00 0.000D+00 0.000D+00 0.000D+00 0.100D+01
 Coeff:     -0.142D-02-0.150D-01-0.117D-01 0.671D-01 0.961D+00
 Gap=     0.380 Goal=   None    Shift=    0.000
 RMSDP=8.11D-05 MaxDP=1.98D-03 DE=-3.04D-03 OVMax= 5.41D-03

 Cycle   6  Pass 0  IDiag  1:
 RMSU=  4.21D-05    CP:  9.68D-01  8.91D-01  9.12D-01  8.35D-01  1.16D+00
 E= -1780.25416726392     Delta-E=       -0.000286283200 Rises=F Damp=F
 DIIS: error= 3.97D-04 at cycle   6 NSaved=   6.
 NSaved= 6 IEnMin= 6 EnMin= -1780.25416726392     IErMin= 6 ErrMin= 3.97D-04
 ErrMax= 3.97D-04 EMaxC= 1.00D-01 BMatC= 3.00D-05 BMatP= 1.09D-04
 IDIUse=3 WtCom= 9.96D-01 WtEn= 3.97D-03
 Coeff-Com:  0.250D-02-0.893D-02-0.535D-01-0.149D+00 0.167D+00 0.104D+01
 Coeff-En:   0.000D+00 0.000D+00 0.000D+00 0.000D+00 0.000D+00 0.100D+01
 Coeff:      0.249D-02-0.889D-02-0.533D-01-0.148D+00 0.166D+00 0.104D+01
 Gap=     0.380 Goal=   None    Shift=    0.000
 RMSDP=5.45D-05 MaxDP=1.86D-03 DE=-2.86D-04 OVMax= 3.01D-03

 Cycle   7  Pass 0  IDiag  1:
 RMSU=  1.77D-05    CP:  9.68D-01  8.90D-01  9.22D-01  8.46D-01  1.40D+00
                    CP:  1.20D+00
 E= -1780.25426306461     Delta-E=       -0.000095800694 Rises=F Damp=F
 DIIS: error= 1.82D-04 at cycle   7 NSaved=   7.
 NSaved= 7 IEnMin= 7 EnMin= -1780.25426306461     IErMin= 7 ErrMin= 1.82D-04
 ErrMax= 1.82D-04 EMaxC= 1.00D-01 BMatC= 3.98D-06 BMatP= 3.00D-05
 IDIUse=3 WtCom= 9.98D-01 WtEn= 1.82D-03
 Coeff-Com:  0.321D-04 0.226D-02 0.694D-02-0.452D-02-0.128D+00-0.698D-01
 Coeff-Com:  0.119D+01
 Coeff-En:   0.000D+00 0.000D+00 0.000D+00 0.000D+00 0.000D+00 0.000D+00
 Coeff-En:   0.100D+01
 Coeff:      0.321D-04 0.226D-02 0.693D-02-0.451D-02-0.128D+00-0.697D-01
 Coeff:      0.119D+01
 Gap=     0.380 Goal=   None    Shift=    0.000
 RMSDP=2.10D-05 MaxDP=6.44D-04 DE=-9.58D-05 OVMax= 1.61D-03

 Cycle   8  Pass 0  IDiag  1:
 RMSU=  7.22D-06    CP:  9.68D-01  8.89D-01  9.23D-01  8.46D-01  1.46D+00
                    CP:  1.38D+00  1.34D+00
 E= -1780.25427859334     Delta-E=       -0.000015528734 Rises=F Damp=F
 DIIS: error= 7.56D-05 at cycle   8 NSaved=   8.
 NSaved= 8 IEnMin= 8 EnMin= -1780.25427859334     IErMin= 8 ErrMin= 7.56D-05
 ErrMax= 7.56D-05 EMaxC= 1.00D-01 BMatC= 7.97D-07 BMatP= 3.98D-06
 IDIUse=1 WtCom= 1.00D+00 WtEn= 0.00D+00
 Coeff-Com: -0.537D-03 0.241D-02 0.141D-01 0.308D-01-0.560D-01-0.251D+00
 Coeff-Com:  0.235D+00 0.102D+01
 Coeff:     -0.537D-03 0.241D-02 0.141D-01 0.308D-01-0.560D-01-0.251D+00
 Coeff:      0.235D+00 0.102D+01
 Gap=     0.380 Goal=   None    Shift=    0.000
 RMSDP=9.28D-06 MaxDP=2.59D-04 DE=-1.55D-05 OVMax= 6.76D-04

 Initial convergence to 1.0D-05 achieved.  Increase integral accuracy.
 Cycle   9  Pass 1  IDiag  1:
 E= -1780.25428823363     Delta-E=       -0.000009640285 Rises=F Damp=F
 DIIS: error= 8.09D-05 at cycle   1 NSaved=   1.
 NSaved= 1 IEnMin= 1 EnMin= -1780.25428823363     IErMin= 1 ErrMin= 8.09D-05
 ErrMax= 8.09D-05 EMaxC= 1.00D-01 BMatC= 1.74D-06 BMatP= 1.74D-06
 IDIUse=1 WtCom= 1.00D+00 WtEn= 0.00D+00
 Coeff-Com:  0.100D+01
 Coeff:      0.100D+01
 Gap=     0.380 Goal=   None    Shift=    0.000
 RMSDP=9.28D-06 MaxDP=2.59D-04 DE=-9.64D-06 OVMax= 1.92D-04

 Cycle  10  Pass 1  IDiag  1:
 RMSU=  3.94D-05    CP:  1.00D+00
 E= -1780.25429009234     Delta-E=       -0.000001858708 Rises=F Damp=F
 DIIS: error= 1.62D-05 at cycle   2 NSaved=   2.
 NSaved= 2 IEnMin= 2 EnMin= -1780.25429009234     IErMin= 2 ErrMin= 1.62D-05
 ErrMax= 1.62D-05 EMaxC= 1.00D-01 BMatC= 4.10D-08 BMatP= 1.74D-06
 IDIUse=1 WtCom= 1.00D+00 WtEn= 0.00D+00
 Coeff-Com: -0.313D-01 0.103D+01
 Coeff:     -0.313D-01 0.103D+01
 Gap=     0.380 Goal=   None    Shift=    0.000
 RMSDP=3.15D-06 MaxDP=5.93D-05 DE=-1.86D-06 OVMax= 1.21D-04

 Cycle  11  Pass 1  IDiag  1:
 RMSU=  1.08D-06    CP:  1.00D+00  1.05D+00
 E= -1780.25429020476     Delta-E=       -0.000000112424 Rises=F Damp=F
 DIIS: error= 9.78D-06 at cycle   3 NSaved=   3.
 NSaved= 3 IEnMin= 3 EnMin= -1780.25429020476     IErMin= 3 ErrMin= 9.78D-06
 ErrMax= 9.78D-06 EMaxC= 1.00D-01 BMatC= 1.90D-08 BMatP= 4.10D-08
 IDIUse=1 WtCom= 1.00D+00 WtEn= 0.00D+00
 Coeff-Com: -0.250D-01 0.325D+00 0.700D+00
 Coeff:     -0.250D-01 0.325D+00 0.700D+00
 Gap=     0.380 Goal=   None    Shift=    0.000
 RMSDP=6.73D-07 MaxDP=1.87D-05 DE=-1.12D-07 OVMax= 5.46D-05

 Cycle  12  Pass 1  IDiag  1:
 RMSU=  4.63D-07    CP:  1.00D+00  1.05D+00  1.02D+00
 E= -1780.25429024499     Delta-E=       -0.000000040230 Rises=F Damp=F
 DIIS: error= 7.87D-06 at cycle   4 NSaved=   4.
 NSaved= 4 IEnMin= 4 EnMin= -1780.25429024499     IErMin= 4 ErrMin= 7.87D-06
 ErrMax= 7.87D-06 EMaxC= 1.00D-01 BMatC= 5.83D-09 BMatP= 1.90D-08
 IDIUse=1 WtCom= 1.00D+00 WtEn= 0.00D+00
 Coeff-Com:  0.252D-01-0.626D+00-0.294D+00 0.190D+01
 Coeff:      0.252D-01-0.626D+00-0.294D+00 0.190D+01
 Gap=     0.380 Goal=   None    Shift=    0.000
 RMSDP=1.11D-06 MaxDP=2.69D-05 DE=-4.02D-08 OVMax= 1.25D-04

 Cycle  13  Pass 1  IDiag  1:
 RMSU=  3.36D-07    CP:  1.00D+00  1.05D+00  1.55D+00  1.90D+00
 E= -1780.25429028274     Delta-E=       -0.000000037746 Rises=F Damp=F
 DIIS: error= 1.78D-06 at cycle   5 NSaved=   5.
 NSaved= 5 IEnMin= 5 EnMin= -1780.25429028274     IErMin= 5 ErrMin= 1.78D-06
 ErrMax= 1.78D-06 EMaxC= 1.00D-01 BMatC= 4.98D-10 BMatP= 5.83D-09
 IDIUse=1 WtCom= 1.00D+00 WtEn= 0.00D+00
 Coeff-Com:  0.967D-02-0.209D+00-0.154D+00 0.542D+00 0.812D+00
 Coeff:      0.967D-02-0.209D+00-0.154D+00 0.542D+00 0.812D+00
 Gap=     0.380 Goal=   None    Shift=    0.000
 RMSDP=1.94D-07 MaxDP=5.91D-06 DE=-3.77D-08 OVMax= 2.28D-05

 Cycle  14  Pass 1  IDiag  1:
 RMSU=  8.00D-08    CP:  1.00D+00  1.05D+00  1.60D+00  2.07D+00  1.15D+00
 E= -1780.25429028433     Delta-E=       -0.000000001598 Rises=F Damp=F
 DIIS: error= 6.93D-07 at cycle   6 NSaved=   6.
 NSaved= 6 IEnMin= 6 EnMin= -1780.25429028433     IErMin= 6 ErrMin= 6.93D-07
 ErrMax= 6.93D-07 EMaxC= 1.00D-01 BMatC= 7.05D-11 BMatP= 4.98D-10
 IDIUse=1 WtCom= 1.00D+00 WtEn= 0.00D+00
 Coeff-Com: -0.385D-02 0.971D-01 0.395D-01-0.298D+00 0.386D-01 0.113D+01
 Coeff:     -0.385D-02 0.971D-01 0.395D-01-0.298D+00 0.386D-01 0.113D+01
 Gap=     0.380 Goal=   None    Shift=    0.000
 RMSDP=9.00D-08 MaxDP=1.86D-06 DE=-1.60D-09 OVMax= 9.68D-06

 Cycle  15  Pass 1  IDiag  1:
 RMSU=  3.58D-08    CP:  1.00D+00  1.05D+00  1.61D+00  2.11D+00  1.28D+00
                    CP:  1.17D+00
 E= -1780.25429028459     Delta-E=       -0.000000000255 Rises=F Damp=F
 DIIS: error= 2.97D-07 at cycle   7 NSaved=   7.
 NSaved= 7 IEnMin= 7 EnMin= -1780.25429028459     IErMin= 7 ErrMin= 2.97D-07
 ErrMax= 2.97D-07 EMaxC= 1.00D-01 BMatC= 9.74D-12 BMatP= 7.05D-11
 IDIUse=1 WtCom= 1.00D+00 WtEn= 0.00D+00
 Coeff-Com: -0.144D-02 0.319D-01 0.199D-01-0.851D-01-0.992D-01 0.794D-01
 Coeff-Com:  0.105D+01
 Coeff:     -0.144D-02 0.319D-01 0.199D-01-0.851D-01-0.992D-01 0.794D-01
 Coeff:      0.105D+01
 Gap=     0.380 Goal=   None    Shift=    0.000
 RMSDP=3.05D-08 MaxDP=9.22D-07 DE=-2.55D-10 OVMax= 3.12D-06

 Cycle  16  Pass 1  IDiag  1:
 RMSU=  1.26D-08    CP:  1.00D+00  1.05D+00  1.61D+00  2.12D+00  1.30D+00
                    CP:  1.30D+00  1.29D+00
 E= -1780.25429028463     Delta-E=       -0.000000000046 Rises=F Damp=F
 DIIS: error= 8.91D-08 at cycle   8 NSaved=   8.
 NSaved= 8 IEnMin= 8 EnMin= -1780.25429028463     IErMin= 8 ErrMin= 8.91D-08
 ErrMax= 8.91D-08 EMaxC= 1.00D-01 BMatC= 2.70D-12 BMatP= 9.74D-12
 IDIUse=1 WtCom= 1.00D+00 WtEn= 0.00D+00
 Coeff-Com:  0.431D-03-0.121D-01-0.278D-02 0.421D-01-0.405D-01-0.236D+00
 Coeff-Com:  0.329D+00 0.919D+00
 Coeff:      0.431D-03-0.121D-01-0.278D-02 0.421D-01-0.405D-01-0.236D+00
 Coeff:      0.329D+00 0.919D+00
 Gap=     0.380 Goal=   None    Shift=    0.000
 RMSDP=1.34D-08 MaxDP=4.15D-07 DE=-4.64D-11 OVMax= 1.27D-06

 Cycle  17  Pass 1  IDiag  1:
 RMSU=  5.59D-09    CP:  1.00D+00  1.05D+00  1.62D+00  2.13D+00  1.30D+00
                    CP:  1.33D+00  1.48D+00  1.01D+00
 E= -1780.25429028466     Delta-E=       -0.000000000026 Rises=F Damp=F
 DIIS: error= 7.27D-08 at cycle   9 NSaved=   9.
 NSaved= 9 IEnMin= 9 EnMin= -1780.25429028466     IErMin= 9 ErrMin= 7.27D-08
 ErrMax= 7.27D-08 EMaxC= 1.00D-01 BMatC= 2.21D-13 BMatP= 2.70D-12
 IDIUse=1 WtCom= 1.00D+00 WtEn= 0.00D+00
 Coeff-Com:  0.155D-03-0.360D-02-0.188D-02 0.102D-01 0.627D-02-0.203D-01
 Coeff-Com: -0.551D-01 0.244D-01 0.104D+01
 Coeff:      0.155D-03-0.360D-02-0.188D-02 0.102D-01 0.627D-02-0.203D-01
 Coeff:     -0.551D-01 0.244D-01 0.104D+01
 Gap=     0.380 Goal=   None    Shift=    0.000
 RMSDP=4.03D-09 MaxDP=1.67D-07 DE=-2.64D-11 OVMax= 4.80D-07

 SCF Done:  E(RHF) =  -1780.25429028     A.U. after   17 cycles
             Convg  =    0.4029D-08             -V/T =  2.0002
 KE= 1.779877806265D+03 PE=-1.026643379185D+04 EE= 3.660826826173D+03
 Leave Link  502 at Sat Aug 27 08:49:58 2022, MaxMem=  209715200 cpu:     646.3
 (Enter /opt/gaussian/l601.exe)
 Copying SCF densities to generalized density rwf, IOpCl= 0 IROHF=0.

 **********************************************************************

            Population analysis using the SCF density.

 **********************************************************************

 Orbital symmetries:
       Occupied  (A) (A) (A) (A) (A) (A) (A) (A) (A) (A) (A) (A)
                 (A) (A) (A) (A) (A) (A) (A) (A) (A) (A) (A) (A)
                 (A) (A) (A) (A) (A) (A) (A) (A) (A) (A) (A) (A)
                 (A) (A) (A) (A) (A) (A) (A) (A) (A) (A) (A) (A)
                 (A) (A) (A) (A) (A) (A) (A) (A) (A) (A) (A) (A)
                 (A) (A) (A) (A) (A) (A) (A) (A) (A) (A) (A) (A)
                 (A) (A) (A) (A) (A) (A) (A) (A) (A) (A) (A) (A)
                 (A) (A) (A) (A) (A) (A) (A) (A) (A) (A) (A) (A)
                 (A) (A) (A) (A) (A) (A) (A) (A) (A) (A) (A) (A)
                 (A) (A) (A) (A) (A) (A) (A)
       Virtual   (A) (A) (A) (A) (A) (A) (A) (A) (A) (A) (A) (A)
                 (A) (A) (A) (A) (A) (A) (A) (A) (A) (A) (A) (A)
                 (A) (A) (A) (A) (A) (A) (A) (A) (A) (A) (A) (A)
                 (A) (A) (A) (A) (A) (A) (A) (A) (A) (A) (A) (A)
                 (A) (A) (A) (A) (A) (A) (A) (A) (A) (A) (A) (A)
                 (A) (A) (A) (A) (A) (A) (A) (A) (A) (A) (A) (A)
                 (A) (A) (A) (A) (A) (A) (A) (A) (A) (A) (A) (A)
                 (A) (A) (A) (A) (A) (A) (A) (A) (A) (A) (A) (A)
                 (A) (A) (A) (A) (A) (A) (A) (A) (A) (A) (A) (A)
                 (A) (A) (A) (A) (A) (A) (A) (A) (A) (A) (A) (A)
                 (A) (A) (A) (A) (A) (A) (A) (A) (A) (A) (A) (A)
                 (A) (A) (A) (A) (A) (A) (A) (A) (A) (A) (A) (A)
                 (A) (A) (A) (A) (A) (A) (A) (A) (A) (A) (A) (A)
                 (A) (A) (A) (A) (A) (A) (A) (A) (A) (A) (A) (A)
                 (A) (A) (A) (A) (A) (A) (A) (A) (A) (A) (A) (A)
                 (A) (A) (A) (A) (A) (A) (A) (A) (A) (A) (A) (A)
                 (A) (A) (A) (A) (A) (A) (A) (A) (A) (A) (A) (A)
                 (A) (A) (A) (A) (A) (A) (A) (A) (A) (A) (A)
 The electronic state is 1-A.
 Alpha  occ. eigenvalues -- -104.83971 -20.55753 -15.67363 -15.65920 -15.65281
 Alpha  occ. eigenvalues --  -15.62912 -15.62488 -15.61262 -11.39919 -11.33603
 Alpha  occ. eigenvalues --  -11.33110 -11.31923 -11.30971 -11.30072 -11.29798
 Alpha  occ. eigenvalues --  -11.29062 -11.28485 -11.28205 -11.28137 -11.27947
 Alpha  occ. eigenvalues --  -11.27550 -11.27255 -11.26748 -11.26725 -11.26567
 Alpha  occ. eigenvalues --  -11.26189 -11.25785 -11.25473 -11.25430 -11.25333
 Alpha  occ. eigenvalues --  -11.25008 -11.24858 -10.58201  -8.05076  -8.04623
 Alpha  occ. eigenvalues --   -8.04611  -1.46588  -1.41379  -1.39161  -1.29209
 Alpha  occ. eigenvalues --   -1.24732  -1.22668  -1.17361  -1.17102  -1.15620
 Alpha  occ. eigenvalues --   -1.10326  -1.09096  -1.07687  -1.05298  -1.04954
 Alpha  occ. eigenvalues --   -1.03084  -1.02749  -1.02196  -1.00159  -0.96827
 Alpha  occ. eigenvalues --   -0.89324  -0.88465  -0.86269  -0.85408  -0.84914
 Alpha  occ. eigenvalues --   -0.84183  -0.81713  -0.81657  -0.78841  -0.76640
 Alpha  occ. eigenvalues --   -0.74659  -0.73349  -0.72240  -0.72088  -0.71410
 Alpha  occ. eigenvalues --   -0.70601  -0.67848  -0.66724  -0.65802  -0.65613
 Alpha  occ. eigenvalues --   -0.65053  -0.64465  -0.63524  -0.63083  -0.62219
 Alpha  occ. eigenvalues --   -0.62061  -0.61162  -0.61067  -0.60993  -0.60500
 Alpha  occ. eigenvalues --   -0.59639  -0.59152  -0.57792  -0.56952  -0.56185
 Alpha  occ. eigenvalues --   -0.55528  -0.53956  -0.53774  -0.53496  -0.52903
 Alpha  occ. eigenvalues --   -0.52471  -0.51647  -0.51051  -0.50096  -0.49853
 Alpha  occ. eigenvalues --   -0.48369  -0.47283  -0.45776  -0.44867  -0.43313
 Alpha  occ. eigenvalues --   -0.42628  -0.41589  -0.38438  -0.36821  -0.35720
 Alpha  occ. eigenvalues --   -0.35571  -0.34714  -0.34045  -0.32923  -0.28880
 Alpha virt. eigenvalues --    0.09162   0.09588   0.10079   0.10404   0.12835
 Alpha virt. eigenvalues --    0.14095   0.15369   0.16601   0.18700   0.19508
 Alpha virt. eigenvalues --    0.20324   0.21932   0.22310   0.22822   0.23567
 Alpha virt. eigenvalues --    0.24347   0.24768   0.25419   0.25523   0.26967
 Alpha virt. eigenvalues --    0.27487   0.28003   0.28701   0.30086   0.30535
 Alpha virt. eigenvalues --    0.31326   0.31976   0.32627   0.33201   0.33460
 Alpha virt. eigenvalues --    0.34350   0.35112   0.36249   0.37430   0.37731
 Alpha virt. eigenvalues --    0.38250   0.39075   0.39524   0.40152   0.40540
 Alpha virt. eigenvalues --    0.41593   0.41952   0.42672   0.43142   0.44959
 Alpha virt. eigenvalues --    0.45540   0.46744   0.46824   0.48454   0.48557
 Alpha virt. eigenvalues --    0.50515   0.51314   0.51712   0.53190   0.55312
 Alpha virt. eigenvalues --    0.55793   0.56337   0.56838   0.58936   0.59727
 Alpha virt. eigenvalues --    0.60108   0.61972   0.62163   0.62590   0.62910
 Alpha virt. eigenvalues --    0.65947   0.70726   0.71280   0.71973   0.72503
 Alpha virt. eigenvalues --    0.72838   0.73251   0.73742   0.74733   0.75299
 Alpha virt. eigenvalues --    0.75593   0.76296   0.76330   0.77028   0.77405
 Alpha virt. eigenvalues --    0.78688   0.79248   0.79385   0.79689   0.80200
 Alpha virt. eigenvalues --    0.80949   0.81377   0.82092   0.82675   0.82887
 Alpha virt. eigenvalues --    0.83499   0.84244   0.84683   0.85080   0.85508
 Alpha virt. eigenvalues --    0.85760   0.85834   0.86214   0.86499   0.86777
 Alpha virt. eigenvalues --    0.87420   0.87984   0.88496   0.88866   0.89143
 Alpha virt. eigenvalues --    0.89851   0.90251   0.90438   0.91273   0.91863
 Alpha virt. eigenvalues --    0.92257   0.92470   0.93509   0.94174   0.94738
 Alpha virt. eigenvalues --    0.95807   0.96385   0.97166   0.98252   0.98862
 Alpha virt. eigenvalues --    0.99163   1.00491   1.01280   1.02309   1.02877
 Alpha virt. eigenvalues --    1.03176   1.03691   1.05054   1.06583   1.07289
 Alpha virt. eigenvalues --    1.08383   1.08916   1.08953   1.09725   1.09967
 Alpha virt. eigenvalues --    1.10252   1.11123   1.11688   1.11976   1.12546
 Alpha virt. eigenvalues --    1.12674   1.13402   1.13984   1.14966   1.15250
 Alpha virt. eigenvalues --    1.16295   1.16589   1.17095   1.17996   1.18633
 Alpha virt. eigenvalues --    1.19205   1.20207   1.20562   1.21200   1.21926
 Alpha virt. eigenvalues --    1.22456   1.23495   1.25058   1.25378   1.25845
 Alpha virt. eigenvalues --    1.26723   1.27222   1.28699   1.29277   1.29746
 Alpha virt. eigenvalues --    1.30394   1.31269   1.33014   1.33771   1.35574
 Alpha virt. eigenvalues --    1.37606   1.38029   1.38380   1.39750   1.40525
 Alpha virt. eigenvalues --    1.41381   1.42250   1.42687   1.43496   1.44108
 Alpha virt. eigenvalues --    1.45293   1.45639   1.48682   1.50233   1.50707
 Alpha virt. eigenvalues --    1.51516   1.52176   1.54653   1.56146   1.58080
 Alpha virt. eigenvalues --    1.59612   1.61653   1.63879   1.66035   1.67618
 Alpha virt. eigenvalues --    1.68643   1.69236   1.70711   1.71472   1.72133
 Alpha virt. eigenvalues --    1.74547   1.76153   1.78917   1.83682   1.86861
 Alpha virt. eigenvalues --    1.88467   1.93761   2.00672   2.00717   2.03522
 Alpha virt. eigenvalues --    2.11710   2.16267   2.22358   2.26206   2.32272
          Condensed to atoms (all electrons):
 Mulliken atomic charges:
              1
     1  Cl   0.166815
     2  C   -0.374707
     3  C   -0.145897
     4  C   -0.198012
     5  C   -0.218889
     6  C   -0.023362
     7  C   -0.152746
     8  C   -0.115762
     9  N   -0.984579
    10  C    0.789860
    11  O   -0.577343
    12  C   -0.147124
    13  N   -0.790356
    14  N    0.120481
    15  N   -0.313024
    16  C    0.033584
    17  C   -0.104144
    18  C   -0.233486
    19  C   -0.201287
    20  C   -0.123167
    21  C    0.384014
    22  C    0.324597
    23  C   -0.224215
    24  C   -0.202475
    25  C    0.041714
    26  C   -0.213134
    27  C   -0.150861
    28  C   -0.295951
    29  C    0.192243
    30  N   -0.661807
    31  N   -0.252241
    32  C    0.072247
    33  H    0.241597
    34  H    0.224989
    35  H    0.247788
    36  H    0.242424
    37  H    0.195979
    38  H    0.231060
    39  H    0.233973
    40  H    0.247446
    41  H    0.247573
    42  H    0.209903
    43  H    0.210104
    44  H    0.227917
    45  H    0.229760
    46  H    0.207906
    47  H    0.221469
    48  H    0.261970
    49  H    0.251580
    50  H    0.236026
    51  H    0.409551
 Sum of Mulliken atomic charges =   0.00000
 Mulliken charges with hydrogens summed into heavy atoms:
              1
     1  Cl   0.166815
     2  C   -0.374707
     3  C    0.095699
     4  C    0.026976
     5  C    0.028899
     6  C   -0.023362
     7  C    0.089678
     8  C    0.311277
     9  N   -0.984579
    10  C    0.789860
    11  O   -0.577343
    12  C    0.334295
    13  N   -0.790356
    14  N    0.120481
    15  N   -0.313024
    16  C    0.033584
    17  C    0.143429
    18  C   -0.023582
    19  C    0.008817
    20  C    0.104749
    21  C    0.384014
    22  C    0.324597
    23  C    0.005546
    24  C    0.005432
    25  C    0.041714
    26  C    0.008335
    27  C    0.111109
    28  C   -0.295951
    29  C    0.443822
    30  N   -0.252256
    31  N   -0.252241
    32  C    0.308273
 Sum of Mulliken charges with hydrogens summed into heavy atoms =   0.00000
 Electronic spatial extent (au):  <R**2>=          19414.6764
 Charge=              0.0000 electrons
 Dipole moment (field-independent basis, Debye):
    X=              0.5333    Y=              7.3873    Z=              3.4351  Tot=              8.1643
 Quadrupole moment (field-independent basis, Debye-Ang):
   XX=           -196.0018   YY=           -219.1990   ZZ=           -185.6483
   XY=             15.8139   XZ=            -11.3863   YZ=             -5.4769
 Traceless Quadrupole moment (field-independent basis, Debye-Ang):
   XX=              4.2812   YY=            -18.9160   ZZ=             14.6348
   XY=             15.8139   XZ=            -11.3863   YZ=             -5.4769
 Octapole moment (field-independent basis, Debye-Ang**2):
  XXX=             32.9298  YYY=            -11.4309  ZZZ=             21.1962  XYY=             35.2053
  XXY=            167.2331  XXZ=            136.3085  XZZ=            -21.1561  YZZ=             46.3977
  YYZ=             58.1968  XYZ=             85.7337
 Hexadecapole moment (field-independent basis, Debye-Ang**3):
 XXXX=         -16866.2366 YYYY=          -8808.0683 ZZZZ=          -1667.6644 XXXY=           1630.9466
 XXXZ=            288.4477 YYYX=             62.7788 YYYZ=           -117.6048 ZZZX=           -101.5183
 ZZZY=            -43.7314 XXYY=          -4381.7312 XXZZ=          -3008.8164 YYZZ=          -1646.6877
 XXYZ=             15.7176 YYXZ=           -343.4646 ZZXY=            -51.3431
 N-N= 3.045474869128D+03 E-N=-1.026643379105D+04  KE= 1.779877806265D+03
 No NMR shielding tensors so no spin-rotation constants.
 Leave Link  601 at Sat Aug 27 08:49:58 2022, MaxMem=  209715200 cpu:       1.4
 (Enter /opt/gaussian/l701.exe)
 Compute integral first derivatives.
 ... and contract with generalized density number  0.
 Leave Link  701 at Sat Aug 27 08:49:58 2022, MaxMem=  209715200 cpu:       1.3
 (Enter /opt/gaussian/l702.exe)
 L702 exits ... SP integral derivatives will be done elsewhere.
 Leave Link  702 at Sat Aug 27 08:49:58 2022, MaxMem=  209715200 cpu:       0.2
 (Enter /opt/gaussian/l703.exe)
 Compute integral first derivatives, UseDBF=F ICtDFT=           0.
 Integral derivatives from FoFDir, PRISM(SPDF).
 Calling FoFJK, ICntrl=      2127 FMM=F ISym2X=0 I1Cent= 0 IOpClX= 0 NMat=1 NMatS=1 NMatT=0.
 FoFCou: FMM=F IPFlag=           0 FMFlag=      100000 FMFlg1=         800
         NFxFlg=           0 DoJE=F BraDBF=F KetDBF=F FulRan=T
         Omega=  0.000000  0.000000  1.000000  0.000000  0.000000 ICntrl=    2127 IOpCl=  0
         NMat0=    1 NMatS0=    1 NMatT0=    0 NMatD0=    1 NMtDS0=    0 NMtDT0=    0
         I1Cent=           0 NGrid=           0.
 Symmetry not used in FoFCou.
 Leave Link  703 at Sat Aug 27 08:50:29 2022, MaxMem=  209715200 cpu:     240.0
 (Enter /opt/gaussian/l716.exe)
 Dipole        = 2.09811737D-01 2.90638817D+00 1.35147146D+00
 ***** Axes restored to original set *****
 -------------------------------------------------------------------
 Center     Atomic                   Forces (Hartrees/Bohr)
 Number     Number              X              Y              Z
 -------------------------------------------------------------------
      1       17           0.027615432   -0.047314421   -0.017760414
      2        6          -0.032064122    0.054581513    0.019308102
      3        6           0.004062914   -0.004954930    0.003625874
      4        6           0.001729819    0.001275582    0.010681008
      5        6          -0.004265294    0.009472266    0.004069112
      6        6           0.007148238   -0.008371296    0.009400620
      7        6           0.002732915   -0.003193279    0.001488599
      8        6          -0.000525991   -0.017692258   -0.042875879
      9        7           0.015901392    0.017580999    0.012039894
     10        6          -0.021787063    0.017837853    0.004764904
     11        8           0.022711359   -0.028633237   -0.006865338
     12        6           0.008605379   -0.022085113   -0.018782298
     13        7          -0.000502622    0.016227575    0.051139303
     14        7          -0.003073639   -0.012151859   -0.012203474
     15        7           0.008453441   -0.005271125    0.029642349
     16        6          -0.013813024   -0.045305752   -0.012240642
     17        6           0.000210675    0.010766379   -0.005557217
     18        6           0.006280122    0.010309316    0.009644872
     19        6           0.000696225   -0.008624536    0.009149513
     20        6          -0.004725713   -0.010568936   -0.002978475
     21        6           0.007777250    0.038933195   -0.024426321
     22        6          -0.026073734    0.005276878    0.005860162
     23        6           0.012263776   -0.001668870   -0.003583854
     24        6          -0.003273768   -0.004445464    0.002599213
     25        6           0.024577788   -0.000705788   -0.005379550
     26        6          -0.003956469    0.004915354   -0.000964378
     27        6           0.009041973    0.005608268   -0.006262230
     28        6          -0.059071162   -0.011487566    0.018951223
     29        6          -0.010989739    0.026907553   -0.004896803
     30        7           0.041654686   -0.015915428   -0.006341976
     31        7           0.034245574    0.025535977   -0.016631673
     32        6          -0.018506549   -0.027867481    0.012770963
     33        1          -0.010260823    0.010827288   -0.014804502
     34        1          -0.000663138   -0.005708521   -0.019134404
     35        1           0.009607300   -0.016246829   -0.008149346
     36        1           0.001806665    0.003999757    0.019503677
     37        1          -0.020358612   -0.009083175    0.020471457
     38        1           0.022939818    0.022416501    0.005645331
     39        1          -0.010946932    0.023319846   -0.021563209
     40        1           0.000482435    0.004039432    0.029889855
     41        1          -0.004742175   -0.019409468    0.001123483
     42        1          -0.008553840   -0.009197849   -0.015855494
     43        1          -0.004049206    0.009609543   -0.017215516
     44        1           0.004516921    0.017877206   -0.000145989
     45        1          -0.014664549    0.016282369   -0.006395612
     46        1           0.007940266    0.015613022   -0.010345811
     47        1           0.014190146   -0.015414049    0.004215684
     48        1          -0.007183924   -0.020590732    0.012567572
     49        1          -0.007351309    0.016224558   -0.003382254
     50        1          -0.007375985   -0.017503093    0.007628681
     51        1           0.001586876    0.003972827   -0.001438790
 -------------------------------------------------------------------
 Cartesian Forces:  Max     0.059071162 RMS     0.017277247
 Leave Link  716 at Sat Aug 27 08:50:29 2022, MaxMem=  209715200 cpu:       0.2
 (Enter /opt/gaussian/l103.exe)

 GradGradGradGradGradGradGradGradGradGradGradGradGradGradGradGradGradGrad
 Berny optimization.
 Internal  Forces:  Max     0.057589681 RMS     0.010620150
 Search for a local minimum.
 Step number   1 out of a maximum of  288
 All quantities printed in internal units (Hartrees-Bohrs-Radians)
 RMS Force = .10620D-01 SwitMx=.10000D-02 MixMth= 1
 Mixed Optimization -- RFO/linear search
 Second derivative matrix not updated -- first step.
 ITU=  0
     Eigenvalues ---    0.00233   0.00689   0.00821   0.01129   0.01182
     Eigenvalues ---    0.01395   0.01402   0.01536   0.01581   0.01586
     Eigenvalues ---    0.01614   0.01659   0.01694   0.01707   0.01729
     Eigenvalues ---    0.01737   0.01768   0.01780   0.01857   0.01909
     Eigenvalues ---    0.01919   0.01979   0.02047   0.02056   0.02060
     Eigenvalues ---    0.02069   0.02090   0.02092   0.02106   0.02108
     Eigenvalues ---    0.02119   0.02121   0.02127   0.02127   0.02129
     Eigenvalues ---    0.02139   0.02142   0.02151   0.02158   0.02162
     Eigenvalues ---    0.02169   0.02179   0.02182   0.02185   0.04524
     Eigenvalues ---    0.04802   0.06488   0.06506   0.10304   0.10894
     Eigenvalues ---    0.13464   0.13803   0.15996   0.15999   0.15999
     Eigenvalues ---    0.15999   0.16000   0.16000   0.16000   0.16000
     Eigenvalues ---    0.16000   0.16000   0.16000   0.16000   0.16000
     Eigenvalues ---    0.16000   0.16000   0.22000   0.22000   0.22000
     Eigenvalues ---    0.22108   0.22152   0.22580   0.22663   0.22956
     Eigenvalues ---    0.23056   0.23426   0.23475   0.23493   0.23999
     Eigenvalues ---    0.24438   0.24607   0.24845   0.24892   0.24964
     Eigenvalues ---    0.24988   0.24993   0.24993   0.25000   0.25000
     Eigenvalues ---    0.25000   0.25000   0.28493   0.30334   0.30476
     Eigenvalues ---    0.30628   0.30655   0.31777   0.33411   0.33451
     Eigenvalues ---    0.33521   0.33545   0.33555   0.33562   0.33594
     Eigenvalues ---    0.33594   0.33627   0.33631   0.33752   0.33935
     Eigenvalues ---    0.34816   0.34978   0.35021   0.35838   0.35995
     Eigenvalues ---    0.38204   0.39240   0.39788   0.40151   0.40833
     Eigenvalues ---    0.41532   0.41666   0.41718   0.41917   0.42053
     Eigenvalues ---    0.42092   0.42766   0.43162   0.44422   0.44482
     Eigenvalues ---    0.44546   0.45645   0.45809   0.45980   0.46003
     Eigenvalues ---    0.46038   0.46328   0.46633   0.46813   0.46863
     Eigenvalues ---    0.47476   0.47985   0.49099   0.51841   0.56005
     Eigenvalues ---    0.77329   0.86724
 RFO step:  Lambda=-7.16005001D-02 EMin= 2.32937454D-03
 Linear search not attempted -- first point.
 Maximum step size (   0.300) exceeded in Quadratic search.
    -- Step size scaled by   0.738
 Iteration  1 RMS(Cart)=  0.07315799 RMS(Int)=  0.00091995
 Iteration  2 RMS(Cart)=  0.00293123 RMS(Int)=  0.00007794
 Iteration  3 RMS(Cart)=  0.00000319 RMS(Int)=  0.00007793
 Iteration  4 RMS(Cart)=  0.00000000 RMS(Int)=  0.00007793
 Variable       Old X    -DE/DX   Delta X   Delta X   Delta X     New X
                                 (Linear)    (Quad)   (Total)
    R1        3.21090   0.05759   0.00000   0.09851   0.09851   3.30941
    R2        2.64522  -0.01455   0.00000  -0.02067  -0.02067   2.62456
    R3        2.63731  -0.01428   0.00000  -0.02008  -0.02007   2.61724
    R4        2.63115  -0.00991   0.00000  -0.01348  -0.01348   2.61767
    R5        2.07964  -0.02096   0.00000  -0.03794  -0.03794   2.04170
    R6        2.63795  -0.00731   0.00000  -0.00973  -0.00973   2.62822
    R7        2.08021  -0.01997   0.00000  -0.03618  -0.03618   2.04402
    R8        2.63901  -0.00972   0.00000  -0.01311  -0.01311   2.62590
    R9        2.08146  -0.02051   0.00000  -0.03721  -0.03721   2.04425
   R10        2.64940  -0.00798   0.00000  -0.01128  -0.01127   2.63813
   R11        2.84553   0.01239   0.00000   0.02349   0.02349   2.86902
   R12        2.08087  -0.01992   0.00000  -0.03611  -0.03611   2.04476
   R13        2.72599   0.01491   0.00000   0.02372   0.02372   2.74972
   R14        2.13723  -0.02976   0.00000  -0.05836  -0.05836   2.07887
   R15        2.14002  -0.03211   0.00000  -0.06323  -0.06323   2.07679
   R16        2.64347  -0.01723   0.00000  -0.02402  -0.02402   2.61946
   R17        2.68806   0.01196   0.00000   0.01792   0.01792   2.70598
   R18        2.34481  -0.03620   0.00000  -0.02846  -0.02846   2.31634
   R19        2.91073  -0.01279   0.00000  -0.02649  -0.02649   2.88424
   R20        2.71843  -0.00984   0.00000  -0.01547  -0.01547   2.70295
   R21        2.13377  -0.03317   0.00000  -0.06475  -0.06475   2.06902
   R22        2.13428  -0.03001   0.00000  -0.05862  -0.05862   2.07566
   R23        2.59978  -0.01056   0.00000  -0.01255  -0.01259   2.58719
   R24        2.68108  -0.03305   0.00000  -0.05034  -0.05035   2.63073
   R25        2.37007  -0.00328   0.00000  -0.00155  -0.00158   2.36849
   R26        2.70936  -0.02617   0.00000  -0.04027  -0.04025   2.66911
   R27        2.63468  -0.01192   0.00000  -0.01716  -0.01714   2.61754
   R28        2.73690  -0.04585   0.00000  -0.07804  -0.07797   2.65893
   R29        2.62944  -0.01117   0.00000  -0.01450  -0.01451   2.61494
   R30        2.07751  -0.02001   0.00000  -0.03610  -0.03610   2.04141
   R31        2.65357  -0.00749   0.00000  -0.00912  -0.00915   2.64443
   R32        2.08021  -0.02023   0.00000  -0.03664  -0.03664   2.04357
   R33        2.62966  -0.00992   0.00000  -0.01270  -0.01272   2.61695
   R34        2.08104  -0.02013   0.00000  -0.03650  -0.03650   2.04455
   R35        2.63593  -0.00941   0.00000  -0.01365  -0.01364   2.62229
   R36        2.07440  -0.01838   0.00000  -0.03301  -0.03301   2.04139
   R37        2.66815  -0.01928   0.00000  -0.02838  -0.02838   2.63976
   R38        2.66533  -0.01902   0.00000  -0.02794  -0.02795   2.63739
   R39        2.62342  -0.00601   0.00000  -0.00804  -0.00804   2.61538
   R40        2.08267  -0.02282   0.00000  -0.04148  -0.04148   2.04119
   R41        2.65229  -0.00978   0.00000  -0.01338  -0.01337   2.63892
   R42        2.07958  -0.02028   0.00000  -0.03670  -0.03670   2.04288
   R43        2.65150  -0.00914   0.00000  -0.01252  -0.01252   2.63898
   R44        2.71349   0.02662   0.00000   0.04153   0.04153   2.75502
   R45        2.62686  -0.00798   0.00000  -0.01088  -0.01087   2.61599
   R46        2.08076  -0.02130   0.00000  -0.03861  -0.03861   2.04215
   R47        2.08335  -0.02514   0.00000  -0.04574  -0.04574   2.03760
   R48        2.66535  -0.03851   0.00000  -0.05566  -0.05565   2.60971
   R49        2.74623  -0.02332   0.00000  -0.03911  -0.03901   2.70722
[...]
 ! D121  D(32,28,29,49)        178.5708         -DE/DX =    0.0                 !
 ! D122  D(25,28,32,31)       -179.9073         -DE/DX =    0.0                 !
 ! D123  D(25,28,32,50)         -1.1786         -DE/DX =    0.0                 !
 ! D124  D(29,28,32,31)          0.1304         -DE/DX =    0.0                 !
 ! D125  D(29,28,32,50)        178.8591         -DE/DX =    0.0                 !
 ! D126  D(28,29,30,31)         -0.0467         -DE/DX =    0.0                 !
 ! D127  D(28,29,30,51)        179.524          -DE/DX =    0.0                 !
 ! D128  D(49,29,30,31)       -178.8104         -DE/DX =    0.0                 !
 ! D129  D(49,29,30,51)          0.7603         -DE/DX =    0.0                 !
 ! D130  D(29,30,31,32)          0.127          -DE/DX =    0.0                 !
 ! D131  D(51,30,31,32)       -179.4877         -DE/DX =    0.0                 !
 ! D132  D(30,31,32,28)         -0.1566         -DE/DX =    0.0                 !
 ! D133  D(30,31,32,50)       -178.9969         -DE/DX =    0.0                 !
 --------------------------------------------------------------------------------
 GradGradGradGradGradGradGradGradGradGradGradGradGradGradGradGradGradGrad

 Largest change from initial coordinates is atom   43       0.825 Angstoms.
 Leave Link  103 at Sat Aug 27 09:21:08 2022, MaxMem=  209715200 cpu:       0.7
 (Enter /opt/gaussian/l202.exe)
 Stoichiometry    C24H19ClN6O
 Framework group  C1[X(C24H19ClN6O)]
 Deg. of freedom   147
 Full point group                 C1      NOp   1
 RotChk:  IX=0 Diff= 2.28D-15
 Largest Abelian subgroup         C1      NOp   1
 Largest concise Abelian subgroup C1      NOp   1
                         Standard orientation:                         
 ---------------------------------------------------------------------
 Center     Atomic      Atomic             Coordinates (Angstroms)
 Number     Number       Type             X           Y           Z
 ---------------------------------------------------------------------
      1         17           0       -2.780086    5.933013   -0.477835
      2          6           0       -2.007262    4.424683    0.151758
      3          6           0       -2.049591    4.163920    1.507260
      4          6           0       -1.454976    3.002110    1.971693
      5          6           0       -0.830819    2.125645    1.092534
      6          6           0       -0.794376    2.401255   -0.268980
      7          6           0       -1.397368    3.567324   -0.737280
      8          6           0       -0.104682    1.494530   -1.279117
      9          7           0        0.267311    0.167209   -0.786443
     10          6           0       -0.656896   -0.832366   -0.608645
     11          8           0       -0.378019   -1.907395   -0.101552
     12          6           0       -2.079970   -0.548593   -1.075501
     13          7           0       -2.926197   -1.695082   -0.954171
     14          7           0       -3.212134   -2.437455   -2.062112
     15          7           0       -3.942949   -3.420327   -1.735813
     16          6           0       -4.169850   -3.376799   -0.369385
     17          6           0       -4.908365   -4.224313    0.455513
     18          6           0       -4.954436   -3.916878    1.793014
     19          6           0       -4.274534   -2.788734    2.304444
     20          6           0       -3.542268   -1.950268    1.498599
     21          6           0       -3.505262   -2.267685    0.138433
     22          6           0        1.656611   -0.080249   -0.510796
     23          6           0        2.398683    0.836857    0.220335
     24          6           0        3.750453    0.627826    0.445200
     25          6           0        4.397266   -0.499536   -0.052764
     26          6           0        3.637837   -1.414169   -0.783821
     27          6           0        2.289932   -1.210792   -1.013920
     28          6           0        5.830294   -0.725223    0.179612
     29          6           0        6.833547    0.206056    0.266538
     30          7           0        7.981990   -0.470430    0.487442
     31          7           0        7.781433   -1.803615    0.551010
     32          6           0        6.493412   -1.970919    0.365587
     33          1           0       -2.532915    4.845382    2.176252
     34          1           0       -1.475939    2.779549    3.020533
     35          1           0       -0.372056    1.233589    1.470652
     36          1           0       -1.391143    3.803497   -1.783489
     37          1           0       -0.731620    1.402377   -2.157316
     38          1           0        0.806476    1.967782   -1.615108
     39          1           0       -2.500668    0.276908   -0.517642
     40          1           0       -2.079803   -0.279331   -2.121085
     41          1           0       -5.412792   -5.076821    0.047636
     42          1           0       -5.508197   -4.539190    2.467762
     43          1           0       -4.329011   -2.587881    3.356864
     44          1           0       -3.015470   -1.108293    1.900061
     45          1           0        1.929931    1.709883    0.628989
     46          1           0        4.295635    1.337506    1.037063
     47          1           0        4.108724   -2.284986   -1.196252
     48          1           0        1.731316   -1.933761   -1.569763
     49          1           0        6.809200    1.267167    0.169199
     50          1           0        6.066969   -2.947258    0.385631
     51          1           0        8.896521   -0.112391    0.594371
 ---------------------------------------------------------------------
 Rotational constants (GHZ):      0.1275112      0.0718323      0.0504758
 Leave Link  202 at Sat Aug 27 09:21:08 2022, MaxMem=  209715200 cpu:       0.0
 (Enter /opt/gaussian/l601.exe)
 Copying SCF densities to generalized density rwf, IOpCl= 0 IROHF=0.

 **********************************************************************

            Population analysis using the SCF density.

 **********************************************************************

 Orbital symmetries:
       Occupied  (A) (A) (A) (A) (A) (A) (A) (A) (A) (A) (A) (A)
                 (A) (A) (A) (A) (A) (A) (A) (A) (A) (A) (A) (A)
                 (A) (A) (A) (A) (A) (A) (A) (A) (A) (A) (A) (A)
                 (A) (A) (A) (A) (A) (A) (A) (A) (A) (A) (A) (A)
                 (A) (A) (A) (A) (A) (A) (A) (A) (A) (A) (A) (A)
                 (A) (A) (A) (A) (A) (A) (A) (A) (A) (A) (A) (A)
                 (A) (A) (A) (A) (A) (A) (A) (A) (A) (A) (A) (A)
                 (A) (A) (A) (A) (A) (A) (A) (A) (A) (A) (A) (A)
                 (A) (A) (A) (A) (A) (A) (A) (A) (A) (A) (A) (A)
                 (A) (A) (A) (A) (A) (A) (A)
       Virtual   (A) (A) (A) (A) (A) (A) (A) (A) (A) (A) (A) (A)
                 (A) (A) (A) (A) (A) (A) (A) (A) (A) (A) (A) (A)
                 (A) (A) (A) (A) (A) (A) (A) (A) (A) (A) (A) (A)
                 (A) (A) (A) (A) (A) (A) (A) (A) (A) (A) (A) (A)
                 (A) (A) (A) (A) (A) (A) (A) (A) (A) (A) (A) (A)
                 (A) (A) (A) (A) (A) (A) (A) (A) (A) (A) (A) (A)
                 (A) (A) (A) (A) (A) (A) (A) (A) (A) (A) (A) (A)
                 (A) (A) (A) (A) (A) (A) (A) (A) (A) (A) (A) (A)
                 (A) (A) (A) (A) (A) (A) (A) (A) (A) (A) (A) (A)
                 (A) (A) (A) (A) (A) (A) (A) (A) (A) (A) (A) (A)
                 (A) (A) (A) (A) (A) (A) (A) (A) (A) (A) (A) (A)
                 (A) (A) (A) (A) (A) (A) (A) (A) (A) (A) (A) (A)
                 (A) (A) (A) (A) (A) (A) (A) (A) (A) (A) (A) (A)
                 (A) (A) (A) (A) (A) (A) (A) (A) (A) (A) (A) (A)
                 (A) (A) (A) (A) (A) (A) (A) (A) (A) (A) (A) (A)
                 (A) (A) (A) (A) (A) (A) (A) (A) (A) (A) (A) (A)
                 (A) (A) (A) (A) (A) (A) (A) (A) (A) (A) (A) (A)
                 (A) (A) (A) (A) (A) (A) (A) (A) (A) (A) (A)
 The electronic state is 1-A.
 Alpha  occ. eigenvalues -- -104.83372 -20.55344 -15.66532 -15.65643 -15.64765
 Alpha  occ. eigenvalues --  -15.62603 -15.61353 -15.60671 -11.39202 -11.33825
 Alpha  occ. eigenvalues --  -11.31471 -11.31320 -11.29786 -11.29633 -11.29165
 Alpha  occ. eigenvalues --  -11.28981 -11.27810 -11.27626 -11.27487 -11.27041
 Alpha  occ. eigenvalues --  -11.26672 -11.26407 -11.26328 -11.25567 -11.25424
 Alpha  occ. eigenvalues --  -11.25388 -11.25310 -11.24957 -11.24739 -11.24650
 Alpha  occ. eigenvalues --  -11.24568 -11.24228 -10.57295  -8.04144  -8.03755
 Alpha  occ. eigenvalues --   -8.03738  -1.47651  -1.42624  -1.40512  -1.29091
 Alpha  occ. eigenvalues --   -1.25119  -1.21872  -1.17946  -1.17701  -1.13808
 Alpha  occ. eigenvalues --   -1.12461  -1.09732  -1.08188  -1.06622  -1.05442
 Alpha  occ. eigenvalues --   -1.03786  -1.03087  -1.02727  -1.00959  -0.97960
 Alpha  occ. eigenvalues --   -0.89224  -0.88834  -0.86886  -0.85893  -0.85219
 Alpha  occ. eigenvalues --   -0.84455  -0.82633  -0.82319  -0.80062  -0.77677
 Alpha  occ. eigenvalues --   -0.75878  -0.74155  -0.73242  -0.72552  -0.72180
 Alpha  occ. eigenvalues --   -0.71237  -0.68285  -0.67335  -0.66112  -0.65699
 Alpha  occ. eigenvalues --   -0.65542  -0.64591  -0.64197  -0.63660  -0.62692
 Alpha  occ. eigenvalues --   -0.62443  -0.62074  -0.61759  -0.61338  -0.60677
 Alpha  occ. eigenvalues --   -0.60424  -0.59906  -0.58524  -0.58101  -0.55831
 Alpha  occ. eigenvalues --   -0.55720  -0.53904  -0.53626  -0.53576  -0.52899
 Alpha  occ. eigenvalues --   -0.52279  -0.51639  -0.50860  -0.50709  -0.49614
 Alpha  occ. eigenvalues --   -0.47961  -0.46835  -0.45485  -0.44945  -0.43287
 Alpha  occ. eigenvalues --   -0.42785  -0.42437  -0.38599  -0.37218  -0.36925
 Alpha  occ. eigenvalues --   -0.36226  -0.35065  -0.33854  -0.32232  -0.30334
 Alpha virt. eigenvalues --    0.09702   0.10003   0.10659   0.11128   0.12913
 Alpha virt. eigenvalues --    0.15581   0.16156   0.16627   0.17494   0.20089
 Alpha virt. eigenvalues --    0.20872   0.22286   0.23157   0.23977   0.24512
 Alpha virt. eigenvalues --    0.24958   0.25131   0.26145   0.26590   0.27483
 Alpha virt. eigenvalues --    0.28365   0.28927   0.29402   0.30842   0.30909
 Alpha virt. eigenvalues --    0.31626   0.32044   0.32444   0.33101   0.33763
 Alpha virt. eigenvalues --    0.34051   0.36105   0.36472   0.37234   0.37588
 Alpha virt. eigenvalues --    0.38594   0.40037   0.40103   0.40559   0.41356
 Alpha virt. eigenvalues --    0.42414   0.43031   0.43628   0.45002   0.45359
 Alpha virt. eigenvalues --    0.46677   0.46958   0.47186   0.48677   0.49091
 Alpha virt. eigenvalues --    0.51744   0.51854   0.52617   0.53268   0.54708
 Alpha virt. eigenvalues --    0.55340   0.57335   0.58490   0.59027   0.59563
 Alpha virt. eigenvalues --    0.60102   0.60496   0.62033   0.62821   0.64261
 Alpha virt. eigenvalues --    0.65881   0.70594   0.71499   0.72496   0.72560
 Alpha virt. eigenvalues --    0.73455   0.73551   0.74296   0.74472   0.75055
 Alpha virt. eigenvalues --    0.75736   0.76000   0.76927   0.77240   0.78202
 Alpha virt. eigenvalues --    0.78553   0.79043   0.79901   0.80102   0.81016
 Alpha virt. eigenvalues --    0.81794   0.82373   0.82821   0.82935   0.83335
 Alpha virt. eigenvalues --    0.83814   0.84375   0.85079   0.85152   0.85586
 Alpha virt. eigenvalues --    0.85807   0.85893   0.86191   0.86384   0.86747
 Alpha virt. eigenvalues --    0.87550   0.88167   0.88645   0.89154   0.89586
 Alpha virt. eigenvalues --    0.90191   0.90865   0.90991   0.91557   0.91964
 Alpha virt. eigenvalues --    0.93269   0.94215   0.94770   0.95240   0.95713
 Alpha virt. eigenvalues --    0.95806   0.96685   0.97510   0.98199   0.99391
 Alpha virt. eigenvalues --    1.00341   1.00892   1.01517   1.01660   1.02496
 Alpha virt. eigenvalues --    1.02865   1.03808   1.05599   1.07737   1.08204
 Alpha virt. eigenvalues --    1.08944   1.09957   1.10436   1.11152   1.11335
 Alpha virt. eigenvalues --    1.11641   1.12320   1.12663   1.12974   1.13816
 Alpha virt. eigenvalues --    1.13932   1.14687   1.14862   1.16015   1.16466
 Alpha virt. eigenvalues --    1.16780   1.17519   1.17746   1.18565   1.18986
 Alpha virt. eigenvalues --    1.19190   1.21076   1.21558   1.21724   1.23057
 Alpha virt. eigenvalues --    1.23790   1.25239   1.25641   1.25744   1.26605
 Alpha virt. eigenvalues --    1.27101   1.27760   1.29525   1.29962   1.30509
 Alpha virt. eigenvalues --    1.30679   1.31909   1.33190   1.34559   1.35280
 Alpha virt. eigenvalues --    1.35451   1.36589   1.37624   1.39255   1.39713
 Alpha virt. eigenvalues --    1.41057   1.41497   1.42512   1.43286   1.43906
 Alpha virt. eigenvalues --    1.44426   1.45527   1.47452   1.48841   1.49998
 Alpha virt. eigenvalues --    1.52321   1.53456   1.54635   1.55733   1.56963
 Alpha virt. eigenvalues --    1.60371   1.61628   1.62606   1.63551   1.66371
 Alpha virt. eigenvalues --    1.67163   1.69579   1.69820   1.71437   1.74679
 Alpha virt. eigenvalues --    1.75061   1.76477   1.80865   1.86724   1.87826
 Alpha virt. eigenvalues --    1.89858   1.94854   1.99725   2.03917   2.07419
 Alpha virt. eigenvalues --    2.13453   2.16379   2.25059   2.25613   2.34644
          Condensed to atoms (all electrons):
 Mulliken atomic charges:
              1
     1  Cl   0.106066
     2  C   -0.315555
     3  C   -0.150956
     4  C   -0.192978
     5  C   -0.211005
     6  C   -0.030931
     7  C   -0.163972
     8  C   -0.080744
     9  N   -0.990462
    10  C    0.786052
    11  O   -0.568939
    12  C   -0.130091
    13  N   -0.884404
    14  N    0.094895
    15  N   -0.334109
    16  C   -0.020474
    17  C   -0.078130
    18  C   -0.233538
    19  C   -0.205030
    20  C   -0.064104
    21  C    0.489368
    22  C    0.323719
    23  C   -0.213932
    24  C   -0.208682
    25  C    0.049253
    26  C   -0.216046
    27  C   -0.143331
    28  C   -0.306369
    29  C    0.224184
    30  N   -0.684941
    31  N   -0.246583
    32  C    0.077113
    33  H    0.243573
    34  H    0.222553
    35  H    0.243337
    36  H    0.241232
    37  H    0.196132
    38  H    0.229354
    39  H    0.237350
    40  H    0.250230
    41  H    0.241127
    42  H    0.204500
    43  H    0.204388
    44  H    0.221099
    45  H    0.220495
    46  H    0.209604
    47  H    0.220728
    48  H    0.242671
    49  H    0.253626
    50  H    0.235193
    51  H    0.407466
 Sum of Mulliken atomic charges =   0.00000
 Mulliken charges with hydrogens summed into heavy atoms:
              1
     1  Cl   0.106066
     2  C   -0.315555
     3  C    0.092616
     4  C    0.029575
     5  C    0.032332
     6  C   -0.030931
     7  C    0.077261
     8  C    0.344741
     9  N   -0.990462
    10  C    0.786052
    11  O   -0.568939
    12  C    0.357489
    13  N   -0.884404
    14  N    0.094895
    15  N   -0.334109
    16  C   -0.020474
    17  C    0.162997
    18  C   -0.029038
    19  C   -0.000642
    20  C    0.156995
    21  C    0.489368
    22  C    0.323719
    23  C    0.006563
    24  C    0.000922
    25  C    0.049253
    26  C    0.004682
    27  C    0.099340
    28  C   -0.306369
    29  C    0.477811
    30  N   -0.277475
    31  N   -0.246583
    32  C    0.312306
 Sum of Mulliken charges with hydrogens summed into heavy atoms =   0.00000
 Electronic spatial extent (au):  <R**2>=          20020.0565
 Charge=              0.0000 electrons
 Dipole moment (field-independent basis, Debye):
    X=              1.9594    Y=              6.2831    Z=              2.8862  Tot=              7.1865
 Quadrupole moment (field-independent basis, Debye-Ang):
   XX=           -191.6980   YY=           -215.8957   ZZ=           -190.1613
   XY=             22.1594   XZ=            -19.5445   YZ=             -5.0678
 Traceless Quadrupole moment (field-independent basis, Debye-Ang):
   XX=              7.5536   YY=            -16.6441   ZZ=              9.0904
   XY=             22.1594   XZ=            -19.5445   YZ=             -5.0678
 Octapole moment (field-independent basis, Debye-Ang**2):
  XXX=            123.4882  YYY=            -71.8226  ZZZ=             38.4607  XYY=             21.7839
  XXY=            162.8949  XXZ=             71.6397  XZZ=            -17.1693  YZZ=             50.1473
  YYZ=             57.5506  XYZ=             66.8405
 Hexadecapole moment (field-independent basis, Debye-Ang**3):
 XXXX=         -16274.2300 YYYY=          -9566.9694 ZZZZ=          -1492.3970 XXXY=           1813.5960
 XXXZ=           -216.3681 YYYX=            324.7540 YYYZ=            -34.6556 ZZZX=           -170.0810
 ZZZY=            -90.5346 XXYY=          -4541.2902 XXZZ=          -3263.7121 YYZZ=          -1728.6464
 XXYZ=            -69.6879 YYXZ=           -321.2596 ZZXY=           -107.5861
 N-N= 3.036112800310D+03 E-N=-1.024949690769D+04  KE= 1.781764593109D+03
 No NMR shielding tensors so no spin-rotation constants.
 Leave Link  601 at Sat Aug 27 09:21:08 2022, MaxMem=  209715200 cpu:       1.4
 (Enter /opt/gaussian/l9999.exe)
 1\1\GINC-LQCAPF-6\FOpt\RHF\6-31G\C24H19Cl1N6O1\LQCAPF-6\27-Aug-2022\0\
 \#p opt hf/6-31G\\Mol36.out\\0,1\Cl,24.2768239196,-15.2307636357,-3.56
 66821254\C,23.3217577185,-13.9074393874,-2.7886282701\C,23.3813579302,
 -13.7531462166,-1.4175648373\C,22.6455261743,-12.732093179,-0.83871404
 06\C,21.8667522337,-11.8886534096,-1.6215319923\C,21.8148586851,-12.05
 62394633,-3.0000205534\C,22.5594275354,-13.0799551163,-3.5833264828\C,
 20.961605428,-11.1820306853,-3.90882356\N,20.4232937904,-9.9674617258,
 -3.2940637011\C,21.2009022749,-8.8608874591,-3.0579722928\O,20.7914678
 903,-7.8825872171,-2.4530803058\C,22.629777444,-8.8947252814,-3.587871
 0227\N,23.3068905141,-7.6501810069,-3.3932298966\N,23.4379580824,-6.78
 7272417,-4.4413808014\N,24.03278261,-5.7374298804,-4.053291875\C,24.31
 90142318,-5.856999629,-2.702633377\C,24.9611799938,-4.9795796452,-1.82
 97646634\C,25.1053123449,-5.3835033811,-0.5253031224\C,24.615785896,-6
 .6364872658,-0.0929456509\C,23.9792770207,-7.5056028697,-0.9462447565\
 C,23.8417515685,-7.0886871273,-2.2726846231\C,19.0252438119,-9.9491056
 457,-2.9586652895\C,18.4528918054,-11.0207887563,-2.2876853564\C,17.09
 54014505,-11.0307393721,-2.0072209293\C,16.2737255773,-9.9739020743,-2
 .3883019643\C,16.8635982448,-8.902120938,-3.0599153084\C,18.2162424048
 ,-8.8867406447,-3.345000012\C,14.8338007194,-9.9799346187,-2.096609245
 2\C,13.9790031043,-11.0520372443,-2.0609567489\N,12.7552989718,-10.571
 0085092,-1.7502924954\N,12.7648185017,-9.2323029341,-1.578761019\C,14.
 0068560921,-8.8638139967,-1.7859540075\H,23.9843285205,-14.4080468165,
 -0.8233631239\H,22.6770005814,-12.5939336788,0.2242814333\H,21.3004612
 129,-11.1067268973,-1.1555859362\H,22.5445868849,-13.2295877843,-4.645
 286291\H,21.5325477991,-10.9287390712,-4.7934959235\H,20.1149056267,-1
 1.755047058,-4.2578482522\H,23.1869758866,-9.6918754977,-3.1148713716\
 H,22.6257025872,-9.0761457958,-4.6522097058\H,25.3209788576,-4.0323831
 961,-2.1775336094\H,25.5910080185,-4.7431022081,0.1840595517\H,24.7413
 262857,-6.911170137,0.9364646615\H,23.5955843021,-8.4451745504,-0.6033
 245988\H,19.0583554278,-11.8457591243,-1.9687201308\H,16.682289876,-11
 .8578797117,-1.4628411582\H,16.2561871593,-8.0793370764,-3.3827704797\
 H,18.6421953412,-8.0474277574,-3.8527542784\H,14.1514387535,-12.086840
 8535,-2.2492959972\H,14.289187464,-7.84035884,-1.6947288252\H,11.90675
 54448,-11.0665432124,-1.6482556382\\Version=EM64L-G09RevC.01\State=1-A
 \HF=-1780.3007781\RMSD=3.302e-09\RMSF=3.105e-06\Dipole=-0.361184,-2.64
 14218,0.941627\Quadrupole=1.6958003,-8.0470402,6.3512399,17.383628,15.
 4943802,3.9606975\PG=C01 [X(C24H19Cl1N6O1)]\\@


 REALITY IS FOR PEOPLE WHO CAN'T FACE SCIENCE FICTION.
 Job cpu time:  0 days  4 hours 18 minutes 44.4 seconds.
 File lengths (MBytes):  RWF=     74 Int=      0 D2E=      0 Chk=     11 Scr=      1
 Normal termination of Gaussian 09 at Sat Aug 27 09:21:08 2022.
