 Entering Gaussian System, Link 0=g09
 Input=Mol35.gjf
 Output=Mol35.log
 Initial command:
 /opt/gaussian/l1.exe /home/scr/lqcapf-6/Gau-309296.inp -scrdir=/home/scr/lqcapf-6/
 Entering Link 1 = /opt/gaussian/l1.exe PID=    309298.
  
 Copyright (c) 1988,1990,1992,1993,1995,1998,2003,2009,2011,
            Gaussian, Inc.  All Rights Reserved.
  
 This is part of the Gaussian(R) 09 program.  It is based on
 the Gaussian(R) 03 system (copyright 2003, Gaussian, Inc.),
 the Gaussian(R) 98 system (copyright 1998, Gaussian, Inc.),
 the Gaussian(R) 94 system (copyright 1995, Gaussian, Inc.),
 the Gaussian 92(TM) system (copyright 1992, Gaussian, Inc.),
 the Gaussian 90(TM) system (copyright 1990, Gaussian, Inc.),
 the Gaussian 88(TM) system (copyright 1988, Gaussian, Inc.),
 the Gaussian 86(TM) system (copyright 1986, Carnegie Mellon
 University), and the Gaussian 82(TM) system (copyright 1983,
 Carnegie Mellon University). Gaussian is a federally registered
 trademark of Gaussian, Inc.
  
 This software contains proprietary and confidential information,
 including trade secrets, belonging to Gaussian, Inc.
  
 This software is provided under written license and may be
 used, copied, transmitted, or stored only in accord with that
 written license.
  
 The following legend is applicable only to US Government
 contracts under FAR:
  
                    RESTRICTED RIGHTS LEGEND
  
 Use, reproduction and disclosure by the US Government is
 subject to restrictions as set forth in subparagraphs (a)
 and (c) of the Commercial Computer Software - Restricted
 Rights clause in FAR 52.227-19.
  
 Gaussian, Inc.
 340 Quinnipiac St., Bldg. 40, Wallingford CT 06492
  
  
 ---------------------------------------------------------------
 Warning -- This program may not be used in any manner that
 competes with the business of Gaussian, Inc. or will provide
 assistance to any competitor of Gaussian, Inc.  The licensee
 of this program is prohibited from giving any competitor of
 Gaussian, Inc. access to this program.  By using this program,
 the user acknowledges that Gaussian, Inc. is engaged in the
 business of creating and licensing software in the field of
 computational chemistry and represents and warrants to the
 licensee that it is not a competitor of Gaussian, Inc. and that
 it will not use this program in any manner prohibited above.
 ---------------------------------------------------------------
  

 Cite this work as:
 Gaussian 09, Revision C.01,
 M. J. Frisch, G. W. Trucks, H. B. Schlegel, G. E. Scuseria, 
 M. A. Robb, J. R. Cheeseman, G. Scalmani, V. Barone, B. Mennucci, 
 G. A. Petersson, H. Nakatsuji, M. Caricato, X. Li, H. P. Hratchian, 
 A. F. Izmaylov, J. Bloino, G. Zheng, J. L. Sonnenberg, M. Hada, 
 M. Ehara, K. Toyota, R. Fukuda, J. Hasegawa, M. Ishida, T. Nakajima, 
 Y. Honda, O. Kitao, H. Nakai, T. Vreven, J. A. Montgomery, Jr., 
 J. E. Peralta, F. Ogliaro, M. Bearpark, J. J. Heyd, E. Brothers, 
 K. N. Kudin, V. N. Staroverov, T. Keith, R. Kobayashi, J. Normand, 
 K. Raghavachari, A. Rendell, J. C. Burant, S. S. Iyengar, J. Tomasi, 
 M. Cossi, N. Rega, J. M. Millam, M. Klene, J. E. Knox, J. B. Cross, 
 V. Bakken, C. Adamo, J. Jaramillo, R. Gomperts, R. E. Stratmann, 
 O. Yazyev, A. J. Austin, R. Cammi, C. Pomelli, J. W. Ochterski, 
 R. L. Martin, K. Morokuma, V. G. Zakrzewski, G. A. Voth, 
 P. Salvador, J. J. Dannenberg, S. Dapprich, A. D. Daniels, 
 O. Farkas, J. B. Foresman, J. V. Ortiz, J. Cioslowski, 
 and D. J. Fox, Gaussian, Inc., Wallingford CT, 2010.
 
 ******************************************
 Gaussian 09:  EM64L-G09RevC.01 23-Sep-2011
                27-Aug-2022 
 ******************************************
 %nprocshared=8
 Will use up to    8 processors via shared memory.
 %mem=1600MB
 ---------------
 #p opt hf/6-31G
 ---------------
 1/18=20,19=15,38=1/1,3;
 2/9=110,12=2,17=6,18=5,40=1/2;
 3/5=1,6=6,11=9,16=1,25=1,30=1,71=1/1,2,3;
 4//1;
 5/5=2,38=5/2;
 6/7=2,8=2,9=2,10=2,28=1/1;
 7//1,2,3,16;
 1/18=20,19=15/3(2);
 2/9=110/2;
 99//99;
 2/9=110/2;
 3/5=1,6=6,11=9,16=1,25=1,30=1,71=1/1,2,3;
 4/5=5,16=3/1;
 5/5=2,38=5/2;
 7//1,2,3,16;
 1/18=20,19=15/3(-5);
 2/9=110/2;
 6/7=2,8=2,9=2,10=2,19=2,28=1/1;
 99/9=1/99;
 Leave Link    1 at Sat Aug 27 08:09:21 2022, MaxMem=  209715200 cpu:       0.1
 (Enter /opt/gaussian/l101.exe)
 ---------
 Mol35.out
 ---------
 Charge =  0 Multiplicity = 1
 Symbolic Z-Matrix:
 Cl                    24.0483  -15.3451  -2.6491 
 C                     23.4778  -13.7905  -2.2684 
 C                     23.7298  -13.2495  -1.0023 
 C                     23.2519  -11.9768  -0.7012 
 C                     22.533   -11.2459  -1.6482 
 C                     22.287   -11.7842  -2.9134 
 C                     22.7611  -13.0665  -3.2228 
 C                     21.5417  -11.0548  -4.0002 
 N                     20.8624  -9.8313   -3.6489 
 C                     21.5671  -8.6346   -3.4734 
 O                     21.0037  -7.5997   -3.0848 
 C                     23.0651  -8.6504   -3.8334 
 N                     23.8028  -7.4901   -3.4118 
 N                     23.7272  -6.2639   -4.0281 
 N                     24.2083  -5.3461   -3.3207 
 C                     24.6178  -5.8831   -2.0562 
 C                     25.2116  -5.3254   -0.9247 
 C                     25.4894  -6.1772    0.1398 
 C                     25.1888  -7.5483    0.0901 
 C                     24.6002  -8.1363   -1.0249 
 C                     24.3164  -7.2989   -2.1042 
 C                     19.4905  -9.926    -3.2843 
 C                     19.0076  -11.0619  -2.5988 
 C                     17.6614  -11.1666  -2.2731 
 C                     16.7564  -10.1461  -2.6014 
 C                     17.2351  -9.021    -3.2861 
 C                     18.5787  -8.9057   -3.6258 
 C                     15.3577  -10.2593  -2.2066 
 C                     14.9927  -10.8314  -1.0172 
 C                     13.6222  -10.9445  -0.6451 
 C                     12.6557  -10.4677  -1.4953 
 N                     12.9807  -9.8843   -2.693 
 C                     14.32    -9.7388   -3.1131 
 O                     14.5069  -9.184    -4.2138 
 H                     24.2968  -13.8233  -0.2539 
 H                     23.4402  -11.543    0.2928 
 H                     22.1554  -10.2467  -1.3781 
 H                     22.5655  -13.4994  -4.2163 
 H                     22.2777  -10.8292  -4.8293 
 H                     20.7718  -11.7652  -4.4286 
 H                     23.558   -9.5431   -3.3482 
 H                     23.1447  -8.7358   -4.9566 
 H                     25.4481  -4.2527   -0.88 
 H                     25.9564  -5.7684    1.0489 
 H                     25.4251  -8.1761    0.9633 
 H                     24.3633  -9.2094   -1.0501 
 H                     19.6945  -11.8735  -2.3107 
 H                     17.3054  -12.0692  -1.7532 
 H                     16.5345  -8.2197   -3.5752 
 H                     18.929   -7.9985   -4.1453 
 H                     15.7564  -11.2108  -0.319 
 H                     13.3492  -11.4059   0.3114 
 H                     11.5782  -10.5291  -1.2565 
 H                     12.2628  -9.5422   -3.2937 
 
 NAtoms=     54 NQM=        0 NQMF=       0 NMMI=     54 NMMIF=      0
                NMic=       0 NMicF=      0.
                    Isotopes and Nuclear Properties:
 (Nuclear quadrupole moments (NQMom) in fm**2, nuclear magnetic moments (NMagM)
  in nuclear magnetons)

  Atom         1           2           3           4           5           6           7           8           9          10
 IAtWgt=          35          12          12          12          12          12          12          12          14          12
 AtmWgt=  34.9688527  12.0000000  12.0000000  12.0000000  12.0000000  12.0000000  12.0000000  12.0000000  14.0030740  12.0000000
 NucSpn=           3           0           0           0           0           0           0           0           2           0
 AtZEff=   0.0000000   0.0000000   0.0000000   0.0000000   0.0000000   0.0000000   0.0000000   0.0000000   0.0000000   0.0000000
 NQMom=   -8.1650000   0.0000000   0.0000000   0.0000000   0.0000000   0.0000000   0.0000000   0.0000000   2.0440000   0.0000000
 NMagM=    0.8218740   0.0000000   0.0000000   0.0000000   0.0000000   0.0000000   0.0000000   0.0000000   0.4037610   0.0000000

  Atom        11          12          13          14          15          16          17          18          19          20
 IAtWgt=          16          12          14          14          14          12          12          12          12          12
 AtmWgt=  15.9949146  12.0000000  14.0030740  14.0030740  14.0030740  12.0000000  12.0000000  12.0000000  12.0000000  12.0000000
 NucSpn=           0           0           2           2           2           0           0           0           0           0
 AtZEff=   0.0000000   0.0000000   0.0000000   0.0000000   0.0000000   0.0000000   0.0000000   0.0000000   0.0000000   0.0000000
 NQMom=    0.0000000   0.0000000   2.0440000   2.0440000   2.0440000   0.0000000   0.0000000   0.0000000   0.0000000   0.0000000
 NMagM=    0.0000000   0.0000000   0.4037610   0.4037610   0.4037610   0.0000000   0.0000000   0.0000000   0.0000000   0.0000000

  Atom        21          22          23          24          25          26          27          28          29          30
 IAtWgt=          12          12          12          12          12          12          12          12          12          12
 AtmWgt=  12.0000000  12.0000000  12.0000000  12.0000000  12.0000000  12.0000000  12.0000000  12.0000000  12.0000000  12.0000000
 NucSpn=           0           0           0           0           0           0           0           0           0           0
 AtZEff=   0.0000000   0.0000000   0.0000000   0.0000000   0.0000000   0.0000000   0.0000000   0.0000000   0.0000000   0.0000000
 NQMom=    0.0000000   0.0000000   0.0000000   0.0000000   0.0000000   0.0000000   0.0000000   0.0000000   0.0000000   0.0000000
 NMagM=    0.0000000   0.0000000   0.0000000   0.0000000   0.0000000   0.0000000   0.0000000   0.0000000   0.0000000   0.0000000

  Atom        31          32          33          34          35          36          37          38          39          40
 IAtWgt=          12          14          12          16           1           1           1           1           1           1
 AtmWgt=  12.0000000  14.0030740  12.0000000  15.9949146   1.0078250   1.0078250   1.0078250   1.0078250   1.0078250   1.0078250
 NucSpn=           0           2           0           0           1           1           1           1           1           1
 AtZEff=   0.0000000   0.0000000   0.0000000   0.0000000   0.0000000   0.0000000   0.0000000   0.0000000   0.0000000   0.0000000
 NQMom=    0.0000000   2.0440000   0.0000000   0.0000000   0.0000000   0.0000000   0.0000000   0.0000000   0.0000000   0.0000000
 NMagM=    0.0000000   0.4037610   0.0000000   0.0000000   2.7928460   2.7928460   2.7928460   2.7928460   2.7928460   2.7928460

  Atom        41          42          43          44          45          46          47          48          49          50
 IAtWgt=           1           1           1           1           1           1           1           1           1           1
 AtmWgt=   1.0078250   1.0078250   1.0078250   1.0078250   1.0078250   1.0078250   1.0078250   1.0078250   1.0078250   1.0078250
 NucSpn=           1           1           1           1           1           1           1           1           1           1
 AtZEff=   0.0000000   0.0000000   0.0000000   0.0000000   0.0000000   0.0000000   0.0000000   0.0000000   0.0000000   0.0000000
 NQMom=    0.0000000   0.0000000   0.0000000   0.0000000   0.0000000   0.0000000   0.0000000   0.0000000   0.0000000   0.0000000
 NMagM=    2.7928460   2.7928460   2.7928460   2.7928460   2.7928460   2.7928460   2.7928460   2.7928460   2.7928460   2.7928460

  Atom        51          52          53          54
 IAtWgt=           1           1           1           1
 AtmWgt=   1.0078250   1.0078250   1.0078250   1.0078250
 NucSpn=           1           1           1           1
 AtZEff=   0.0000000   0.0000000   0.0000000   0.0000000
 NQMom=    0.0000000   0.0000000   0.0000000   0.0000000
 NMagM=    2.7928460   2.7928460   2.7928460   2.7928460
 Leave Link  101 at Sat Aug 27 08:09:21 2022, MaxMem=  209715200 cpu:       0.8
 (Enter /opt/gaussian/l103.exe)

 GradGradGradGradGradGradGradGradGradGradGradGradGradGradGradGradGradGrad
 Berny optimization.
 Initialization pass.
                           ----------------------------
                           !    Initial Parameters    !
                           ! (Angstroms and Degrees)  !
 --------------------------                            --------------------------
 ! Name  Definition              Value          Derivative Info.                !
 --------------------------------------------------------------------------------
 ! R1    R(1,2)                  1.6992         estimate D2E/DX2                !
 ! R2    R(2,3)                  1.3997         estimate D2E/DX2                !
 ! R3    R(2,7)                  1.396          estimate D2E/DX2                !
 ! R4    R(3,4)                  1.3924         estimate D2E/DX2                !
 ! R5    R(3,35)                 1.1004         estimate D2E/DX2                !
 ! R6    R(4,5)                  1.3957         estimate D2E/DX2                !
 ! R7    R(4,36)                 1.1008         estimate D2E/DX2                !
 ! R8    R(5,6)                  1.3968         estimate D2E/DX2                !
 ! R9    R(5,37)                 1.1018         estimate D2E/DX2                !
 ! R10   R(6,7)                  1.4017         estimate D2E/DX2                !
 ! R11   R(6,8)                  1.5062         estimate D2E/DX2                !
 ! R12   R(7,38)                 1.1012         estimate D2E/DX2                !
 ! R13   R(8,9)                  1.4428         estimate D2E/DX2                !
 ! R14   R(8,39)                 1.1314         estimate D2E/DX2                !
 ! R15   R(8,40)                 1.1318         estimate D2E/DX2                !
 ! R16   R(9,10)                 1.3998         estimate D2E/DX2                !
 ! R17   R(9,22)                 1.4227         estimate D2E/DX2                !
 ! R18   R(10,11)                1.2407         estimate D2E/DX2                !
 ! R19   R(10,12)                1.5407         estimate D2E/DX2                !
 ! R20   R(12,13)                1.4381         estimate D2E/DX2                !
 ! R21   R(12,41)                1.1293         estimate D2E/DX2                !
 ! R22   R(12,42)                1.1293         estimate D2E/DX2                !
 ! R23   R(13,14)                1.3744         estimate D2E/DX2                !
 ! R24   R(13,21)                1.4178         estimate D2E/DX2                !
 ! R25   R(14,15)                1.2547         estimate D2E/DX2                !
 ! R26   R(15,16)                1.4335         estimate D2E/DX2                !
 ! R27   R(16,17)                1.3942         estimate D2E/DX2                !
 ! R28   R(16,21)                1.4483         estimate D2E/DX2                !
 ! R29   R(17,18)                1.3914         estimate D2E/DX2                !
 ! R30   R(17,43)                1.0994         estimate D2E/DX2                !
 ! R31   R(18,19)                1.4045         estimate D2E/DX2                !
 ! R32   R(18,44)                1.1008         estimate D2E/DX2                !
 ! R33   R(19,20)                1.3912         estimate D2E/DX2                !
 ! R34   R(19,45)                1.1011         estimate D2E/DX2                !
 ! R35   R(20,21)                1.3952         estimate D2E/DX2                !
 ! R36   R(20,46)                1.0992         estimate D2E/DX2                !
 ! R37   R(22,23)                1.4119         estimate D2E/DX2                !
 ! R38   R(22,27)                1.4103         estimate D2E/DX2                !
 ! R39   R(23,24)                1.389          estimate D2E/DX2                !
 ! R40   R(23,47)                1.1016         estimate D2E/DX2                !
 ! R41   R(24,25)                1.4029         estimate D2E/DX2                !
 ! R42   R(24,48)                1.1008         estimate D2E/DX2                !
 ! R43   R(25,26)                1.4014         estimate D2E/DX2                !
 ! R44   R(25,28)                1.4578         estimate D2E/DX2                !
 ! R45   R(26,27)                1.3907         estimate D2E/DX2                !
 ! R46   R(26,49)                1.103          estimate D2E/DX2                !
 ! R47   R(27,50)                1.1025         estimate D2E/DX2                !
 ! R48   R(28,29)                1.3694         estimate D2E/DX2                !
 ! R49   R(28,33)                1.4729         estimate D2E/DX2                !
 ! R50   R(29,30)                1.4246         estimate D2E/DX2                !
 ! R51   R(29,51)                1.1021         estimate D2E/DX2                !
 ! R52   R(30,31)                1.3727         estimate D2E/DX2                !
 ! R53   R(30,52)                1.0965         estimate D2E/DX2                !
 ! R54   R(31,32)                1.3713         estimate D2E/DX2                !
 ! R55   R(31,53)                1.1054         estimate D2E/DX2                !
 ! R56   R(32,33)                1.4112         estimate D2E/DX2                !
 ! R57   R(32,54)                0.9966         estimate D2E/DX2                !
 ! R58   R(33,34)                1.2467         estimate D2E/DX2                !
 ! A1    A(1,2,3)              119.725          estimate D2E/DX2                !
 ! A2    A(1,2,7)              119.5846         estimate D2E/DX2                !
 ! A3    A(3,2,7)              120.6903         estimate D2E/DX2                !
 ! A4    A(2,3,4)              119.1493         estimate D2E/DX2                !
 ! A5    A(2,3,35)             120.4261         estimate D2E/DX2                !
 ! A6    A(4,3,35)             120.4245         estimate D2E/DX2                !
 ! A7    A(3,4,5)              120.5796         estimate D2E/DX2                !
 ! A8    A(3,4,36)             119.7863         estimate D2E/DX2                !
 ! A9    A(5,4,36)             119.6339         estimate D2E/DX2                !
 ! A10   A(4,5,6)              120.2323         estimate D2E/DX2                !
 ! A11   A(4,5,37)             119.0209         estimate D2E/DX2                !
 ! A12   A(6,5,37)             120.7435         estimate D2E/DX2                !
 ! A13   A(5,6,7)              119.5328         estimate D2E/DX2                !
 ! A14   A(5,6,8)              123.6485         estimate D2E/DX2                !
 ! A15   A(7,6,8)              116.8147         estimate D2E/DX2                !
 ! A16   A(2,7,6)              119.8146         estimate D2E/DX2                !
 ! A17   A(2,7,38)             120.2726         estimate D2E/DX2                !
 ! A18   A(6,7,38)             119.9126         estimate D2E/DX2                !
 ! A19   A(6,8,9)              117.8999         estimate D2E/DX2                !
 ! A20   A(6,8,39)             107.6642         estimate D2E/DX2                !
 ! A21   A(6,8,40)             107.8038         estimate D2E/DX2                !
 ! A22   A(9,8,39)             108.3978         estimate D2E/DX2                !
 ! A23   A(9,8,40)             107.7071         estimate D2E/DX2                !
 ! A24   A(39,8,40)            106.8762         estimate D2E/DX2                !
 ! A25   A(8,9,10)             121.2279         estimate D2E/DX2                !
 ! A26   A(8,9,22)             117.3841         estimate D2E/DX2                !
 ! A27   A(10,9,22)            120.6791         estimate D2E/DX2                !
 ! A28   A(9,10,11)            121.5833         estimate D2E/DX2                !
 ! A29   A(9,10,12)            116.8335         estimate D2E/DX2                !
 ! A30   A(11,10,12)           121.5487         estimate D2E/DX2                !
 ! A31   A(10,12,13)           114.9582         estimate D2E/DX2                !
 ! A32   A(10,12,41)           109.3952         estimate D2E/DX2                !
 ! A33   A(10,12,42)           107.5605         estimate D2E/DX2                !
 ! A34   A(13,12,41)           106.7344         estimate D2E/DX2                !
 ! A35   A(13,12,42)           108.448          estimate D2E/DX2                !
 ! A36   A(41,12,42)           109.6822         estimate D2E/DX2                !
 ! A37   A(12,13,14)           124.064          estimate D2E/DX2                !
 ! A38   A(12,13,21)           124.4017         estimate D2E/DX2                !
 ! A39   A(14,13,21)           108.2498         estimate D2E/DX2                !
 ! A40   A(13,14,15)           112.2531         estimate D2E/DX2                !
 ! A41   A(14,15,16)           109.4413         estimate D2E/DX2                !
 ! A42   A(15,16,17)           133.4465         estimate D2E/DX2                !
 ! A43   A(15,16,21)           106.1115         estimate D2E/DX2                !
 ! A44   A(17,16,21)           120.434          estimate D2E/DX2                !
 ! A45   A(16,17,18)           117.4548         estimate D2E/DX2                !
 ! A46   A(16,17,43)           120.9917         estimate D2E/DX2                !
 ! A47   A(18,17,43)           121.5534         estimate D2E/DX2                !
 ! A48   A(17,18,19)           121.8585         estimate D2E/DX2                !
 ! A49   A(17,18,44)           119.2887         estimate D2E/DX2                !
 ! A50   A(19,18,44)           118.8527         estimate D2E/DX2                !
 ! A51   A(18,19,20)           122.1071         estimate D2E/DX2                !
 ! A52   A(18,19,45)           118.8543         estimate D2E/DX2                !
 ! A53   A(20,19,45)           119.0384         estimate D2E/DX2                !
 ! A54   A(19,20,21)           116.8961         estimate D2E/DX2                !
 ! A55   A(19,20,46)           121.4778         estimate D2E/DX2                !
 ! A56   A(21,20,46)           121.6245         estimate D2E/DX2                !
 ! A57   A(13,21,16)           103.7555         estimate D2E/DX2                !
 ! A58   A(13,21,20)           134.9251         estimate D2E/DX2                !
 ! A59   A(16,21,20)           121.248          estimate D2E/DX2                !
 ! A60   A(9,22,23)            120.5177         estimate D2E/DX2                !
 ! A61   A(9,22,27)            120.8793         estimate D2E/DX2                !
 ! A62   A(23,22,27)           118.5863         estimate D2E/DX2                !
 ! A63   A(22,23,24)           120.3969         estimate D2E/DX2                !
 ! A64   A(22,23,47)           120.4274         estimate D2E/DX2                !
 ! A65   A(24,23,47)           119.1749         estimate D2E/DX2                !
 ! A66   A(23,24,25)           121.0309         estimate D2E/DX2                !
 ! A67   A(23,24,48)           119.078          estimate D2E/DX2                !
 ! A68   A(25,24,48)           119.8906         estimate D2E/DX2                !
 ! A69   A(24,25,26)           118.5539         estimate D2E/DX2                !
 ! A70   A(24,25,28)           119.9393         estimate D2E/DX2                !
 ! A71   A(26,25,28)           121.4953         estimate D2E/DX2                !
 ! A72   A(25,26,27)           121.061          estimate D2E/DX2                !
 ! A73   A(25,26,49)           119.6281         estimate D2E/DX2                !
 ! A74   A(27,26,49)           119.3041         estimate D2E/DX2                !
 ! A75   A(22,27,26)           120.365          estimate D2E/DX2                !
 ! A76   A(22,27,50)           120.262          estimate D2E/DX2                !
 ! A77   A(26,27,50)           119.3592         estimate D2E/DX2                !
 ! A78   A(25,28,29)           121.5621         estimate D2E/DX2                !
 ! A79   A(25,28,33)           118.8069         estimate D2E/DX2                !
 ! A80   A(29,28,33)           119.6306         estimate D2E/DX2                !
 ! A81   A(28,29,30)           121.0946         estimate D2E/DX2                !
 ! A82   A(28,29,51)           120.6216         estimate D2E/DX2                !
 ! A83   A(30,29,51)           118.2825         estimate D2E/DX2                !
 ! A84   A(29,30,31)           119.2088         estimate D2E/DX2                !
 ! A85   A(29,30,52)           120.0509         estimate D2E/DX2                !
 ! A86   A(31,30,52)           120.7402         estimate D2E/DX2                !
 ! A87   A(30,31,32)           121.457          estimate D2E/DX2                !
 ! A88   A(30,31,53)           122.225          estimate D2E/DX2                !
 ! A89   A(32,31,53)           116.3179         estimate D2E/DX2                !
 ! A90   A(31,32,33)           121.9249         estimate D2E/DX2                !
 ! A91   A(31,32,54)           120.1157         estimate D2E/DX2                !
 ! A92   A(33,32,54)           117.9581         estimate D2E/DX2                !
 ! A93   A(28,33,32)           116.6789         estimate D2E/DX2                !
 ! A94   A(28,33,34)           126.5133         estimate D2E/DX2                !
 ! A95   A(32,33,34)           116.8077         estimate D2E/DX2                !
 ! D1    D(1,2,3,4)           -179.7326         estimate D2E/DX2                !
 ! D2    D(1,2,3,35)             0.1622         estimate D2E/DX2                !
 ! D3    D(7,2,3,4)              0.2169         estimate D2E/DX2                !
 ! D4    D(7,2,3,35)          -179.8883         estimate D2E/DX2                !
 ! D5    D(1,2,7,6)            179.9322         estimate D2E/DX2                !
 ! D6    D(1,2,7,38)             0.0399         estimate D2E/DX2                !
 ! D7    D(3,2,7,6)             -0.0174         estimate D2E/DX2                !
 ! D8    D(3,2,7,38)          -179.9097         estimate D2E/DX2                !
 ! D9    D(2,3,4,5)             -0.139          estimate D2E/DX2                !
 ! D10   D(2,3,4,36)           179.7306         estimate D2E/DX2                !
 ! D11   D(35,3,4,5)           179.9662         estimate D2E/DX2                !
 ! D12   D(35,3,4,36)           -0.1642         estimate D2E/DX2                !
 ! D13   D(3,4,5,6)             -0.1387         estimate D2E/DX2                !
 ! D14   D(3,4,5,37)           179.2007         estimate D2E/DX2                !
 ! D15   D(36,4,5,6)           179.9916         estimate D2E/DX2                !
 ! D16   D(36,4,5,37)           -0.669          estimate D2E/DX2                !
 ! D17   D(4,5,6,7)              0.3383         estimate D2E/DX2                !
 ! D18   D(4,5,6,8)           -178.9052         estimate D2E/DX2                !
 ! D19   D(37,5,6,7)          -178.9896         estimate D2E/DX2                !
 ! D20   D(37,5,6,8)             1.7669         estimate D2E/DX2                !
 ! D21   D(5,6,7,2)             -0.2601         estimate D2E/DX2                !
 ! D22   D(5,6,7,38)           179.6325         estimate D2E/DX2                !
 ! D23   D(8,6,7,2)            179.0342         estimate D2E/DX2                !
 ! D24   D(8,6,7,38)            -1.0731         estimate D2E/DX2                !
 ! D25   D(5,6,8,9)            -10.3616         estimate D2E/DX2                !
 ! D26   D(5,6,8,39)           112.5541         estimate D2E/DX2                !
 ! D27   D(5,6,8,40)          -132.4684         estimate D2E/DX2                !
 ! D28   D(7,6,8,9)            170.3759         estimate D2E/DX2                !
 ! D29   D(7,6,8,39)           -66.7084         estimate D2E/DX2                !
 ! D30   D(7,6,8,40)            48.2691         estimate D2E/DX2                !
 ! D31   D(6,8,9,10)            77.1427         estimate D2E/DX2                !
 ! D32   D(6,8,9,22)           -93.2715         estimate D2E/DX2                !
 ! D33   D(39,8,9,10)          -45.4015         estimate D2E/DX2                !
 ! D34   D(39,8,9,22)          144.1843         estimate D2E/DX2                !
 ! D35   D(40,8,9,10)         -160.7012         estimate D2E/DX2                !
 ! D36   D(40,8,9,22)           28.8845         estimate D2E/DX2                !
 ! D37   D(8,9,10,11)         -175.1136         estimate D2E/DX2                !
 ! D38   D(8,9,10,12)            6.9944         estimate D2E/DX2                !
 ! D39   D(22,9,10,11)          -5.0135         estimate D2E/DX2                !
 ! D40   D(22,9,10,12)         177.0946         estimate D2E/DX2                !
 ! D41   D(8,9,22,23)           33.6788         estimate D2E/DX2                !
 ! D42   D(8,9,22,27)         -144.8138         estimate D2E/DX2                !
 ! D43   D(10,9,22,23)        -136.7909         estimate D2E/DX2                !
 ! D44   D(10,9,22,27)          44.7165         estimate D2E/DX2                !
 ! D45   D(9,10,12,13)        -169.0453         estimate D2E/DX2                !
 ! D46   D(9,10,12,41)         -49.0084         estimate D2E/DX2                !
 ! D47   D(9,10,12,42)          70.0652         estimate D2E/DX2                !
 ! D48   D(11,10,12,13)         13.062          estimate D2E/DX2                !
 ! D49   D(11,10,12,41)        133.0989         estimate D2E/DX2                !
 ! D50   D(11,10,12,42)       -107.8276         estimate D2E/DX2                !
 ! D51   D(10,12,13,14)        -75.0145         estimate D2E/DX2                !
 ! D52   D(10,12,13,21)         82.0799         estimate D2E/DX2                !
 ! D53   D(41,12,13,14)        163.4906         estimate D2E/DX2                !
 ! D54   D(41,12,13,21)        -39.415          estimate D2E/DX2                !
 ! D55   D(42,12,13,14)         45.3882         estimate D2E/DX2                !
 ! D56   D(42,12,13,21)       -157.5173         estimate D2E/DX2                !
 ! D57   D(12,13,14,15)        164.8416         estimate D2E/DX2                !
 ! D58   D(21,13,14,15)          4.6056         estimate D2E/DX2                !
 ! D59   D(12,13,21,16)       -164.1102         estimate D2E/DX2                !
 ! D60   D(12,13,21,20)         19.0772         estimate D2E/DX2                !
 ! D61   D(14,13,21,16)         -3.9571         estimate D2E/DX2                !
 ! D62   D(14,13,21,20)        179.2304         estimate D2E/DX2                !
 ! D63   D(13,14,15,16)         -3.0915         estimate D2E/DX2                !
 ! D64   D(14,15,16,17)        179.3526         estimate D2E/DX2                !
 ! D65   D(14,15,16,21)          0.4207         estimate D2E/DX2                !
 ! D66   D(15,16,17,18)       -179.1346         estimate D2E/DX2                !
 ! D67   D(15,16,17,43)          0.9382         estimate D2E/DX2                !
 ! D68   D(21,16,17,18)         -0.3248         estimate D2E/DX2                !
 ! D69   D(21,16,17,43)        179.7479         estimate D2E/DX2                !
 ! D70   D(15,16,21,13)          2.2142         estimate D2E/DX2                !
 ! D71   D(15,16,21,20)        179.5749         estimate D2E/DX2                !
 ! D72   D(17,16,21,13)       -176.8863         estimate D2E/DX2                !
 ! D73   D(17,16,21,20)          0.4743         estimate D2E/DX2                !
 ! D74   D(16,17,18,19)          0.0098         estimate D2E/DX2                !
 ! D75   D(16,17,18,44)       -179.8881         estimate D2E/DX2                !
 ! D76   D(43,17,18,19)        179.9366         estimate D2E/DX2                !
 ! D77   D(43,17,18,44)          0.0387         estimate D2E/DX2                !
 ! D78   D(17,18,19,20)          0.1824         estimate D2E/DX2                !
 ! D79   D(17,18,19,45)       -179.6755         estimate D2E/DX2                !
 ! D80   D(44,18,19,20)       -179.9193         estimate D2E/DX2                !
 ! D81   D(44,18,19,45)          0.2229         estimate D2E/DX2                !
 ! D82   D(18,19,20,21)         -0.0414         estimate D2E/DX2                !
 ! D83   D(18,19,20,46)       -179.5907         estimate D2E/DX2                !
 ! D84   D(45,19,20,21)        179.8162         estimate D2E/DX2                !
 ! D85   D(45,19,20,46)          0.2669         estimate D2E/DX2                !
 ! D86   D(19,20,21,13)        176.1004         estimate D2E/DX2                !
 ! D87   D(19,20,21,16)         -0.2776         estimate D2E/DX2                !
 ! D88   D(46,20,21,13)         -4.351          estimate D2E/DX2                !
 ! D89   D(46,20,21,16)        179.271          estimate D2E/DX2                !
 ! D90   D(9,22,23,24)        -178.4104         estimate D2E/DX2                !
 ! D91   D(9,22,23,47)           1.9283         estimate D2E/DX2                !
 ! D92   D(27,22,23,24)          0.1163         estimate D2E/DX2                !
 ! D93   D(27,22,23,47)       -179.5451         estimate D2E/DX2                !
 ! D94   D(9,22,27,26)         178.7828         estimate D2E/DX2                !
 ! D95   D(9,22,27,50)          -2.5715         estimate D2E/DX2                !
 ! D96   D(23,22,27,26)          0.2617         estimate D2E/DX2                !
 ! D97   D(23,22,27,50)        178.9074         estimate D2E/DX2                !
 ! D98   D(22,23,24,25)         -0.7312         estimate D2E/DX2                !
 ! D99   D(22,23,24,48)        178.9995         estimate D2E/DX2                !
 ! D100  D(47,23,24,25)        178.9344         estimate D2E/DX2                !
 ! D101  D(47,23,24,48)         -1.3349         estimate D2E/DX2                !
 ! D102  D(23,24,25,26)          0.9474         estimate D2E/DX2                !
 ! D103  D(23,24,25,28)       -177.8381         estimate D2E/DX2                !
 ! D104  D(48,24,25,26)       -178.7812         estimate D2E/DX2                !
 ! D105  D(48,24,25,28)          2.4333         estimate D2E/DX2                !
 ! D106  D(24,25,26,27)         -0.5645         estimate D2E/DX2                !
 ! D107  D(24,25,26,49)        178.4809         estimate D2E/DX2                !
 ! D108  D(28,25,26,27)        178.2013         estimate D2E/DX2                !
 ! D109  D(28,25,26,49)         -2.7534         estimate D2E/DX2                !
 ! D110  D(24,25,28,29)         36.1205         estimate D2E/DX2                !
 ! D111  D(24,25,28,33)       -144.0966         estimate D2E/DX2                !
 ! D112  D(26,25,28,29)       -142.6284         estimate D2E/DX2                !
 ! D113  D(26,25,28,33)         37.1545         estimate D2E/DX2                !
 ! D114  D(25,26,27,22)         -0.0331         estimate D2E/DX2                !
 ! D115  D(25,26,27,50)       -178.6909         estimate D2E/DX2                !
 ! D116  D(49,26,27,22)       -179.0815         estimate D2E/DX2                !
 ! D117  D(49,26,27,50)          2.2606         estimate D2E/DX2                !
 ! D118  D(25,28,29,30)       -179.5996         estimate D2E/DX2                !
 ! D119  D(25,28,29,51)          0.8174         estimate D2E/DX2                !
 ! D120  D(33,28,29,30)          0.6193         estimate D2E/DX2                !
 ! D121  D(33,28,29,51)       -178.9637         estimate D2E/DX2                !
 ! D122  D(25,28,33,32)        179.3555         estimate D2E/DX2                !
 ! D123  D(25,28,33,34)         -0.5875         estimate D2E/DX2                !
 ! D124  D(29,28,33,32)         -0.8573         estimate D2E/DX2                !
 ! D125  D(29,28,33,34)        179.1996         estimate D2E/DX2                !
 ! D126  D(28,29,30,31)         -0.1493         estimate D2E/DX2                !
 ! D127  D(28,29,30,52)        179.9866         estimate D2E/DX2                !
 ! D128  D(51,29,30,31)        179.4432         estimate D2E/DX2                !
 ! D129  D(51,29,30,52)         -0.4209         estimate D2E/DX2                !
 ! D130  D(29,30,31,32)         -0.0698         estimate D2E/DX2                !
 ! D131  D(29,30,31,53)       -179.9653         estimate D2E/DX2                !
 ! D132  D(52,30,31,32)        179.7933         estimate D2E/DX2                !
 ! D133  D(52,30,31,53)         -0.1022         estimate D2E/DX2                !
 ! D134  D(30,31,32,33)         -0.2139         estimate D2E/DX2                !
 ! D135  D(30,31,32,54)       -179.7989         estimate D2E/DX2                !
 ! D136  D(53,31,32,33)        179.6875         estimate D2E/DX2                !
 ! D137  D(53,31,32,54)          0.1025         estimate D2E/DX2                !
 ! D138  D(31,32,33,28)          0.6611         estimate D2E/DX2                !
 ! D139  D(31,32,33,34)       -179.3902         estimate D2E/DX2                !
 ! D140  D(54,32,33,28)       -179.7453         estimate D2E/DX2                !
 ! D141  D(54,32,33,34)          0.2034         estimate D2E/DX2                !
 --------------------------------------------------------------------------------
 Trust Radius=3.00D-01 FncErr=1.00D-07 GrdErr=1.00D-07
 Number of steps in this run=    304 maximum allowed number of steps=    324.
 GradGradGradGradGradGradGradGradGradGradGradGradGradGradGradGradGradGrad

 Leave Link  103 at Sat Aug 27 08:09:21 2022, MaxMem=  209715200 cpu:       0.1
 (Enter /opt/gaussian/l202.exe)
 Stoichiometry    C26H20ClN5O2
 Framework group  C1[X(C26H20ClN5O2)]
 Deg. of freedom   156
 Full point group                 C1      NOp   1
 Largest Abelian subgroup         C1      NOp   1
 Largest concise Abelian subgroup C1      NOp   1
                         Standard orientation:                         
 ---------------------------------------------------------------------
 Center     Atomic      Atomic             Coordinates (Angstroms)
 Number     Number       Type             X           Y           Z
 ---------------------------------------------------------------------
      1         17           0       -2.535718    5.920490   -0.433010
      2          6           0       -2.216983    4.305867   -0.010420
      3          6           0       -2.602846    3.828566    1.247549
      4          6           0       -2.330705    2.504968    1.583470
      5          6           0       -1.684273    1.661366    0.678870
      6          6           0       -1.304775    2.136886   -0.578459
      7          6           0       -1.571377    3.469287   -0.922584
      8          6           0       -0.625675    1.288588   -1.621457
      9          7           0       -0.149595   -0.014880   -1.226323
     10          6           0       -1.029216   -1.092916   -1.072711
     11          8           0       -0.641739   -2.192302   -0.647672
     12          6           0       -2.490799   -0.864806   -1.503518
     13          7           0       -3.408897   -1.897925   -1.106018
     14          7           0       -3.485744   -3.132132   -1.705964
     15          7           0       -4.127764   -3.958042   -1.013207
     16          6           0       -4.511302   -3.346076    0.225104
     17          6           0       -5.231243   -3.792287    1.332579
     18          6           0       -5.429433   -2.891470    2.374282
     19          6           0       -4.929311   -1.579892    2.325437
     20          6           0       -4.210821   -1.102676    1.233898
     21          6           0       -4.003920   -1.990371    0.177555
     22          6           0        1.203355   -0.115219   -0.797990
     23          6           0        1.815721    0.949364   -0.101540
     24          6           0        3.146510    0.862017    0.286621
     25          6           0        3.906273   -0.284886    0.011669
     26          6           0        3.299604   -1.339385   -0.683889
     27          6           0        1.970469   -1.263135   -1.085807
     28          6           0        5.287042   -0.370331    0.471256
     29          6           0        5.677398    0.162147    1.670958
     30          6           0        7.031318    0.080338    2.106535
     31          6           0        7.955234   -0.546416    1.307873
     32          7           0        7.603126   -1.096044    0.101890
     33          6           0        6.277476   -1.051633   -0.379832
     34          8           0        6.061610   -1.591496   -1.482658
     35          1           0       -3.113148    4.491309    1.962533
     36          1           0       -2.625540    2.119885    2.571629
     37          1           0       -1.469777    0.622417    0.976382
     38          1           0       -1.269483    3.852424   -1.909889
     39          1           0       -1.348286    1.158966   -2.482288
     40          1           0        0.258657    1.871872   -2.019803
     41          1           0       -2.869196    0.098191   -1.051042
     42          1           0       -2.505844   -0.787428   -2.630014
     43          1           0       -5.624091   -4.818130    1.376541
     44          1           0       -5.992146   -3.212591    3.264172
     45          1           0       -5.110595   -0.909887    3.180234
     46          1           0       -3.818406   -0.076171    1.209428
     47          1           0        1.242710    1.857152    0.145660
     48          1           0        3.606841    1.711577    0.813937
     49          1           0        3.887707   -2.238998   -0.931539
     50          1           0        1.515078   -2.118070   -1.612407
     51          1           0        4.946534    0.660448    2.328377
     52          1           0        7.325147    0.512854    3.070333
     53          1           0        9.018113   -0.638853    1.596913
     54          1           0        8.289759   -1.549144   -0.460683
 ---------------------------------------------------------------------
 Rotational constants (GHZ):      0.1305307      0.0603584      0.0463946
 Leave Link  202 at Sat Aug 27 08:09:21 2022, MaxMem=  209715200 cpu:       0.0
 (Enter /opt/gaussian/l301.exe)
 Standard basis: 6-31G (6D, 7F)
 Ernie: Thresh=  0.10000D-02 Tol=  0.10000D-05 Strict=F.
 There are   350 symmetry adapted basis functions of A   symmetry.
 Integral buffers will be    131072 words long.
 Raffenetti 1 integral format.
 Two-electron integral symmetry is turned on.
   350 basis functions,   852 primitive gaussians,   350 cartesian basis functions
   122 alpha electrons      122 beta electrons
       nuclear repulsion energy      3345.1888991551 Hartrees.
 IExCor=    0 DFT=F Ex=HF Corr=None ExCW=0 ScaHFX=  1.000000
 ScaDFX=  1.000000  1.000000  1.000000  1.000000 ScalE2=  1.000000  1.000000
 IRadAn=      0 IRanWt=     -1 IRanGd=            0 ICorTp=0
 NAtoms=   54 NActive=   54 NUniq=   54 SFac= 1.00D+00 NAtFMM=   60 NAOKFM=F Big=F
 Leave Link  301 at Sat Aug 27 08:09:21 2022, MaxMem=  209715200 cpu:       0.2
 (Enter /opt/gaussian/l302.exe)
 NPDir=0 NMtPBC=     1 NCelOv=     1 NCel=       1 NClECP=     1 NCelD=      1
         NCelK=      1 NCelE2=     1 NClLst=     1 CellRange=     0.0.
 One-electron integrals computed using PRISM.
 NBasis=   350 RedAO= T  NBF=   350
 NBsUse=   350 1.00D-06 NBFU=   350
 Leave Link  302 at Sat Aug 27 08:09:22 2022, MaxMem=  209715200 cpu:       2.2
 (Enter /opt/gaussian/l303.exe)
 DipDrv:  MaxL=1.
 Leave Link  303 at Sat Aug 27 08:09:22 2022, MaxMem=  209715200 cpu:       0.5
 (Enter /opt/gaussian/l401.exe)
 Harris functional with IExCor=  205 diagonalized for initial guess.
 ExpMin= 1.43D-01 ExpMax= 2.52D+04 ExpMxC= 3.78D+03 IAcc=1 IRadAn=         1 AccDes= 0.00D+00
 HarFok:  IExCor=  205 AccDes= 0.00D+00 IRadAn=         1 IDoV= 1
 ScaDFX=  1.000000  1.000000  1.000000  1.000000
 FoFCou: FMM=F IPFlag=           0 FMFlag=      100000 FMFlg1=           0
         NFxFlg=           0 DoJE=T BraDBF=F KetDBF=T FulRan=T
         Omega=  0.000000  0.000000  1.000000  0.000000  0.000000 ICntrl=     500 IOpCl=  0
         NMat0=    1 NMatS0=    1 NMatT0=    0 NMatD0=    1 NMtDS0=    0 NMtDT0=    0
         I1Cent=           4 NGrid=           0.
 Petite list used in FoFCou.
 Harris En= -1878.17533620263    
 Initial guess orbital symmetries:
       Occupied  (A) (A) (A) (A) (A) (A) (A) (A) (A) (A) (A) (A)
                 (A) (A) (A) (A) (A) (A) (A) (A) (A) (A) (A) (A)
                 (A) (A) (A) (A) (A) (A) (A) (A) (A) (A) (A) (A)
                 (A) (A) (A) (A) (A) (A) (A) (A) (A) (A) (A) (A)
                 (A) (A) (A) (A) (A) (A) (A) (A) (A) (A) (A) (A)
                 (A) (A) (A) (A) (A) (A) (A) (A) (A) (A) (A) (A)
                 (A) (A) (A) (A) (A) (A) (A) (A) (A) (A) (A) (A)
                 (A) (A) (A) (A) (A) (A) (A) (A) (A) (A) (A) (A)
                 (A) (A) (A) (A) (A) (A) (A) (A) (A) (A) (A) (A)
                 (A) (A) (A) (A) (A) (A) (A) (A) (A) (A) (A) (A)
                 (A) (A)
       Virtual   (A) (A) (A) (A) (A) (A) (A) (A) (A) (A) (A) (A)
                 (A) (A) (A) (A) (A) (A) (A) (A) (A) (A) (A) (A)
                 (A) (A) (A) (A) (A) (A) (A) (A) (A) (A) (A) (A)
                 (A) (A) (A) (A) (A) (A) (A) (A) (A) (A) (A) (A)
                 (A) (A) (A) (A) (A) (A) (A) (A) (A) (A) (A) (A)
                 (A) (A) (A) (A) (A) (A) (A) (A) (A) (A) (A) (A)
                 (A) (A) (A) (A) (A) (A) (A) (A) (A) (A) (A) (A)
                 (A) (A) (A) (A) (A) (A) (A) (A) (A) (A) (A) (A)
                 (A) (A) (A) (A) (A) (A) (A) (A) (A) (A) (A) (A)
                 (A) (A) (A) (A) (A) (A) (A) (A) (A) (A) (A) (A)
                 (A) (A) (A) (A) (A) (A) (A) (A) (A) (A) (A) (A)
                 (A) (A) (A) (A) (A) (A) (A) (A) (A) (A) (A) (A)
                 (A) (A) (A) (A) (A) (A) (A) (A) (A) (A) (A) (A)
                 (A) (A) (A) (A) (A) (A) (A) (A) (A) (A) (A) (A)
                 (A) (A) (A) (A) (A) (A) (A) (A) (A) (A) (A) (A)
                 (A) (A) (A) (A) (A) (A) (A) (A) (A) (A) (A) (A)
                 (A) (A) (A) (A) (A) (A) (A) (A) (A) (A) (A) (A)
                 (A) (A) (A) (A) (A) (A) (A) (A) (A) (A) (A) (A)
                 (A) (A) (A) (A) (A) (A) (A) (A) (A) (A) (A) (A)
 The electronic state of the initial guess is 1-A.
 Leave Link  401 at Sat Aug 27 08:09:22 2022, MaxMem=  209715200 cpu:       5.1
 (Enter /opt/gaussian/l502.exe)
 Closed shell SCF:
 Requested convergence on RMS density matrix=1.00D-08 within 128 cycles.
 Requested convergence on MAX density matrix=1.00D-06.
 Requested convergence on             energy=1.00D-06.
 No special actions if energy rises.
 Using DIIS extrapolation, IDIIS=  1040.
 Integral symmetry usage will be decided dynamically.
 IEnd=      391147 IEndB=      391147 NGot=   209715200 MDV=   209463544
 LenX=   209463544 LenY=   209340603
 Fock matrices will be formed incrementally for  20 cycles.
 Integral accuracy reduced to 1.0D-05 until final iterations.

 Cycle   1  Pass 0  IDiag  1:
 FoFCou: FMM=F IPFlag=           0 FMFlag=      100000 FMFlg1=           0
         NFxFlg=           0 DoJE=F BraDBF=F KetDBF=F FulRan=T
         Omega=  0.000000  0.000000  1.000000  0.000000  0.000000 ICntrl=       0 IOpCl=  0
         NMat0=    1 NMatS0=    1 NMatT0=    0 NMatD0=    1 NMtDS0=    0 NMtDT0=    0
         I1Cent=           0 NGrid=           0.
 Symmetry not used in FoFCou.
 E= -1876.00141461396    
 DIIS: error= 3.80D-02 at cycle   1 NSaved=   1.
 NSaved= 1 IEnMin= 1 EnMin= -1876.00141461396     IErMin= 1 ErrMin= 3.80D-02
 ErrMax= 3.80D-02 EMaxC= 1.00D-01 BMatC= 1.18D+00 BMatP= 1.18D+00
 IDIUse=3 WtCom= 6.20D-01 WtEn= 3.80D-01
 Coeff-Com:  0.100D+01
 Coeff-En:   0.100D+01
 Coeff:      0.100D+01
 Gap=     0.556 Goal=   None    Shift=    0.000
 GapD=    0.556 DampG=2.000 DampE=0.500 DampFc=1.0000 IDamp=-1.
 RMSDP=5.92D-03 MaxDP=1.71D-01              OVMax= 1.62D-01

 Cycle   2  Pass 0  IDiag  1:
 RMSU=  4.16D-03    CP:  9.75D-01
 E= -1876.78272256181     Delta-E=       -0.781307947853 Rises=F Damp=F
 DIIS: error= 2.20D-02 at cycle   2 NSaved=   2.
 NSaved= 2 IEnMin= 2 EnMin= -1876.78272256181     IErMin= 2 ErrMin= 2.20D-02
 ErrMax= 2.20D-02 EMaxC= 1.00D-01 BMatC= 2.26D-01 BMatP= 1.18D+00
 IDIUse=3 WtCom= 7.80D-01 WtEn= 2.20D-01
 Coeff-Com:  0.255D+00 0.745D+00
 Coeff-En:   0.000D+00 0.100D+01
 Coeff:      0.199D+00 0.801D+00
 Gap=     0.422 Goal=   None    Shift=    0.000
 RMSDP=2.47D-03 MaxDP=8.80D-02 DE=-7.81D-01 OVMax= 9.91D-02

 Cycle   3  Pass 0  IDiag  1:
 RMSU=  1.48D-03    CP:  9.72D-01  7.76D-01
 E= -1876.95789510195     Delta-E=       -0.175172540137 Rises=F Damp=F
 DIIS: error= 1.04D-02 at cycle   3 NSaved=   3.
 NSaved= 3 IEnMin= 3 EnMin= -1876.95789510195     IErMin= 3 ErrMin= 1.04D-02
 ErrMax= 1.04D-02 EMaxC= 1.00D-01 BMatC= 3.78D-02 BMatP= 2.26D-01
 IDIUse=3 WtCom= 8.96D-01 WtEn= 1.04D-01
 Coeff-Com:  0.588D-02 0.278D+00 0.717D+00
 Coeff-En:   0.000D+00 0.000D+00 0.100D+01
 Coeff:      0.526D-02 0.249D+00 0.746D+00
 Gap=     0.354 Goal=   None    Shift=    0.000
 RMSDP=8.21D-04 MaxDP=3.37D-02 DE=-1.75D-01 OVMax= 3.68D-02

 Cycle   4  Pass 0  IDiag  1:
 RMSU=  3.48D-04    CP:  9.73D-01  8.71D-01  8.35D-01
 E= -1876.99101791096     Delta-E=       -0.033122809011 Rises=F Damp=F
 DIIS: error= 2.44D-03 at cycle   4 NSaved=   4.
 NSaved= 4 IEnMin= 4 EnMin= -1876.99101791096     IErMin= 4 ErrMin= 2.44D-03
 ErrMax= 2.44D-03 EMaxC= 1.00D-01 BMatC= 3.13D-03 BMatP= 3.78D-02
 IDIUse=3 WtCom= 9.76D-01 WtEn= 2.44D-02
 Coeff-Com: -0.137D-01 0.242D-01 0.262D+00 0.728D+00
 Coeff-En:   0.000D+00 0.000D+00 0.000D+00 0.100D+01
 Coeff:     -0.134D-01 0.236D-01 0.256D+00 0.734D+00
 Gap=     0.352 Goal=   None    Shift=    0.000
 RMSDP=2.62D-04 MaxDP=9.17D-03 DE=-3.31D-02 OVMax= 7.88D-03

 Cycle   5  Pass 0  IDiag  1:
 RMSU=  1.22D-04    CP:  9.72D-01  8.64D-01  9.12D-01  7.95D-01
 E= -1876.99413486280     Delta-E=       -0.003116951840 Rises=F Damp=F
 DIIS: error= 9.59D-04 at cycle   5 NSaved=   5.
 NSaved= 5 IEnMin= 5 EnMin= -1876.99413486280     IErMin= 5 ErrMin= 9.59D-04
 ErrMax= 9.59D-04 EMaxC= 1.00D-01 BMatC= 1.31D-04 BMatP= 3.13D-03
 IDIUse=3 WtCom= 9.90D-01 WtEn= 9.59D-03
 Coeff-Com: -0.128D-02-0.157D-01-0.187D-01 0.531D-01 0.983D+00
 Coeff-En:   0.000D+00 0.000D+00 0.000D+00 0.000D+00 0.100D+01
 Coeff:     -0.127D-02-0.155D-01-0.185D-01 0.526D-01 0.983D+00
 Gap=     0.353 Goal=   None    Shift=    0.000
 RMSDP=9.18D-05 MaxDP=3.10D-03 DE=-3.12D-03 OVMax= 5.64D-03

 Cycle   6  Pass 0  IDiag  1:
 RMSU=  4.73D-05    CP:  9.72D-01  8.63D-01  9.31D-01  8.59D-01  1.21D+00
 E= -1876.99451693505     Delta-E=       -0.000382072255 Rises=F Damp=F
 DIIS: error= 4.14D-04 at cycle   6 NSaved=   6.
 NSaved= 6 IEnMin= 6 EnMin= -1876.99451693505     IErMin= 6 ErrMin= 4.14D-04
 ErrMax= 4.14D-04 EMaxC= 1.00D-01 BMatC= 4.11D-05 BMatP= 1.31D-04
 IDIUse=3 WtCom= 9.96D-01 WtEn= 4.14D-03
 Coeff-Com:  0.275D-02-0.905D-02-0.588D-01-0.168D+00 0.214D+00 0.102D+01
 Coeff-En:   0.000D+00 0.000D+00 0.000D+00 0.000D+00 0.000D+00 0.100D+01
 Coeff:      0.274D-02-0.901D-02-0.585D-01-0.167D+00 0.213D+00 0.102D+01
 Gap=     0.354 Goal=   None    Shift=    0.000
 RMSDP=6.15D-05 MaxDP=2.00D-03 DE=-3.82D-04 OVMax= 3.87D-03

 Cycle   7  Pass 0  IDiag  1:
 RMSU=  1.90D-05    CP:  9.71D-01  8.61D-01  9.44D-01  8.75D-01  1.47D+00
                    CP:  1.19D+00
 E= -1876.99465226007     Delta-E=       -0.000135325019 Rises=F Damp=F
 DIIS: error= 1.82D-04 at cycle   7 NSaved=   7.
 NSaved= 7 IEnMin= 7 EnMin= -1876.99465226007     IErMin= 7 ErrMin= 1.82D-04
 ErrMax= 1.82D-04 EMaxC= 1.00D-01 BMatC= 6.16D-06 BMatP= 4.11D-05
 IDIUse=3 WtCom= 9.98D-01 WtEn= 1.82D-03
 Coeff-Com:  0.393D-03 0.134D-02 0.197D-03-0.271D-01-0.115D+00 0.766D-01
 Coeff-Com:  0.106D+01
 Coeff-En:   0.000D+00 0.000D+00 0.000D+00 0.000D+00 0.000D+00 0.000D+00
 Coeff-En:   0.100D+01
 Coeff:      0.392D-03 0.134D-02 0.197D-03-0.270D-01-0.115D+00 0.764D-01
 Coeff:      0.106D+01
 Gap=     0.354 Goal=   None    Shift=    0.000
 RMSDP=2.47D-05 MaxDP=9.39D-04 DE=-1.35D-04 OVMax= 1.63D-03

 Cycle   8  Pass 0  IDiag  1:
 RMSU=  7.90D-06    CP:  9.71D-01  8.60D-01  9.45D-01  8.77D-01  1.55D+00
                    CP:  1.39D+00  1.29D+00
 E= -1876.99467409526     Delta-E=       -0.000021835190 Rises=F Damp=F
 DIIS: error= 7.60D-05 at cycle   8 NSaved=   8.
 NSaved= 8 IEnMin= 8 EnMin= -1876.99467409526     IErMin= 8 ErrMin= 7.60D-05
 ErrMax= 7.60D-05 EMaxC= 1.00D-01 BMatC= 1.18D-06 BMatP= 6.16D-06
 IDIUse=1 WtCom= 1.00D+00 WtEn= 0.00D+00
 Coeff-Com: -0.583D-03 0.263D-02 0.159D-01 0.334D-01-0.716D-01-0.236D+00
 Coeff-Com:  0.193D+00 0.106D+01
 Coeff:     -0.583D-03 0.263D-02 0.159D-01 0.334D-01-0.716D-01-0.236D+00
 Coeff:      0.193D+00 0.106D+01
 Gap=     0.354 Goal=   None    Shift=    0.000
 RMSDP=1.15D-05 MaxDP=3.49D-04 DE=-2.18D-05 OVMax= 1.00D-03

 Cycle   9  Pass 0  IDiag  1:
 RMSU=  3.14D-06    CP:  9.71D-01  8.59D-01  9.46D-01  8.75D-01  1.58D+00
                    CP:  1.46D+00  1.55D+00  1.24D+00
 E= -1876.99467899948     Delta-E=       -0.000004904221 Rises=F Damp=F
 DIIS: error= 2.85D-05 at cycle   9 NSaved=   9.
 NSaved= 9 IEnMin= 9 EnMin= -1876.99467899948     IErMin= 9 ErrMin= 2.85D-05
 ErrMax= 2.85D-05 EMaxC= 1.00D-01 BMatC= 1.61D-07 BMatP= 1.18D-06
 IDIUse=1 WtCom= 1.00D+00 WtEn= 0.00D+00
 Coeff-Com: -0.132D-03 0.285D-03 0.285D-02 0.771D-02 0.156D-02-0.460D-01
 Coeff-Com: -0.820D-01 0.196D+00 0.919D+00
 Coeff:     -0.132D-03 0.285D-03 0.285D-02 0.771D-02 0.156D-02-0.460D-01
 Coeff:     -0.820D-01 0.196D+00 0.919D+00
 Gap=     0.354 Goal=   None    Shift=    0.000
 RMSDP=3.04D-06 MaxDP=1.03D-04 DE=-4.90D-06 OVMax= 2.34D-04

 Initial convergence to 1.0D-05 achieved.  Increase integral accuracy.
 Cycle  10  Pass 1  IDiag  1:
 E= -1876.99468289124     Delta-E=       -0.000003891761 Rises=F Damp=F
 DIIS: error= 7.85D-05 at cycle   1 NSaved=   1.
 NSaved= 1 IEnMin= 1 EnMin= -1876.99468289124     IErMin= 1 ErrMin= 7.85D-05
 ErrMax= 7.85D-05 EMaxC= 1.00D-01 BMatC= 1.91D-06 BMatP= 1.91D-06
 IDIUse=1 WtCom= 1.00D+00 WtEn= 0.00D+00
 Coeff-Com:  0.100D+01
 Coeff:      0.100D+01
 Gap=     0.354 Goal=   None    Shift=    0.000
 RMSDP=3.04D-06 MaxDP=1.03D-04 DE=-3.89D-06 OVMax= 1.58D-04

 Cycle  11  Pass 1  IDiag  1:
 RMSU=  3.92D-05    CP:  1.00D+00
 E= -1876.99468484225     Delta-E=       -0.000001951004 Rises=F Damp=F
 DIIS: error= 8.42D-06 at cycle   2 NSaved=   2.
 NSaved= 2 IEnMin= 2 EnMin= -1876.99468484225     IErMin= 2 ErrMin= 8.42D-06
 ErrMax= 8.42D-06 EMaxC= 1.00D-01 BMatC= 1.73D-08 BMatP= 1.91D-06
 IDIUse=1 WtCom= 1.00D+00 WtEn= 0.00D+00
 Coeff-Com: -0.421D-01 0.104D+01
 Coeff:     -0.421D-01 0.104D+01
 Gap=     0.354 Goal=   None    Shift=    0.000
 RMSDP=3.06D-06 MaxDP=6.63D-05 DE=-1.95D-06 OVMax= 7.34D-05

 Cycle  12  Pass 1  IDiag  1:
 RMSU=  7.65D-07    CP:  1.00D+00  1.05D+00
 E= -1876.99468488779     Delta-E=       -0.000000045542 Rises=F Damp=F
 DIIS: error= 4.79D-06 at cycle   3 NSaved=   3.
 NSaved= 3 IEnMin= 3 EnMin= -1876.99468488779     IErMin= 3 ErrMin= 4.79D-06
 ErrMax= 4.79D-06 EMaxC= 1.00D-01 BMatC= 5.54D-09 BMatP= 1.73D-08
 IDIUse=1 WtCom= 1.00D+00 WtEn= 0.00D+00
 Coeff-Com: -0.136D-01 0.226D+00 0.788D+00
 Coeff:     -0.136D-01 0.226D+00 0.788D+00
 Gap=     0.354 Goal=   None    Shift=    0.000
 RMSDP=3.73D-07 MaxDP=1.45D-05 DE=-4.55D-08 OVMax= 3.86D-05

 Cycle  13  Pass 1  IDiag  1:
 RMSU=  2.50D-07    CP:  1.00D+00  1.05D+00  1.09D+00
 E= -1876.99468490136     Delta-E=       -0.000000013571 Rises=F Damp=F
 DIIS: error= 3.77D-06 at cycle   4 NSaved=   4.
 NSaved= 4 IEnMin= 4 EnMin= -1876.99468490136     IErMin= 4 ErrMin= 3.77D-06
 ErrMax= 3.77D-06 EMaxC= 1.00D-01 BMatC= 2.19D-09 BMatP= 5.54D-09
 IDIUse=1 WtCom= 1.00D+00 WtEn= 0.00D+00
 Coeff-Com:  0.220D-01-0.532D+00-0.417D-01 0.155D+01
 Coeff:      0.220D-01-0.532D+00-0.417D-01 0.155D+01
 Gap=     0.354 Goal=   None    Shift=    0.000
 RMSDP=5.90D-07 MaxDP=1.64D-05 DE=-1.36D-08 OVMax= 6.03D-05

 Cycle  14  Pass 1  IDiag  1:
 RMSU=  2.36D-07    CP:  1.00D+00  1.05D+00  1.48D+00  1.68D+00
 E= -1876.99468491334     Delta-E=       -0.000000011979 Rises=F Damp=F
 DIIS: error= 1.48D-06 at cycle   5 NSaved=   5.
 NSaved= 5 IEnMin= 5 EnMin= -1876.99468491334     IErMin= 5 ErrMin= 1.48D-06
 ErrMax= 1.48D-06 EMaxC= 1.00D-01 BMatC= 1.98D-10 BMatP= 2.19D-09
 IDIUse=1 WtCom= 1.00D+00 WtEn= 0.00D+00
 Coeff-Com:  0.475D-02-0.999D-01-0.124D+00 0.204D+00 0.101D+01
 Coeff:      0.475D-02-0.999D-01-0.124D+00 0.204D+00 0.101D+01
 Gap=     0.354 Goal=   None    Shift=    0.000
 RMSDP=1.61D-07 MaxDP=4.00D-06 DE=-1.20D-08 OVMax= 1.83D-05

 Cycle  15  Pass 1  IDiag  1:
 RMSU=  5.09D-08    CP:  1.00D+00  1.05D+00  1.54D+00  1.92D+00  1.28D+00
 E= -1876.99468491423     Delta-E=       -0.000000000893 Rises=F Damp=F
 DIIS: error= 5.77D-07 at cycle   6 NSaved=   6.
 NSaved= 6 IEnMin= 6 EnMin= -1876.99468491423     IErMin= 6 ErrMin= 5.77D-07
 ErrMax= 5.77D-07 EMaxC= 1.00D-01 BMatC= 3.93D-11 BMatP= 1.98D-10
 IDIUse=1 WtCom= 1.00D+00 WtEn= 0.00D+00
 Coeff-Com: -0.212D-02 0.556D-01-0.371D-01-0.174D+00 0.292D+00 0.865D+00
 Coeff:     -0.212D-02 0.556D-01-0.371D-01-0.174D+00 0.292D+00 0.865D+00
 Gap=     0.354 Goal=   None    Shift=    0.000
 RMSDP=5.06D-08 MaxDP=1.21D-06 DE=-8.93D-10 OVMax= 5.82D-06

 Cycle  16  Pass 1  IDiag  1:
 RMSU=  2.09D-08    CP:  1.00D+00  1.05D+00  1.54D+00  1.98D+00  1.38D+00
                    CP:  1.01D+00
 E= -1876.99468491437     Delta-E=       -0.000000000136 Rises=F Damp=F
 DIIS: error= 2.03D-07 at cycle   7 NSaved=   7.
 NSaved= 7 IEnMin= 7 EnMin= -1876.99468491437     IErMin= 7 ErrMin= 2.03D-07
 ErrMax= 2.03D-07 EMaxC= 1.00D-01 BMatC= 5.99D-12 BMatP= 3.93D-11
 IDIUse=1 WtCom= 1.00D+00 WtEn= 0.00D+00
 Coeff-Com: -0.609D-03 0.124D-01 0.110D-01-0.103D-01-0.171D+00-0.323D-01
 Coeff-Com:  0.119D+01
 Coeff:     -0.609D-03 0.124D-01 0.110D-01-0.103D-01-0.171D+00-0.323D-01
 Coeff:      0.119D+01
 Gap=     0.354 Goal=   None    Shift=    0.000
 RMSDP=2.32D-08 MaxDP=6.27D-07 DE=-1.36D-10 OVMax= 2.44D-06

 Cycle  17  Pass 1  IDiag  1:
 RMSU=  8.49D-09    CP:  1.00D+00  1.05D+00  1.55D+00  2.00D+00  1.39D+00
                    CP:  1.19D+00  1.37D+00
 E= -1876.99468491437     Delta-E=       -0.000000000006 Rises=F Damp=F
 DIIS: error= 9.61D-08 at cycle   8 NSaved=   8.
 NSaved= 8 IEnMin= 8 EnMin= -1876.99468491437     IErMin= 8 ErrMin= 9.61D-08
 ErrMax= 9.61D-08 EMaxC= 1.00D-01 BMatC= 1.31D-12 BMatP= 5.99D-12
 IDIUse=1 WtCom= 1.00D+00 WtEn= 0.00D+00
 Coeff-Com:  0.351D-03-0.101D-01 0.931D-02 0.448D-01-0.118D+00-0.214D+00
 Coeff-Com:  0.303D+00 0.984D+00
 Coeff:      0.351D-03-0.101D-01 0.931D-02 0.448D-01-0.118D+00-0.214D+00
 Coeff:      0.303D+00 0.984D+00
 Gap=     0.354 Goal=   None    Shift=    0.000
 RMSDP=1.02D-08 MaxDP=2.74D-07 DE=-6.37D-12 OVMax= 1.09D-06

 Cycle  18  Pass 1  IDiag  1:
 RMSU=  3.98D-09    CP:  1.00D+00  1.05D+00  1.55D+00  2.01D+00  1.39D+00
                    CP:  1.24D+00  1.60D+00  1.20D+00
 E= -1876.99468491439     Delta-E=       -0.000000000021 Rises=F Damp=F
 DIIS: error= 2.25D-08 at cycle   9 NSaved=   9.
 NSaved= 9 IEnMin= 9 EnMin= -1876.99468491439     IErMin= 9 ErrMin= 2.25D-08
 ErrMax= 2.25D-08 EMaxC= 1.00D-01 BMatC= 1.32D-13 BMatP= 1.31D-12
 IDIUse=1 WtCom= 1.00D+00 WtEn= 0.00D+00
 Coeff-Com:  0.109D-03-0.275D-02-0.238D-03 0.952D-02-0.926D-02-0.336D-01
 Coeff-Com: -0.431D-01 0.188D+00 0.891D+00
 Coeff:      0.109D-03-0.275D-02-0.238D-03 0.952D-02-0.926D-02-0.336D-01
 Coeff:     -0.431D-01 0.188D+00 0.891D+00
 Gap=     0.354 Goal=   None    Shift=    0.000
 RMSDP=2.69D-09 MaxDP=8.59D-08 DE=-2.09D-11 OVMax= 3.05D-07

 SCF Done:  E(RHF) =  -1876.99468491     A.U. after   18 cycles
             Convg  =    0.2686D-08             -V/T =  2.0002
 KE= 1.876638381887D+03 PE=-1.109394852416D+04 EE= 3.995126558200D+03
 Leave Link  502 at Sat Aug 27 08:11:00 2022, MaxMem=  209715200 cpu:     775.5
 (Enter /opt/gaussian/l601.exe)
 Copying SCF densities to generalized density rwf, IOpCl= 0 IROHF=0.

 **********************************************************************

            Population analysis using the SCF density.

 **********************************************************************

 Orbital symmetries:
       Occupied  (A) (A) (A) (A) (A) (A) (A) (A) (A) (A) (A) (A)
                 (A) (A) (A) (A) (A) (A) (A) (A) (A) (A) (A) (A)
                 (A) (A) (A) (A) (A) (A) (A) (A) (A) (A) (A) (A)
                 (A) (A) (A) (A) (A) (A) (A) (A) (A) (A) (A) (A)
                 (A) (A) (A) (A) (A) (A) (A) (A) (A) (A) (A) (A)
                 (A) (A) (A) (A) (A) (A) (A) (A) (A) (A) (A) (A)
                 (A) (A) (A) (A) (A) (A) (A) (A) (A) (A) (A) (A)
                 (A) (A) (A) (A) (A) (A) (A) (A) (A) (A) (A) (A)
                 (A) (A) (A) (A) (A) (A) (A) (A) (A) (A) (A) (A)
                 (A) (A) (A) (A) (A) (A) (A) (A) (A) (A) (A) (A)
                 (A) (A)
       Virtual   (A) (A) (A) (A) (A) (A) (A) (A) (A) (A) (A) (A)
                 (A) (A) (A) (A) (A) (A) (A) (A) (A) (A) (A) (A)
                 (A) (A) (A) (A) (A) (A) (A) (A) (A) (A) (A) (A)
                 (A) (A) (A) (A) (A) (A) (A) (A) (A) (A) (A) (A)
                 (A) (A) (A) (A) (A) (A) (A) (A) (A) (A) (A) (A)
                 (A) (A) (A) (A) (A) (A) (A) (A) (A) (A) (A) (A)
                 (A) (A) (A) (A) (A) (A) (A) (A) (A) (A) (A) (A)
                 (A) (A) (A) (A) (A) (A) (A) (A) (A) (A) (A) (A)
                 (A) (A) (A) (A) (A) (A) (A) (A) (A) (A) (A) (A)
                 (A) (A) (A) (A) (A) (A) (A) (A) (A) (A) (A) (A)
                 (A) (A) (A) (A) (A) (A) (A) (A) (A) (A) (A) (A)
                 (A) (A) (A) (A) (A) (A) (A) (A) (A) (A) (A) (A)
                 (A) (A) (A) (A) (A) (A) (A) (A) (A) (A) (A) (A)
                 (A) (A) (A) (A) (A) (A) (A) (A) (A) (A) (A) (A)
                 (A) (A) (A) (A) (A) (A) (A) (A) (A) (A) (A) (A)
                 (A) (A) (A) (A) (A) (A) (A) (A) (A) (A) (A) (A)
                 (A) (A) (A) (A) (A) (A) (A) (A) (A) (A) (A) (A)
                 (A) (A) (A) (A) (A) (A) (A) (A) (A) (A) (A) (A)
                 (A) (A) (A) (A) (A) (A) (A) (A) (A) (A) (A) (A)
 The electronic state is 1-A.
 Alpha  occ. eigenvalues -- -104.83792 -20.55429 -20.52285 -15.67229 -15.65798
 Alpha  occ. eigenvalues --  -15.63763 -15.62529 -15.62281 -11.39563 -11.37975
 Alpha  occ. eigenvalues --  -11.33418 -11.32859 -11.32847 -11.31564 -11.30881
 Alpha  occ. eigenvalues --  -11.29521 -11.28850 -11.28390 -11.28337 -11.28012
 Alpha  occ. eigenvalues --  -11.27991 -11.27787 -11.27404 -11.26676 -11.26667
 Alpha  occ. eigenvalues --  -11.26604 -11.26528 -11.25817 -11.25382 -11.25131
 Alpha  occ. eigenvalues --  -11.24884 -11.24739 -11.23738 -11.23529 -10.58023
 Alpha  occ. eigenvalues --   -8.04898  -8.04444  -8.04433  -1.46455  -1.41050
 Alpha  occ. eigenvalues --   -1.38984  -1.28785  -1.28178  -1.24580  -1.22475
 Alpha  occ. eigenvalues --   -1.17284  -1.16767  -1.15466  -1.12141  -1.07893
 Alpha  occ. eigenvalues --   -1.06017  -1.05174  -1.04526  -1.02473  -1.02208
 Alpha  occ. eigenvalues --   -1.01778  -0.99579  -0.96497  -0.90440  -0.88822
 Alpha  occ. eigenvalues --   -0.88047  -0.86134  -0.85197  -0.84835  -0.83517
 Alpha  occ. eigenvalues --   -0.82472  -0.80389  -0.76909  -0.75424  -0.73120
 Alpha  occ. eigenvalues --   -0.72208  -0.72136  -0.71244  -0.70776  -0.70225
 Alpha  occ. eigenvalues --   -0.68332  -0.67978  -0.66615  -0.65762  -0.65616
 Alpha  occ. eigenvalues --   -0.64606  -0.64463  -0.63022  -0.62730  -0.61913
 Alpha  occ. eigenvalues --   -0.61425  -0.60896  -0.60672  -0.60521  -0.60196
 Alpha  occ. eigenvalues --   -0.59258  -0.58201  -0.57943  -0.56612  -0.55916
 Alpha  occ. eigenvalues --   -0.55470  -0.55188  -0.53857  -0.53486  -0.52826
 Alpha  occ. eigenvalues --   -0.52607  -0.51698  -0.50965  -0.50730  -0.49824
 Alpha  occ. eigenvalues --   -0.49337  -0.48228  -0.47806  -0.47105  -0.45509
 Alpha  occ. eigenvalues --   -0.44258  -0.42349  -0.41983  -0.41444  -0.40952
 Alpha  occ. eigenvalues --   -0.36661  -0.35450  -0.33990  -0.33819  -0.33408
 Alpha  occ. eigenvalues --   -0.32826  -0.28196
 Alpha virt. eigenvalues --    0.07251   0.09233   0.09779   0.10492   0.13003
 Alpha virt. eigenvalues --    0.14197   0.14481   0.15449   0.17408   0.18819
 Alpha virt. eigenvalues --    0.19859   0.20395   0.21190   0.22478   0.23864
 Alpha virt. eigenvalues --    0.23951   0.24942   0.25592   0.26166   0.27186
 Alpha virt. eigenvalues --    0.27840   0.28090   0.28632   0.29675   0.29775
 Alpha virt. eigenvalues --    0.30541   0.31372   0.31763   0.31929   0.32821
 Alpha virt. eigenvalues --    0.33600   0.34350   0.34767   0.35605   0.36566
 Alpha virt. eigenvalues --    0.36678   0.37773   0.38717   0.39416   0.40196
 Alpha virt. eigenvalues --    0.40725   0.41536   0.42001   0.42180   0.43081
 Alpha virt. eigenvalues --    0.43768   0.44319   0.46007   0.47172   0.47644
 Alpha virt. eigenvalues --    0.48681   0.49130   0.49797   0.50953   0.51171
 Alpha virt. eigenvalues --    0.52089   0.52630   0.55054   0.55493   0.56401
 Alpha virt. eigenvalues --    0.57039   0.57790   0.58466   0.59297   0.60155
 Alpha virt. eigenvalues --    0.62172   0.62593   0.63407   0.65606   0.67141
 Alpha virt. eigenvalues --    0.70318   0.71403   0.71792   0.72400   0.72856
 Alpha virt. eigenvalues --    0.73466   0.73724   0.74249   0.75232   0.75682
 Alpha virt. eigenvalues --    0.75754   0.76331   0.76550   0.77194   0.77958
 Alpha virt. eigenvalues --    0.78390   0.78851   0.79448   0.80254   0.80463
 Alpha virt. eigenvalues --    0.81688   0.81875   0.82272   0.82899   0.83061
 Alpha virt. eigenvalues --    0.83498   0.84208   0.84413   0.85071   0.85153
 Alpha virt. eigenvalues --    0.85557   0.85602   0.85875   0.86019   0.86650
 Alpha virt. eigenvalues --    0.87267   0.87789   0.87930   0.88559   0.89159
 Alpha virt. eigenvalues --    0.89394   0.89879   0.90110   0.90782   0.91259
 Alpha virt. eigenvalues --    0.91450   0.92188   0.92534   0.93715   0.93819
 Alpha virt. eigenvalues --    0.95120   0.95227   0.95563   0.96545   0.97474
 Alpha virt. eigenvalues --    0.98195   0.99012   1.00250   1.01565   1.01785
 Alpha virt. eigenvalues --    1.02135   1.03088   1.04101   1.05104   1.06705
 Alpha virt. eigenvalues --    1.06872   1.07635   1.08582   1.08867   1.09311
 Alpha virt. eigenvalues --    1.09539   1.10255   1.10444   1.11882   1.12160
 Alpha virt. eigenvalues --    1.12508   1.12790   1.13110   1.13500   1.14062
 Alpha virt. eigenvalues --    1.14213   1.15378   1.15828   1.16576   1.17288
 Alpha virt. eigenvalues --    1.18029   1.19351   1.19783   1.20775   1.21641
 Alpha virt. eigenvalues --    1.22034   1.22475   1.23623   1.24175   1.24684
 Alpha virt. eigenvalues --    1.25843   1.26789   1.27305   1.28276   1.28947
 Alpha virt. eigenvalues --    1.29936   1.30220   1.30846   1.31101   1.33073
 Alpha virt. eigenvalues --    1.33664   1.34098   1.35323   1.35790   1.36371
 Alpha virt. eigenvalues --    1.37927   1.38276   1.39443   1.40994   1.41238
 Alpha virt. eigenvalues --    1.41506   1.41921   1.42698   1.43569   1.44505
 Alpha virt. eigenvalues --    1.45304   1.46037   1.47475   1.48823   1.49747
 Alpha virt. eigenvalues --    1.50632   1.51565   1.53576   1.55038   1.56519
 Alpha virt. eigenvalues --    1.58102   1.59010   1.59971   1.61596   1.64778
 Alpha virt. eigenvalues --    1.65474   1.66534   1.67951   1.69863   1.70549
 Alpha virt. eigenvalues --    1.72706   1.74088   1.75914   1.77447   1.79141
 Alpha virt. eigenvalues --    1.79766   1.85662   1.87465   1.96900   2.01216
 Alpha virt. eigenvalues --    2.02922   2.06034   2.12630   2.16891   2.23716
 Alpha virt. eigenvalues --    2.25406   2.33481   2.43450
          Condensed to atoms (all electrons):
 Mulliken atomic charges:
              1
     1  Cl   0.166020
     2  C   -0.374948
     3  C   -0.145612
     4  C   -0.198327
     5  C   -0.222563
     6  C   -0.013933
     7  C   -0.152048
     8  C   -0.127205
     9  N   -0.979072
    10  C    0.779305
    11  O   -0.575510
    12  C   -0.144694
    13  N   -0.795974
    14  N    0.124931
    15  N   -0.314102
    16  C    0.034446
    17  C   -0.104541
    18  C   -0.232541
    19  C   -0.205916
    20  C   -0.124799
    21  C    0.379610
    22  C    0.338446
    23  C   -0.226004
    24  C   -0.201405
    25  C   -0.013124
    26  C   -0.171007
    27  C   -0.162624
    28  C   -0.158849
    29  C   -0.113321
    30  C   -0.317223
    31  C    0.224663
    32  N   -0.969128
    33  C    0.798875
    34  O   -0.635586
    35  H    0.241039
    36  H    0.223485
    37  H    0.247527
    38  H    0.243720
    39  H    0.202368
    40  H    0.228748
    41  H    0.228998
    42  H    0.251003
    43  H    0.247654
    44  H    0.209447
    45  H    0.208539
    46  H    0.236240
    47  H    0.223026
    48  H    0.209016
    49  H    0.265060
    50  H    0.258084
    51  H    0.238773
    52  H    0.220334
    53  H    0.240719
    54  H    0.409977
 Sum of Mulliken atomic charges =   0.00000
 Mulliken charges with hydrogens summed into heavy atoms:
              1
     1  Cl   0.166020
     2  C   -0.374948
     3  C    0.095428
     4  C    0.025158
     5  C    0.024965
     6  C   -0.013933
     7  C    0.091672
     8  C    0.303910
     9  N   -0.979072
    10  C    0.779305
    11  O   -0.575510
    12  C    0.335307
    13  N   -0.795974
    14  N    0.124931
    15  N   -0.314102
    16  C    0.034446
    17  C    0.143112
    18  C   -0.023094
    19  C    0.002623
    20  C    0.111441
    21  C    0.379610
    22  C    0.338446
    23  C   -0.002978
    24  C    0.007611
    25  C   -0.013124
    26  C    0.094053
    27  C    0.095460
    28  C   -0.158849
    29  C    0.125453
    30  C   -0.096889
    31  C    0.465382
    32  N   -0.559151
    33  C    0.798875
    34  O   -0.635586
 Sum of Mulliken charges with hydrogens summed into heavy atoms =   0.00000
 Electronic spatial extent (au):  <R**2>=          22058.6520
 Charge=              0.0000 electrons
 Dipole moment (field-independent basis, Debye):
    X=              2.9885    Y=              6.5387    Z=              6.0556  Tot=              9.3997
 Quadrupole moment (field-independent basis, Debye-Ang):
   XX=           -157.3136   YY=           -237.2691   ZZ=           -197.5391
   XY=             -4.9128   XZ=              8.5007   YZ=            -12.2624
 Traceless Quadrupole moment (field-independent basis, Debye-Ang):
   XX=             40.0603   YY=            -39.8951   ZZ=             -0.1652
   XY=             -4.9128   XZ=              8.5007   YZ=            -12.2624
 Octapole moment (field-independent basis, Debye-Ang**2):
  XXX=            561.8445  YYY=              7.1076  ZZZ=             23.4811  XYY=             60.0501
  XXY=            -21.7534  XXZ=            255.4931  XZZ=            -38.7517  YZZ=             44.8414
  YYZ=             65.1722  XYZ=             33.4239
 Hexadecapole moment (field-independent basis, Debye-Ang**3):
 XXXX=         -14945.5722 YYYY=          -8913.8647 ZZZZ=          -1954.8851 XXXY=           -507.0902
 XXXZ=            664.6091 YYYX=            -58.6111 YYYZ=           -183.6496 ZZZX=              2.7312
 ZZZY=            -30.5262 XXYY=          -4878.2149 XXZZ=          -3593.5900 YYZZ=          -1700.8928
 XXYZ=           -310.9569 YYXZ=           -313.7884 ZZXY=             10.3585
 N-N= 3.345188899155D+03 E-N=-1.109394852088D+04  KE= 1.876638381887D+03
 No NMR shielding tensors so no spin-rotation constants.
 Leave Link  601 at Sat Aug 27 08:11:00 2022, MaxMem=  209715200 cpu:       1.5
 (Enter /opt/gaussian/l701.exe)
 Compute integral first derivatives.
 ... and contract with generalized density number  0.
 Leave Link  701 at Sat Aug 27 08:11:00 2022, MaxMem=  209715200 cpu:       1.3
 (Enter /opt/gaussian/l702.exe)
 L702 exits ... SP integral derivatives will be done elsewhere.
 Leave Link  702 at Sat Aug 27 08:11:00 2022, MaxMem=  209715200 cpu:       0.2
 (Enter /opt/gaussian/l703.exe)
 Compute integral first derivatives, UseDBF=F ICtDFT=           0.
 Integral derivatives from FoFDir, PRISM(SPDF).
 Calling FoFJK, ICntrl=      2127 FMM=F ISym2X=0 I1Cent= 0 IOpClX= 0 NMat=1 NMatS=1 NMatT=0.
 FoFCou: FMM=F IPFlag=           0 FMFlag=      100000 FMFlg1=         800
         NFxFlg=           0 DoJE=F BraDBF=F KetDBF=F FulRan=T
         Omega=  0.000000  0.000000  1.000000  0.000000  0.000000 ICntrl=    2127 IOpCl=  0
         NMat0=    1 NMatS0=    1 NMatT0=    0 NMatD0=    1 NMtDS0=    0 NMtDT0=    0
         I1Cent=           0 NGrid=           0.
 Symmetry not used in FoFCou.
 Leave Link  703 at Sat Aug 27 08:11:35 2022, MaxMem=  209715200 cpu:     280.4
 (Enter /opt/gaussian/l716.exe)
 Dipole        = 1.17575251D+00 2.57251358D+00 2.38244908D+00
 ***** Axes restored to original set *****
 -------------------------------------------------------------------
 Center     Atomic                   Forces (Hartrees/Bohr)
 Number     Number              X              Y              Z
 -------------------------------------------------------------------
      1       17           0.019435916   -0.052737419   -0.012685042
      2        6          -0.022568076    0.060773197    0.013452440
      3        6           0.003917643   -0.004785524    0.003978157
      4        6           0.002381087    0.002287039    0.009593131
      5        6          -0.004708532    0.008665499    0.003180132
      6        6           0.005634169   -0.007942331    0.010522820
      7        6           0.002529375   -0.003299676    0.001721730
      8        6           0.002320781   -0.016559260   -0.043943167
      9        7           0.015894914    0.018681972    0.013573326
     10        6          -0.023458131    0.016813504    0.004021291
     11        8           0.024530935   -0.027526213   -0.008292557
     12        6           0.010032562   -0.020288489   -0.020271319
     13        7          -0.000579812    0.010392516    0.051996155
     14        7          -0.002585135   -0.011034655   -0.012970200
     15        7           0.008554269   -0.008015807    0.028897739
     16        6          -0.013531669   -0.043927668   -0.017324548
     17        6           0.000093475    0.011476579   -0.004175233
     18        6           0.006180630    0.008900950    0.010851329
     19        6           0.000842175   -0.008987190    0.008236699
     20        6          -0.004911863   -0.011154133   -0.003947152
     21        6           0.007144088    0.041699430   -0.020400771
     22        6          -0.026613309    0.003335246    0.005244647
     23        6           0.014619446   -0.000257127   -0.002058187
     24        6          -0.003321504   -0.004678807    0.003161979
     25        6           0.018283264   -0.001346750   -0.005383060
     26        6          -0.004449474    0.011167339   -0.003939839
     27        6           0.008681536    0.005068512   -0.005616288
     28        6          -0.019607119   -0.001624823    0.008217376
     29        6           0.005586033    0.001073373   -0.003479568
     30        6          -0.025309390    0.000356039    0.000580603
     31        6          -0.008887667   -0.008874770    0.018262323
     32        7           0.028807715   -0.011630782    0.020636582
     33        6          -0.022266014    0.008659229   -0.014961251
     34        8           0.001764977   -0.009124104    0.016659441
     35        1          -0.010720095    0.009700405   -0.015159005
     36        1          -0.003494055   -0.008507020   -0.017614390
     37        1           0.004930052   -0.020097988   -0.005468642
     38        1           0.004361150    0.006454871    0.018556417
     39        1          -0.021525706   -0.009206346    0.018338188
     40        1           0.022429515    0.022806794    0.008206585
     41        1          -0.011860957    0.026110788   -0.019697006
     42        1           0.000268677    0.000693658    0.029773738
     43        1          -0.004345186   -0.019487648   -0.001224473
     44        1          -0.008576419   -0.007316943   -0.016738977
     45        1          -0.004199518    0.011336422   -0.015867703
     46        1           0.006849326    0.020100296    0.001379138
     47        1          -0.013854480    0.015962921   -0.005469531
     48        1           0.006955890    0.015651140   -0.010693511
     49        1           0.016546178   -0.018384125    0.005871431
     50        1          -0.007479698   -0.021429173    0.011743452
     51        1          -0.013621527    0.009295530   -0.014517558
     52        1           0.002514728    0.008718200   -0.017419524
     53        1           0.023921655    0.001532219   -0.005400924
     54        1           0.006463177    0.000511101   -0.001937423
 -------------------------------------------------------------------
 Cartesian Forces:  Max     0.060773197 RMS     0.015862892
 Leave Link  716 at Sat Aug 27 08:11:35 2022, MaxMem=  209715200 cpu:       0.2
 (Enter /opt/gaussian/l103.exe)

 GradGradGradGradGradGradGradGradGradGradGradGradGradGradGradGradGradGrad
 Berny optimization.
 Internal  Forces:  Max     0.057618066 RMS     0.010058101
 Search for a local minimum.
 Step number   1 out of a maximum of  304
 All quantities printed in internal units (Hartrees-Bohrs-Radians)
 RMS Force = .10058D-01 SwitMx=.10000D-02 MixMth= 1
 Mixed Optimization -- RFO/linear search
 Second derivative matrix not updated -- first step.
 ITU=  0
     Eigenvalues ---    0.00230   0.00684   0.00819   0.01125   0.01187
     Eigenvalues ---    0.01299   0.01325   0.01392   0.01419   0.01512
     Eigenvalues ---    0.01532   0.01583   0.01637   0.01660   0.01694
     Eigenvalues ---    0.01721   0.01770   0.01772   0.01813   0.01842
     Eigenvalues ---    0.01978   0.01998   0.02051   0.02057   0.02058
     Eigenvalues ---    0.02074   0.02090   0.02091   0.02105   0.02109
     Eigenvalues ---    0.02118   0.02123   0.02126   0.02126   0.02128
     Eigenvalues ---    0.02138   0.02142   0.02153   0.02156   0.02158
     Eigenvalues ---    0.02159   0.02170   0.02179   0.02183   0.02185
     Eigenvalues ---    0.02257   0.02307   0.04543   0.04821   0.06491
     Eigenvalues ---    0.06502   0.10282   0.10861   0.13450   0.13784
     Eigenvalues ---    0.15995   0.15998   0.15999   0.15999   0.16000
     Eigenvalues ---    0.16000   0.16000   0.16000   0.16000   0.16000
     Eigenvalues ---    0.16000   0.16000   0.16000   0.16000   0.16000
     Eigenvalues ---    0.16000   0.22000   0.22000   0.22000   0.22000
     Eigenvalues ---    0.22097   0.22151   0.22483   0.22581   0.22957
     Eigenvalues ---    0.23289   0.23478   0.23494   0.23996   0.24434
     Eigenvalues ---    0.24452   0.24659   0.24702   0.24788   0.24965
     Eigenvalues ---    0.24985   0.24991   0.24994   0.24998   0.25000
     Eigenvalues ---    0.25000   0.25000   0.25000   0.28454   0.30398
     Eigenvalues ---    0.30438   0.30641   0.30644   0.31736   0.33097
     Eigenvalues ---    0.33358   0.33402   0.33449   0.33485   0.33506
     Eigenvalues ---    0.33547   0.33559   0.33596   0.33598   0.33598
     Eigenvalues ---    0.33640   0.33752   0.33768   0.34072   0.34513
     Eigenvalues ---    0.35024   0.35990   0.37247   0.38256   0.39197
     Eigenvalues ---    0.39842   0.39867   0.40889   0.41541   0.41834
     Eigenvalues ---    0.41936   0.42042   0.42060   0.42767   0.43071
     Eigenvalues ---    0.43127   0.44507   0.44664   0.45651   0.45669
     Eigenvalues ---    0.45959   0.46010   0.46019   0.46322   0.46620
     Eigenvalues ---    0.46806   0.46896   0.47189   0.47359   0.48204
     Eigenvalues ---    0.48287   0.49819   0.50923   0.77170   0.84466
     Eigenvalues ---    0.86752
 RFO step:  Lambda=-7.42627368D-02 EMin= 2.30000000D-03
 Linear search not attempted -- first point.
 Maximum step size (   0.300) exceeded in Quadratic search.
    -- Step size scaled by   0.732
 Iteration  1 RMS(Cart)=  0.16214573 RMS(Int)=  0.00323688
 Iteration  2 RMS(Cart)=  0.00967921 RMS(Int)=  0.00011501
 Iteration  3 RMS(Cart)=  0.00002607 RMS(Int)=  0.00011461
[...]
 ! D141  D(54,32,33,34)          0.5229         -DE/DX =    0.0                 !
 --------------------------------------------------------------------------------
 GradGradGradGradGradGradGradGradGradGradGradGradGradGradGradGradGradGrad

 Largest change from initial coordinates is atom   45       0.778 Angstoms.
 Leave Link  103 at Sat Aug 27 08:48:36 2022, MaxMem=  209715200 cpu:       0.8
 (Enter /opt/gaussian/l202.exe)
 Stoichiometry    C26H20ClN5O2
 Framework group  C1[X(C26H20ClN5O2)]
 Deg. of freedom   156
 Full point group                 C1      NOp   1
 RotChk:  IX=0 Diff= 5.14D-16
 Largest Abelian subgroup         C1      NOp   1
 Largest concise Abelian subgroup C1      NOp   1
                         Standard orientation:                         
 ---------------------------------------------------------------------
 Center     Atomic      Atomic             Coordinates (Angstroms)
 Number     Number       Type             X           Y           Z
 ---------------------------------------------------------------------
      1         17           0       -3.530437    5.800192   -0.596653
      2          6           0       -2.696852    4.340741    0.070237
      3          6           0       -2.768927    4.087700    1.425951
      4          6           0       -2.126943    2.963630    1.919140
      5          6           0       -1.427689    2.116666    1.067989
      6          6           0       -1.362155    2.384044   -0.294033
      7          6           0       -2.012442    3.512173   -0.791349
      8          6           0       -0.592818    1.508941   -1.274245
      9          7           0       -0.153923    0.213264   -0.754117
     10          6           0       -1.015787   -0.840684   -0.582620
     11          8           0       -0.682459   -1.885484   -0.046376
     12          6           0       -2.438678   -0.657408   -1.097624
     13          7           0       -3.225807   -1.841735   -0.944219
     14          7           0       -3.444980   -2.647571   -2.022133
     15          7           0       -4.129390   -3.653556   -1.666506
     16          6           0       -4.390394   -3.561173   -0.308625
     17          6           0       -5.101324   -4.409733    0.538968
     18          6           0       -5.195905   -4.044961    1.859494
     19          6           0       -4.590848   -2.858829    2.332095
     20          6           0       -3.886015   -2.018726    1.503734
     21          6           0       -3.798953   -2.395333    0.161063
     22          6           0        1.243737    0.049537   -0.457495
     23          6           0        1.906321    0.980610    0.327125
     24          6           0        3.268028    0.854347    0.559085
     25          6           0        3.994293   -0.207631    0.029357
     26          6           0        3.316242   -1.132347   -0.767595
     27          6           0        1.961576   -1.005456   -1.008912
     28          6           0        5.438121   -0.353778    0.338035
     29          6           0        5.927565   -0.134007    1.583846
     30          6           0        7.319102   -0.241245    1.898965
     31          6           0        8.166314   -0.581691    0.913839
     32          7           0        7.687514   -0.817009   -0.343760
     33          6           0        6.363869   -0.739129   -0.722918
     34          8           0        6.056337   -0.991476   -1.892619
     35          1           0       -3.310270    4.746304    2.073051
     36          1           0       -2.169726    2.747592    2.968737
     37          1           0       -0.933140    1.253786    1.467928
     38          1           0       -1.984566    3.741298   -1.838746
     39          1           0       -1.190110    1.368678   -2.166960
     40          1           0        0.296786    2.032781   -1.592502
     41          1           0       -2.920080    0.168243   -0.591823
     42          1           0       -2.420451   -0.436870   -2.154744
     43          1           0       -5.549066   -5.306366    0.160582
     44          1           0       -5.731261   -4.665622    2.550471
     45          1           0       -4.681973   -2.613275    3.372468
     46          1           0       -3.416882   -1.130495    1.876102
     47          1           0        1.375677    1.809136    0.752323
     48          1           0        3.765898    1.602834    1.144869
     49          1           0        3.854864   -1.938172   -1.218470
     50          1           0        1.460324   -1.733935   -1.611160
     51          1           0        5.246426    0.118075    2.373250
     52          1           0        7.670420   -0.060632    2.892500
     53          1           0        9.222162   -0.689420    1.047172
     54          1           0        8.310838   -1.072798   -1.075895
 ---------------------------------------------------------------------
 Rotational constants (GHZ):      0.1242705      0.0585960      0.0443524
 Leave Link  202 at Sat Aug 27 08:48:36 2022, MaxMem=  209715200 cpu:       0.0
 (Enter /opt/gaussian/l601.exe)
 Copying SCF densities to generalized density rwf, IOpCl= 0 IROHF=0.

 **********************************************************************

            Population analysis using the SCF density.

 **********************************************************************

 Orbital symmetries:
       Occupied  (A) (A) (A) (A) (A) (A) (A) (A) (A) (A) (A) (A)
                 (A) (A) (A) (A) (A) (A) (A) (A) (A) (A) (A) (A)
                 (A) (A) (A) (A) (A) (A) (A) (A) (A) (A) (A) (A)
                 (A) (A) (A) (A) (A) (A) (A) (A) (A) (A) (A) (A)
                 (A) (A) (A) (A) (A) (A) (A) (A) (A) (A) (A) (A)
                 (A) (A) (A) (A) (A) (A) (A) (A) (A) (A) (A) (A)
                 (A) (A) (A) (A) (A) (A) (A) (A) (A) (A) (A) (A)
                 (A) (A) (A) (A) (A) (A) (A) (A) (A) (A) (A) (A)
                 (A) (A) (A) (A) (A) (A) (A) (A) (A) (A) (A) (A)
                 (A) (A) (A) (A) (A) (A) (A) (A) (A) (A) (A) (A)
                 (A) (A)
       Virtual   (A) (A) (A) (A) (A) (A) (A) (A) (A) (A) (A) (A)
                 (A) (A) (A) (A) (A) (A) (A) (A) (A) (A) (A) (A)
                 (A) (A) (A) (A) (A) (A) (A) (A) (A) (A) (A) (A)
                 (A) (A) (A) (A) (A) (A) (A) (A) (A) (A) (A) (A)
                 (A) (A) (A) (A) (A) (A) (A) (A) (A) (A) (A) (A)
                 (A) (A) (A) (A) (A) (A) (A) (A) (A) (A) (A) (A)
                 (A) (A) (A) (A) (A) (A) (A) (A) (A) (A) (A) (A)
                 (A) (A) (A) (A) (A) (A) (A) (A) (A) (A) (A) (A)
                 (A) (A) (A) (A) (A) (A) (A) (A) (A) (A) (A) (A)
                 (A) (A) (A) (A) (A) (A) (A) (A) (A) (A) (A) (A)
                 (A) (A) (A) (A) (A) (A) (A) (A) (A) (A) (A) (A)
                 (A) (A) (A) (A) (A) (A) (A) (A) (A) (A) (A) (A)
                 (A) (A) (A) (A) (A) (A) (A) (A) (A) (A) (A) (A)
                 (A) (A) (A) (A) (A) (A) (A) (A) (A) (A) (A) (A)
                 (A) (A) (A) (A) (A) (A) (A) (A) (A) (A) (A) (A)
                 (A) (A) (A) (A) (A) (A) (A) (A) (A) (A) (A) (A)
                 (A) (A) (A) (A) (A) (A) (A) (A) (A) (A) (A) (A)
                 (A) (A) (A) (A) (A) (A) (A) (A) (A) (A) (A) (A)
                 (A) (A) (A) (A) (A) (A) (A) (A) (A) (A) (A) (A)
 The electronic state is 1-A.
 Alpha  occ. eigenvalues -- -104.83109 -20.54910 -20.52294 -15.66275 -15.65379
 Alpha  occ. eigenvalues --  -15.63546 -15.62043 -15.61076 -11.38760 -11.37596
 Alpha  occ. eigenvalues --  -11.33549 -11.32258 -11.31117 -11.30874 -11.29401
 Alpha  occ. eigenvalues --  -11.29297 -11.28657 -11.27946 -11.27497 -11.27366
 Alpha  occ. eigenvalues --  -11.27221 -11.26747 -11.26607 -11.26450 -11.25640
 Alpha  occ. eigenvalues --  -11.25505 -11.25390 -11.25249 -11.25200 -11.24689
 Alpha  occ. eigenvalues --  -11.24559 -11.24053 -11.23835 -11.23672 -10.57032
 Alpha  occ. eigenvalues --   -8.03881  -8.03492  -8.03475  -1.47392  -1.42174
 Alpha  occ. eigenvalues --   -1.40039  -1.29252  -1.28612  -1.24840  -1.21576
 Alpha  occ. eigenvalues --   -1.17731  -1.17476  -1.13630  -1.12774  -1.08233
 Alpha  occ. eigenvalues --   -1.07051  -1.06201  -1.05054  -1.03146  -1.02707
 Alpha  occ. eigenvalues --   -1.02408  -1.00558  -0.97572  -0.90818  -0.88901
 Alpha  occ. eigenvalues --   -0.88709  -0.86605  -0.86007  -0.85038  -0.84372
 Alpha  occ. eigenvalues --   -0.83160  -0.81437  -0.77549  -0.76395  -0.73847
 Alpha  occ. eigenvalues --   -0.73043  -0.72288  -0.72044  -0.71623  -0.70824
 Alpha  occ. eigenvalues --   -0.69044  -0.68102  -0.67160  -0.66173  -0.65518
 Alpha  occ. eigenvalues --   -0.65294  -0.64025  -0.63750  -0.63204  -0.62407
 Alpha  occ. eigenvalues --   -0.62135  -0.61689  -0.61651  -0.61088  -0.60776
 Alpha  occ. eigenvalues --   -0.60082  -0.59361  -0.58919  -0.57071  -0.55886
 Alpha  occ. eigenvalues --   -0.55497  -0.55391  -0.53671  -0.53306  -0.52870
 Alpha  occ. eigenvalues --   -0.52120  -0.51581  -0.51287  -0.50511  -0.50102
 Alpha  occ. eigenvalues --   -0.49408  -0.48622  -0.47674  -0.46571  -0.44656
 Alpha  occ. eigenvalues --   -0.44066  -0.42957  -0.42285  -0.42172  -0.40996
 Alpha  occ. eigenvalues --   -0.36893  -0.36070  -0.34489  -0.34101  -0.33639
 Alpha  occ. eigenvalues --   -0.32025  -0.29655
 Alpha virt. eigenvalues --    0.07759   0.09927   0.10343   0.10939   0.13592
 Alpha virt. eigenvalues --    0.13932   0.15795   0.16184   0.16858   0.18102
 Alpha virt. eigenvalues --    0.20386   0.20783   0.21196   0.23336   0.24615
 Alpha virt. eigenvalues --    0.25035   0.25347   0.25821   0.26382   0.27699
 Alpha virt. eigenvalues --    0.28380   0.29020   0.29584   0.29751   0.30902
 Alpha virt. eigenvalues --    0.31079   0.31576   0.32277   0.32507   0.32912
 Alpha virt. eigenvalues --    0.33533   0.34392   0.35277   0.35763   0.36961
 Alpha virt. eigenvalues --    0.37474   0.38165   0.38964   0.40425   0.40719
 Alpha virt. eigenvalues --    0.41345   0.42091   0.42860   0.43567   0.43850
 Alpha virt. eigenvalues --    0.44767   0.45269   0.46843   0.47457   0.48170
 Alpha virt. eigenvalues --    0.49073   0.49473   0.49648   0.50988   0.52193
 Alpha virt. eigenvalues --    0.52848   0.53073   0.54588   0.54944   0.56266
 Alpha virt. eigenvalues --    0.58150   0.58821   0.59211   0.59558   0.60768
 Alpha virt. eigenvalues --    0.62346   0.63076   0.64452   0.64880   0.67486
 Alpha virt. eigenvalues --    0.70172   0.71114   0.71966   0.72261   0.73345
 Alpha virt. eigenvalues --    0.73763   0.74319   0.74702   0.75324   0.75533
 Alpha virt. eigenvalues --    0.75843   0.76054   0.76564   0.77632   0.78026
 Alpha virt. eigenvalues --    0.78811   0.78888   0.80219   0.80393   0.80993
 Alpha virt. eigenvalues --    0.81441   0.82122   0.82861   0.83230   0.83334
 Alpha virt. eigenvalues --    0.83958   0.84344   0.84472   0.84959   0.85366
 Alpha virt. eigenvalues --    0.85716   0.85869   0.86257   0.86498   0.86714
 Alpha virt. eigenvalues --    0.87162   0.87395   0.88215   0.88537   0.88732
 Alpha virt. eigenvalues --    0.89650   0.90043   0.90392   0.90907   0.91068
 Alpha virt. eigenvalues --    0.91356   0.92293   0.93128   0.93768   0.94400
 Alpha virt. eigenvalues --    0.95309   0.96055   0.96672   0.96872   0.97599
 Alpha virt. eigenvalues --    0.98418   0.99149   1.00544   1.00935   1.01493
 Alpha virt. eigenvalues --    1.02073   1.03082   1.03581   1.05878   1.06691
 Alpha virt. eigenvalues --    1.07804   1.08598   1.10132   1.10488   1.10749
 Alpha virt. eigenvalues --    1.11521   1.11895   1.12199   1.12653   1.13449
 Alpha virt. eigenvalues --    1.14036   1.14367   1.14566   1.14955   1.15304
 Alpha virt. eigenvalues --    1.16222   1.16601   1.17067   1.17468   1.18087
 Alpha virt. eigenvalues --    1.18697   1.19209   1.19690   1.20470   1.21338
 Alpha virt. eigenvalues --    1.21975   1.22969   1.23424   1.24798   1.25752
 Alpha virt. eigenvalues --    1.26276   1.26841   1.27353   1.27543   1.27906
 Alpha virt. eigenvalues --    1.29792   1.30335   1.30651   1.30914   1.31712
 Alpha virt. eigenvalues --    1.33095   1.33882   1.35202   1.35634   1.36149
 Alpha virt. eigenvalues --    1.36537   1.37416   1.39116   1.40026   1.40585
 Alpha virt. eigenvalues --    1.41439   1.42377   1.42705   1.43590   1.44253
 Alpha virt. eigenvalues --    1.44701   1.45410   1.48009   1.48779   1.49629
 Alpha virt. eigenvalues --    1.50380   1.51474   1.53647   1.54146   1.56590
 Alpha virt. eigenvalues --    1.57230   1.59448   1.60845   1.62310   1.63530
 Alpha virt. eigenvalues --    1.65697   1.67371   1.68202   1.70022   1.71429
 Alpha virt. eigenvalues --    1.74604   1.75495   1.77060   1.79437   1.80808
 Alpha virt. eigenvalues --    1.81854   1.88197   1.89975   1.96254   2.04229
 Alpha virt. eigenvalues --    2.05584   2.07621   2.13554   2.16876   2.25038
 Alpha virt. eigenvalues --    2.25950   2.35087   2.42848
          Condensed to atoms (all electrons):
 Mulliken atomic charges:
              1
     1  Cl   0.104814
     2  C   -0.314986
     3  C   -0.151257
     4  C   -0.193178
     5  C   -0.211347
     6  C   -0.030094
     7  C   -0.163975
     8  C   -0.078680
     9  N   -0.989056
    10  C    0.785572
    11  O   -0.567445
    12  C   -0.130352
    13  N   -0.883801
    14  N    0.096941
    15  N   -0.334751
    16  C   -0.019909
    17  C   -0.078317
    18  C   -0.233652
    19  C   -0.205264
    20  C   -0.064575
    21  C    0.488677
    22  C    0.326638
    23  C   -0.216592
    24  C   -0.205497
    25  C    0.002976
    26  C   -0.165447
    27  C   -0.156219
    28  C   -0.154675
    29  C   -0.121651
    30  C   -0.308726
    31  C    0.238912
    32  N   -0.979367
    33  C    0.792743
    34  O   -0.624310
    35  H    0.242541
    36  H    0.220650
    37  H    0.242381
    38  H    0.241876
    39  H    0.195542
    40  H    0.232890
    41  H    0.235623
    42  H    0.251546
    43  H    0.240731
    44  H    0.203593
    45  H    0.203151
    46  H    0.220597
    47  H    0.217870
    48  H    0.208284
    49  H    0.250728
    50  H    0.237239
    51  H    0.229267
    52  H    0.222096
    53  H    0.242643
    54  H    0.406600
 Sum of Mulliken atomic charges =   0.00000
 Mulliken charges with hydrogens summed into heavy atoms:
              1
     1  Cl   0.104814
     2  C   -0.314986
     3  C    0.091284
     4  C    0.027472
     5  C    0.031034
     6  C   -0.030094
     7  C    0.077901
     8  C    0.349752
     9  N   -0.989056
    10  C    0.785572
    11  O   -0.567445
    12  C    0.356818
    13  N   -0.883801
    14  N    0.096941
    15  N   -0.334751
    16  C   -0.019909
    17  C    0.162414
    18  C   -0.030059
    19  C   -0.002113
    20  C    0.156021
    21  C    0.488677
    22  C    0.326638
    23  C    0.001278
    24  C    0.002787
    25  C    0.002976
    26  C    0.085281
    27  C    0.081020
    28  C   -0.154675
    29  C    0.107616
    30  C   -0.086630
    31  C    0.481555
    32  N   -0.572768
    33  C    0.792743
    34  O   -0.624310
 Sum of Mulliken charges with hydrogens summed into heavy atoms =   0.00000
 Electronic spatial extent (au):  <R**2>=          22935.1195
 Charge=              0.0000 electrons
 Dipole moment (field-independent basis, Debye):
    X=              4.9734    Y=              4.5515    Z=              6.8906  Tot=              9.6401
 Quadrupole moment (field-independent basis, Debye-Ang):
   XX=           -157.2244   YY=           -229.9003   ZZ=           -202.3545
   XY=             -1.9041   XZ=              4.5899   YZ=             -9.1321
 Traceless Quadrupole moment (field-independent basis, Debye-Ang):
   XX=             39.2686   YY=            -33.4072   ZZ=             -5.8614
   XY=             -1.9041   XZ=              4.5899   YZ=             -9.1321
 Octapole moment (field-independent basis, Debye-Ang**2):
  XXX=            653.9421  YYY=            -64.5120  ZZZ=             59.0846  XYY=             46.8640
  XXY=            -72.2171  XXZ=            221.6565  XZZ=            -21.3704  YZZ=             54.6822
  YYZ=             63.6062  XYZ=             41.6375
 Hexadecapole moment (field-independent basis, Debye-Ang**3):
 XXXX=         -15043.7614 YYYY=          -9440.3913 ZZZZ=          -1895.8349 XXXY=           -397.4234
 XXXZ=            435.7089 YYYX=            302.3160 YYYZ=            -71.0494 ZZZX=            -14.6335
 ZZZY=           -103.6079 XXYY=          -5044.6347 XXZZ=          -3849.7963 YYZZ=          -1805.5976
 XXYZ=           -253.0253 YYXZ=           -373.0350 ZZXY=            -97.8483
 N-N= 3.323204054212D+03 E-N=-1.105170577672D+04  KE= 1.878467827902D+03
 No NMR shielding tensors so no spin-rotation constants.
 Leave Link  601 at Sat Aug 27 08:48:36 2022, MaxMem=  209715200 cpu:       1.5
 (Enter /opt/gaussian/l9999.exe)
 1\1\GINC-LQCAPF-6\FOpt\RHF\6-31G\C26H20Cl1N5O2\LQCAPF-6\27-Aug-2022\0\
 \#p opt hf/6-31G\\Mol35.out\\0,1\Cl,24.8512159235,-15.1716834739,-3.64
 49888026\C,23.8652924203,-13.8899982781,-2.8357661258\C,23.9052385962,
 -13.7814712425,-1.4596080842\C,23.145997252,-12.7920626768,-0.85667009
 07\C,22.3640406148,-11.934663815,-1.6209819576\C,22.3321404505,-12.055
 9808257,-3.0048729638\C,23.1000828232,-13.048076732,-3.6122294104\C,21
 .4779827416,-11.1639252024,-3.8954632864\N,20.9024084156,-9.9865612713
 ,-3.2439484469\C,21.6471374437,-8.8733148748,-2.9454754133\O,21.203055
 1874,-7.934611471,-2.3036807313\C,23.0832960863,-8.8485421444,-3.45564
 64717\N,23.739964016,-7.6122809697,-3.1620825123\N,23.8764387959,-6.67
 42419522,-4.1422681934\N,24.4491274942,-5.6472707892,-3.6687156505\C,2
 4.7135247313,-5.8605736763,-2.3251778252\C,25.3274780979,-5.0405343844
 ,-1.3794043757\C,25.4553824543,-5.5364090944,-0.1052216718\C,24.977681
 8466,-6.8242182526,0.225993971\C,24.3688253974,-7.6373744716,-0.699648
 8903\C,24.2472242291,-7.1265772472,-1.994437661\C,19.4942022875,-10.00
 39851386,-2.9525785152\C,18.9311457719,-11.0800581773,-2.2843138337\C,
 17.5628938199,-11.1236253752,-2.0607486049\C,16.730133164,-10.09190246
 75,-2.4825656126\C,17.3092876156,-9.0191347573,-3.1635451448\C,18.6706
 399055,-8.9758967506,-3.396585565\C,15.2778375971,-10.1328712193,-2.18
 18330915\C,14.8099173581,-10.5384780322,-0.9750048626\C,13.4137168376,
 -10.6131264518,-0.6713150764\C,12.5387831161,-10.2571427866,-1.6262553
 249\N,12.9945158842,-9.8359903761,-2.843267399\C,14.3203283905,-9.7324
 020701,-3.2084410342\O,14.6036343447,-9.3220543919,-4.3388433031\H,24.
 5109584985,-14.4468182347,-0.8799820163\H,23.1618459646,-12.6895073659
 ,0.2107514968\H,21.7794129447,-11.1776856109,-1.1369513722\H,23.100435
 6295,-13.1622449523,-4.678663313\H,22.0602869055,-10.8644309421,-4.758
 3634905\H,20.650041891,-11.7399901168,-4.2824426801\H,23.6476224571,-9
 .669739649,-3.0355820899\H,23.0923691034,-8.9521424174,-4.5306610974\H
 ,25.6790784109,-4.0657263977,-1.6509325911\H,25.9194623633,-4.94281061
 66,0.6573697218\H,25.0905346413,-7.1718062132,1.234668648\H,23.9950857
 002,-8.605459924,-0.4335130642\H,19.5450343199,-11.8900636748,-1.94392
 60653\H,17.1450010874,-11.9800815684,-1.5676988456\H,16.6899650363,-8.
 2295784683,-3.532050247\H,19.0940748557,-8.1370502714,-3.9081285546\H,
 15.5110619798,-10.8030152312,-0.2074957845\H,13.079909924,-10.93778795
 85,0.291142641\H,11.4769876573,-10.2760950928,-1.4980786656\H,12.35025
 95195,-9.568024454,-3.5525706686\\Version=EM64L-G09RevC.01\State=1-A\H
 F=-1877.0417466\RMSD=3.973e-09\RMSF=1.493e-06\Dipole=-1.7657639,-2.273
 3855,2.46949\Quadrupole=28.916481,-25.6861968,-3.2302841,4.6981942,-3.
 4962832,4.0480327\PG=C01 [X(C26H20Cl1N5O2)]\\@


 A successful marriage requires falling in love
 many times, always with the same person.
                           -- Mignon McLaughlin
 Job cpu time:  0 days  5 hours 11 minutes 57.8 seconds.
 File lengths (MBytes):  RWF=     83 Int=      0 D2E=      0 Chk=     12 Scr=      1
 Normal termination of Gaussian 09 at Sat Aug 27 08:48:36 2022.
