 Entering Gaussian System, Link 0=g09
 Input=Mol33.gjf
 Output=Mol33.log
 Initial command:
 /opt/gaussian/l1.exe /home/scr/lqcapf-6/Gau-300133.inp -scrdir=/home/scr/lqcapf-6/
 Entering Link 1 = /opt/gaussian/l1.exe PID=    300135.
  
 Copyright (c) 1988,1990,1992,1993,1995,1998,2003,2009,2011,
            Gaussian, Inc.  All Rights Reserved.
  
 This is part of the Gaussian(R) 09 program.  It is based on
 the Gaussian(R) 03 system (copyright 2003, Gaussian, Inc.),
 the Gaussian(R) 98 system (copyright 1998, Gaussian, Inc.),
 the Gaussian(R) 94 system (copyright 1995, Gaussian, Inc.),
 the Gaussian 92(TM) system (copyright 1992, Gaussian, Inc.),
 the Gaussian 90(TM) system (copyright 1990, Gaussian, Inc.),
 the Gaussian 88(TM) system (copyright 1988, Gaussian, Inc.),
 the Gaussian 86(TM) system (copyright 1986, Carnegie Mellon
 University), and the Gaussian 82(TM) system (copyright 1983,
 Carnegie Mellon University). Gaussian is a federally registered
 trademark of Gaussian, Inc.
  
 This software contains proprietary and confidential information,
 including trade secrets, belonging to Gaussian, Inc.
  
 This software is provided under written license and may be
 used, copied, transmitted, or stored only in accord with that
 written license.
  
 The following legend is applicable only to US Government
 contracts under FAR:
  
                    RESTRICTED RIGHTS LEGEND
  
 Use, reproduction and disclosure by the US Government is
 subject to restrictions as set forth in subparagraphs (a)
 and (c) of the Commercial Computer Software - Restricted
 Rights clause in FAR 52.227-19.
  
 Gaussian, Inc.
 340 Quinnipiac St., Bldg. 40, Wallingford CT 06492
  
  
 ---------------------------------------------------------------
 Warning -- This program may not be used in any manner that
 competes with the business of Gaussian, Inc. or will provide
 assistance to any competitor of Gaussian, Inc.  The licensee
 of this program is prohibited from giving any competitor of
 Gaussian, Inc. access to this program.  By using this program,
 the user acknowledges that Gaussian, Inc. is engaged in the
 business of creating and licensing software in the field of
 computational chemistry and represents and warrants to the
 licensee that it is not a competitor of Gaussian, Inc. and that
 it will not use this program in any manner prohibited above.
 ---------------------------------------------------------------
  

 Cite this work as:
 Gaussian 09, Revision C.01,
 M. J. Frisch, G. W. Trucks, H. B. Schlegel, G. E. Scuseria, 
 M. A. Robb, J. R. Cheeseman, G. Scalmani, V. Barone, B. Mennucci, 
 G. A. Petersson, H. Nakatsuji, M. Caricato, X. Li, H. P. Hratchian, 
 A. F. Izmaylov, J. Bloino, G. Zheng, J. L. Sonnenberg, M. Hada, 
 M. Ehara, K. Toyota, R. Fukuda, J. Hasegawa, M. Ishida, T. Nakajima, 
 Y. Honda, O. Kitao, H. Nakai, T. Vreven, J. A. Montgomery, Jr., 
 J. E. Peralta, F. Ogliaro, M. Bearpark, J. J. Heyd, E. Brothers, 
 K. N. Kudin, V. N. Staroverov, T. Keith, R. Kobayashi, J. Normand, 
 K. Raghavachari, A. Rendell, J. C. Burant, S. S. Iyengar, J. Tomasi, 
 M. Cossi, N. Rega, J. M. Millam, M. Klene, J. E. Knox, J. B. Cross, 
 V. Bakken, C. Adamo, J. Jaramillo, R. Gomperts, R. E. Stratmann, 
 O. Yazyev, A. J. Austin, R. Cammi, C. Pomelli, J. W. Ochterski, 
 R. L. Martin, K. Morokuma, V. G. Zakrzewski, G. A. Voth, 
 P. Salvador, J. J. Dannenberg, S. Dapprich, A. D. Daniels, 
 O. Farkas, J. B. Foresman, J. V. Ortiz, J. Cioslowski, 
 and D. J. Fox, Gaussian, Inc., Wallingford CT, 2010.
 
 ******************************************
 Gaussian 09:  EM64L-G09RevC.01 23-Sep-2011
                27-Aug-2022 
 ******************************************
 %nprocshared=8
 Will use up to    8 processors via shared memory.
 %mem=1600MB
 ---------------
 #p opt hf/6-31G
 ---------------
 1/18=20,19=15,38=1/1,3;
 2/9=110,12=2,17=6,18=5,40=1/2;
 3/5=1,6=6,11=9,16=1,25=1,30=1,71=1/1,2,3;
 4//1;
 5/5=2,38=5/2;
 6/7=2,8=2,9=2,10=2,28=1/1;
 7//1,2,3,16;
 1/18=20,19=15/3(2);
 2/9=110/2;
 99//99;
 2/9=110/2;
 3/5=1,6=6,11=9,16=1,25=1,30=1,71=1/1,2,3;
 4/5=5,16=3/1;
 5/5=2,38=5/2;
 7//1,2,3,16;
 1/18=20,19=15/3(-5);
 2/9=110/2;
 6/7=2,8=2,9=2,10=2,19=2,28=1/1;
 99/9=1/99;
 Leave Link    1 at Sat Aug 27 06:07:53 2022, MaxMem=  209715200 cpu:       0.1
 (Enter /opt/gaussian/l101.exe)
 ---------
 Mol33.out
 ---------
 Charge =  0 Multiplicity = 1
 Symbolic Z-Matrix:
 C                     25.3086  -13.3134  -1.6588 
 C                     24.076   -12.5784  -1.2908 
 C                     23.6282  -12.5948   0.0357 
 C                     22.4529  -11.9225   0.3769 
 C                     21.7135  -11.2337  -0.5899 
 C                     22.1674  -11.21    -1.9105 
 C                     23.3467  -11.8786  -2.2566 
 C                     21.3702  -10.5371  -2.9957 
 N                     20.7879  -9.2579   -2.6651 
 C                     21.5714  -8.1082   -2.5197 
 O                     21.072   -7.0324   -2.1552 
 C                     23.0659  -8.2412   -2.8604 
 N                     23.8286  -7.0257   -2.7519 
 N                     23.712   -5.9851   -3.6457 
 N                     24.1903  -4.9158   -3.1984 
 C                     24.6392  -5.1214   -1.8524 
 C                     25.246   -4.2917   -0.9111 
 C                     25.5682  -4.8499    0.3221 
 C                     25.304   -6.1973    0.6161 
 C                     24.705   -7.0527   -0.304 
 C                     24.3675  -6.5108   -1.5445 
 C                     19.4045  -9.2272   -2.3328 
 C                     18.4493  -9.765    -3.2217 
 C                     17.0969  -9.7289   -2.9036 
 C                     16.6531  -9.1527   -1.7052 
 C                     17.6011  -8.6153   -0.8239 
 C                     18.9577  -8.6509   -1.1257 
 C                     15.2323  -9.1028   -1.3879 
 C                     14.3674  -10.1568  -1.7187 
 C                     13.0151  -10.0547  -1.394 
 C                     12.5651  -8.8947   -0.7385 
 N                     13.3751  -7.8686   -0.4115 
 C                     14.6757  -7.977    -0.7345 
 Cl                    21.908   -11.9469   1.9867 
 H                     25.6029  -13.11    -2.7174 
 H                     26.1562  -13.0173  -0.9918 
 H                     25.1442  -14.4148  -1.545 
 H                     24.2017  -13.1411   0.8002 
 H                     20.7789  -10.7188  -0.313 
 H                     23.7009  -11.8643  -3.2992 
 H                     22.0255  -10.4064  -3.907 
 H                     20.5369  -11.2468  -3.2816 
 H                     23.5248  -8.999    -2.1606 
 H                     23.1576  -8.6095   -3.9241 
 H                     25.4593  -3.2379   -1.1408 
 H                     26.0428  -4.2198    1.0899 
 H                     25.5787  -6.5887    1.6082 
 H                     24.5057  -8.1044   -0.0602 
 H                     18.7632  -10.2051  -4.1808 
 H                     16.3646  -10.1428  -3.6143 
 H                     17.2721  -8.1605    0.1238 
 H                     19.6811  -8.1931   -0.4317 
 H                     14.7538  -11.0551  -2.2227 
 H                     12.3122  -10.86    -1.6436 
 H                     11.503   -8.7758   -0.4597 
 H                     15.3114  -7.1132   -0.4654 
 
 NAtoms=     56 NQM=        0 NQMF=       0 NMMI=     56 NMMIF=      0
                NMic=       0 NMicF=      0.
                    Isotopes and Nuclear Properties:
 (Nuclear quadrupole moments (NQMom) in fm**2, nuclear magnetic moments (NMagM)
  in nuclear magnetons)

  Atom         1           2           3           4           5           6           7           8           9          10
 IAtWgt=          12          12          12          12          12          12          12          12          14          12
 AtmWgt=  12.0000000  12.0000000  12.0000000  12.0000000  12.0000000  12.0000000  12.0000000  12.0000000  14.0030740  12.0000000
 NucSpn=           0           0           0           0           0           0           0           0           2           0
 AtZEff=   0.0000000   0.0000000   0.0000000   0.0000000   0.0000000   0.0000000   0.0000000   0.0000000   0.0000000   0.0000000
 NQMom=    0.0000000   0.0000000   0.0000000   0.0000000   0.0000000   0.0000000   0.0000000   0.0000000   2.0440000   0.0000000
 NMagM=    0.0000000   0.0000000   0.0000000   0.0000000   0.0000000   0.0000000   0.0000000   0.0000000   0.4037610   0.0000000

  Atom        11          12          13          14          15          16          17          18          19          20
 IAtWgt=          16          12          14          14          14          12          12          12          12          12
 AtmWgt=  15.9949146  12.0000000  14.0030740  14.0030740  14.0030740  12.0000000  12.0000000  12.0000000  12.0000000  12.0000000
 NucSpn=           0           0           2           2           2           0           0           0           0           0
 AtZEff=   0.0000000   0.0000000   0.0000000   0.0000000   0.0000000   0.0000000   0.0000000   0.0000000   0.0000000   0.0000000
 NQMom=    0.0000000   0.0000000   2.0440000   2.0440000   2.0440000   0.0000000   0.0000000   0.0000000   0.0000000   0.0000000
 NMagM=    0.0000000   0.0000000   0.4037610   0.4037610   0.4037610   0.0000000   0.0000000   0.0000000   0.0000000   0.0000000

  Atom        21          22          23          24          25          26          27          28          29          30
 IAtWgt=          12          12          12          12          12          12          12          12          12          12
 AtmWgt=  12.0000000  12.0000000  12.0000000  12.0000000  12.0000000  12.0000000  12.0000000  12.0000000  12.0000000  12.0000000
 NucSpn=           0           0           0           0           0           0           0           0           0           0
 AtZEff=   0.0000000   0.0000000   0.0000000   0.0000000   0.0000000   0.0000000   0.0000000   0.0000000   0.0000000   0.0000000
 NQMom=    0.0000000   0.0000000   0.0000000   0.0000000   0.0000000   0.0000000   0.0000000   0.0000000   0.0000000   0.0000000
 NMagM=    0.0000000   0.0000000   0.0000000   0.0000000   0.0000000   0.0000000   0.0000000   0.0000000   0.0000000   0.0000000

  Atom        31          32          33          34          35          36          37          38          39          40
 IAtWgt=          12          14          12          35           1           1           1           1           1           1
 AtmWgt=  12.0000000  14.0030740  12.0000000  34.9688527   1.0078250   1.0078250   1.0078250   1.0078250   1.0078250   1.0078250
 NucSpn=           0           2           0           3           1           1           1           1           1           1
 AtZEff=   0.0000000   0.0000000   0.0000000   0.0000000   0.0000000   0.0000000   0.0000000   0.0000000   0.0000000   0.0000000
 NQMom=    0.0000000   2.0440000   0.0000000  -8.1650000   0.0000000   0.0000000   0.0000000   0.0000000   0.0000000   0.0000000
 NMagM=    0.0000000   0.4037610   0.0000000   0.8218740   2.7928460   2.7928460   2.7928460   2.7928460   2.7928460   2.7928460

  Atom        41          42          43          44          45          46          47          48          49          50
 IAtWgt=           1           1           1           1           1           1           1           1           1           1
 AtmWgt=   1.0078250   1.0078250   1.0078250   1.0078250   1.0078250   1.0078250   1.0078250   1.0078250   1.0078250   1.0078250
 NucSpn=           1           1           1           1           1           1           1           1           1           1
 AtZEff=   0.0000000   0.0000000   0.0000000   0.0000000   0.0000000   0.0000000   0.0000000   0.0000000   0.0000000   0.0000000
 NQMom=    0.0000000   0.0000000   0.0000000   0.0000000   0.0000000   0.0000000   0.0000000   0.0000000   0.0000000   0.0000000
 NMagM=    2.7928460   2.7928460   2.7928460   2.7928460   2.7928460   2.7928460   2.7928460   2.7928460   2.7928460   2.7928460

  Atom        51          52          53          54          55          56
 IAtWgt=           1           1           1           1           1           1
 AtmWgt=   1.0078250   1.0078250   1.0078250   1.0078250   1.0078250   1.0078250
 NucSpn=           1           1           1           1           1           1
 AtZEff=   0.0000000   0.0000000   0.0000000   0.0000000   0.0000000   0.0000000
 NQMom=    0.0000000   0.0000000   0.0000000   0.0000000   0.0000000   0.0000000
 NMagM=    2.7928460   2.7928460   2.7928460   2.7928460   2.7928460   2.7928460
 Leave Link  101 at Sat Aug 27 06:07:53 2022, MaxMem=  209715200 cpu:       0.8
 (Enter /opt/gaussian/l103.exe)

 GradGradGradGradGradGradGradGradGradGradGradGradGradGradGradGradGradGrad
 Berny optimization.
 Initialization pass.
                           ----------------------------
                           !    Initial Parameters    !
                           ! (Angstroms and Degrees)  !
 --------------------------                            --------------------------
 ! Name  Definition              Value          Derivative Info.                !
 --------------------------------------------------------------------------------
 ! R1    R(1,2)                  1.4815         estimate D2E/DX2                !
 ! R2    R(1,35)                 1.1174         estimate D2E/DX2                !
 ! R3    R(1,36)                 1.1185         estimate D2E/DX2                !
 ! R4    R(1,37)                 1.1194         estimate D2E/DX2                !
 ! R5    R(2,3)                  1.4001         estimate D2E/DX2                !
 ! R6    R(2,7)                  1.398          estimate D2E/DX2                !
 ! R7    R(3,4)                  1.3963         estimate D2E/DX2                !
 ! R8    R(3,38)                 1.1008         estimate D2E/DX2                !
 ! R9    R(4,5)                  1.3985         estimate D2E/DX2                !
 ! R10   R(4,34)                 1.6997         estimate D2E/DX2                !
 ! R11   R(5,6)                  1.3966         estimate D2E/DX2                !
 ! R12   R(5,39)                 1.1024         estimate D2E/DX2                !
 ! R13   R(6,7)                  1.3991         estimate D2E/DX2                !
 ! R14   R(6,8)                  1.5053         estimate D2E/DX2                !
 ! R15   R(7,40)                 1.1012         estimate D2E/DX2                !
 ! R16   R(8,9)                  1.4439         estimate D2E/DX2                !
 ! R17   R(8,41)                 1.13           estimate D2E/DX2                !
 ! R18   R(8,42)                 1.1313         estimate D2E/DX2                !
 ! R19   R(9,10)                 1.3989         estimate D2E/DX2                !
 ! R20   R(9,22)                 1.4231         estimate D2E/DX2                !
 ! R21   R(10,11)                1.2408         estimate D2E/DX2                !
 ! R22   R(10,12)                1.5386         estimate D2E/DX2                !
 ! R23   R(12,13)                1.4391         estimate D2E/DX2                !
 ! R24   R(12,43)                1.129          estimate D2E/DX2                !
 ! R25   R(12,44)                1.1294         estimate D2E/DX2                !
 ! R26   R(13,14)                1.3767         estimate D2E/DX2                !
 ! R27   R(13,21)                1.4189         estimate D2E/DX2                !
 ! R28   R(14,15)                1.2539         estimate D2E/DX2                !
 ! R29   R(15,16)                1.4337         estimate D2E/DX2                !
 ! R30   R(16,17)                1.3938         estimate D2E/DX2                !
 ! R31   R(16,21)                1.4488         estimate D2E/DX2                !
 ! R32   R(17,18)                1.3915         estimate D2E/DX2                !
 ! R33   R(17,45)                1.0994         estimate D2E/DX2                !
 ! R34   R(18,19)                1.4042         estimate D2E/DX2                !
 ! R35   R(18,46)                1.1008         estimate D2E/DX2                !
 ! R36   R(19,20)                1.3918         estimate D2E/DX2                !
 ! R37   R(19,47)                1.1013         estimate D2E/DX2                !
 ! R38   R(20,21)                1.3951         estimate D2E/DX2                !
 ! R39   R(20,48)                1.0978         estimate D2E/DX2                !
 ! R40   R(22,23)                1.4113         estimate D2E/DX2                !
 ! R41   R(22,27)                1.4103         estimate D2E/DX2                !
 ! R42   R(23,24)                1.3898         estimate D2E/DX2                !
 ! R43   R(23,49)                1.101          estimate D2E/DX2                !
 ! R44   R(24,25)                1.4018         estimate D2E/DX2                !
 ! R45   R(24,50)                1.1012         estimate D2E/DX2                !
 ! R46   R(25,26)                1.4015         estimate D2E/DX2                !
 ! R47   R(25,28)                1.4567         estimate D2E/DX2                !
 ! R48   R(26,27)                1.3902         estimate D2E/DX2                !
 ! R49   R(26,51)                1.1015         estimate D2E/DX2                !
 ! R50   R(27,52)                1.1021         estimate D2E/DX2                !
 ! R51   R(28,29)                1.403          estimate D2E/DX2                !
 ! R52   R(28,33)                1.4157         estimate D2E/DX2                !
 ! R53   R(29,30)                1.3945         estimate D2E/DX2                !
 ! R54   R(29,53)                1.1001         estimate D2E/DX2                !
 ! R55   R(30,31)                1.4063         estimate D2E/DX2                !
 ! R56   R(30,54)                1.0977         estimate D2E/DX2                !
 ! R57   R(31,32)                1.3476         estimate D2E/DX2                !
 ! R58   R(31,55)                1.1045         estimate D2E/DX2                !
 ! R59   R(32,33)                1.3445         estimate D2E/DX2                !
 ! R60   R(33,56)                1.1057         estimate D2E/DX2                !
 ! A1    A(2,1,35)             111.3543         estimate D2E/DX2                !
 ! A2    A(2,1,36)             110.5497         estimate D2E/DX2                !
 ! A3    A(2,1,37)             109.9189         estimate D2E/DX2                !
 ! A4    A(35,1,36)            108.4924         estimate D2E/DX2                !
 ! A5    A(35,1,37)            108.3059         estimate D2E/DX2                !
 ! A6    A(36,1,37)            108.1285         estimate D2E/DX2                !
 ! A7    A(1,2,3)              119.7094         estimate D2E/DX2                !
 ! A8    A(1,2,7)              120.7146         estimate D2E/DX2                !
 ! A9    A(3,2,7)              119.573          estimate D2E/DX2                !
 ! A10   A(2,3,4)              119.6739         estimate D2E/DX2                !
 ! A11   A(2,3,38)             119.8114         estimate D2E/DX2                !
 ! A12   A(4,3,38)             120.514          estimate D2E/DX2                !
 ! A13   A(3,4,5)              120.8789         estimate D2E/DX2                !
 ! A14   A(3,4,34)             119.6275         estimate D2E/DX2                !
 ! A15   A(5,4,34)             119.4928         estimate D2E/DX2                !
 ! A16   A(4,5,6)              119.3538         estimate D2E/DX2                !
 ! A17   A(4,5,39)             120.3068         estimate D2E/DX2                !
 ! A18   A(6,5,39)             120.3387         estimate D2E/DX2                !
 ! A19   A(5,6,7)              119.982          estimate D2E/DX2                !
 ! A20   A(5,6,8)              121.1404         estimate D2E/DX2                !
 ! A21   A(7,6,8)              118.7942         estimate D2E/DX2                !
 ! A22   A(2,7,6)              120.5326         estimate D2E/DX2                !
 ! A23   A(2,7,40)             119.5236         estimate D2E/DX2                !
 ! A24   A(6,7,40)             119.9407         estimate D2E/DX2                !
 ! A25   A(6,8,9)              116.3946         estimate D2E/DX2                !
 ! A26   A(6,8,41)             109.0241         estimate D2E/DX2                !
 ! A27   A(6,8,42)             106.9689         estimate D2E/DX2                !
 ! A28   A(9,8,41)             108.4241         estimate D2E/DX2                !
 ! A29   A(9,8,42)             108.4574         estimate D2E/DX2                !
 ! A30   A(41,8,42)            107.2117         estimate D2E/DX2                !
 ! A31   A(8,9,10)             121.7402         estimate D2E/DX2                !
 ! A32   A(8,9,22)             117.6862         estimate D2E/DX2                !
 ! A33   A(10,9,22)            120.1641         estimate D2E/DX2                !
 ! A34   A(9,10,11)            121.1774         estimate D2E/DX2                !
 ! A35   A(9,10,12)            116.7425         estimate D2E/DX2                !
 ! A36   A(11,10,12)           122.0689         estimate D2E/DX2                !
 ! A37   A(10,12,13)           115.1567         estimate D2E/DX2                !
 ! A38   A(10,12,43)           108.3965         estimate D2E/DX2                !
 ! A39   A(10,12,44)           108.3978         estimate D2E/DX2                !
 ! A40   A(13,12,43)           107.7453         estimate D2E/DX2                !
 ! A41   A(13,12,44)           107.6632         estimate D2E/DX2                !
 ! A42   A(43,12,44)           109.3847         estimate D2E/DX2                !
 ! A43   A(12,13,14)           122.997          estimate D2E/DX2                !
 ! A44   A(12,13,21)           124.8863         estimate D2E/DX2                !
 ! A45   A(14,13,21)           108.0789         estimate D2E/DX2                !
 ! A46   A(13,14,15)           112.3758         estimate D2E/DX2                !
 ! A47   A(14,15,16)           109.3932         estimate D2E/DX2                !
 ! A48   A(15,16,17)           133.2346         estimate D2E/DX2                !
 ! A49   A(15,16,21)           106.1603         estimate D2E/DX2                !
 ! A50   A(17,16,21)           120.5966         estimate D2E/DX2                !
 ! A51   A(16,17,18)           117.4221         estimate D2E/DX2                !
 ! A52   A(16,17,45)           120.9266         estimate D2E/DX2                !
 ! A53   A(18,17,45)           121.6512         estimate D2E/DX2                !
 ! A54   A(17,18,19)           121.7983         estimate D2E/DX2                !
 ! A55   A(17,18,46)           119.2329         estimate D2E/DX2                !
 ! A56   A(19,18,46)           118.9688         estimate D2E/DX2                !
 ! A57   A(18,19,20)           122.1617         estimate D2E/DX2                !
 ! A58   A(18,19,47)           118.8618         estimate D2E/DX2                !
 ! A59   A(20,19,47)           118.9764         estimate D2E/DX2                !
 ! A60   A(19,20,21)           116.9494         estimate D2E/DX2                !
 ! A61   A(19,20,48)           121.3387         estimate D2E/DX2                !
 ! A62   A(21,20,48)           121.7115         estimate D2E/DX2                !
 ! A63   A(13,21,16)           103.7913         estimate D2E/DX2                !
 ! A64   A(13,21,20)           135.0348         estimate D2E/DX2                !
 ! A65   A(16,21,20)           121.0704         estimate D2E/DX2                !
 ! A66   A(9,22,23)            120.1758         estimate D2E/DX2                !
 ! A67   A(9,22,27)            121.1091         estimate D2E/DX2                !
 ! A68   A(23,22,27)           118.7114         estimate D2E/DX2                !
 ! A69   A(22,23,24)           120.302          estimate D2E/DX2                !
 ! A70   A(22,23,49)           120.5339         estimate D2E/DX2                !
 ! A71   A(24,23,49)           119.1585         estimate D2E/DX2                !
 ! A72   A(23,24,25)           120.9587         estimate D2E/DX2                !
 ! A73   A(23,24,50)           119.3162         estimate D2E/DX2                !
 ! A74   A(25,24,50)           119.715          estimate D2E/DX2                !
 ! A75   A(24,25,26)           118.7533         estimate D2E/DX2                !
 ! A76   A(24,25,28)           120.6033         estimate D2E/DX2                !
 ! A77   A(26,25,28)           120.6411         estimate D2E/DX2                !
 ! A78   A(25,26,27)           120.9127         estimate D2E/DX2                !
 ! A79   A(25,26,51)           119.8235         estimate D2E/DX2                !
 ! A80   A(27,26,51)           119.2635         estimate D2E/DX2                !
 ! A81   A(22,27,26)           120.3604         estimate D2E/DX2                !
 ! A82   A(22,27,52)           120.0532         estimate D2E/DX2                !
 ! A83   A(26,27,52)           119.5505         estimate D2E/DX2                !
 ! A84   A(25,28,29)           121.6143         estimate D2E/DX2                !
 ! A85   A(25,28,33)           120.7484         estimate D2E/DX2                !
 ! A86   A(29,28,33)           117.637          estimate D2E/DX2                !
 ! A87   A(28,29,30)           119.2036         estimate D2E/DX2                !
 ! A88   A(28,29,53)           120.3264         estimate D2E/DX2                !
 ! A89   A(30,29,53)           120.4689         estimate D2E/DX2                !
 ! A90   A(29,30,31)           118.6348         estimate D2E/DX2                !
 ! A91   A(29,30,54)           120.9524         estimate D2E/DX2                !
 ! A92   A(31,30,54)           120.4127         estimate D2E/DX2                !
 ! A93   A(30,31,32)           123.2878         estimate D2E/DX2                !
 ! A94   A(30,31,55)           120.9404         estimate D2E/DX2                !
 ! A95   A(32,31,55)           115.7718         estimate D2E/DX2                !
 ! A96   A(31,32,33)           117.5019         estimate D2E/DX2                !
 ! A97   A(28,33,32)           123.7335         estimate D2E/DX2                !
 ! A98   A(28,33,56)           120.4987         estimate D2E/DX2                !
 ! A99   A(32,33,56)           115.7655         estimate D2E/DX2                !
 ! D1    D(35,1,2,3)          -173.3252         estimate D2E/DX2                !
 ! D2    D(35,1,2,7)             7.3091         estimate D2E/DX2                !
 ! D3    D(36,1,2,3)           -52.6435         estimate D2E/DX2                !
 ! D4    D(36,1,2,7)           127.9908         estimate D2E/DX2                !
 ! D5    D(37,1,2,3)            66.6497         estimate D2E/DX2                !
 ! D6    D(37,1,2,7)          -112.716          estimate D2E/DX2                !
 ! D7    D(1,2,3,4)           -178.8116         estimate D2E/DX2                !
 ! D8    D(1,2,3,38)             0.8819         estimate D2E/DX2                !
 ! D9    D(7,2,3,4)              0.5615         estimate D2E/DX2                !
 ! D10   D(7,2,3,38)          -179.745          estimate D2E/DX2                !
 ! D11   D(1,2,7,6)            178.5993         estimate D2E/DX2                !
 ! D12   D(1,2,7,40)            -0.7744         estimate D2E/DX2                !
 ! D13   D(3,2,7,6)             -0.7674         estimate D2E/DX2                !
 ! D14   D(3,2,7,40)           179.8589         estimate D2E/DX2                !
 ! D15   D(2,3,4,5)              0.1296         estimate D2E/DX2                !
 ! D16   D(2,3,4,34)           179.8256         estimate D2E/DX2                !
 ! D17   D(38,3,4,5)          -179.5617         estimate D2E/DX2                !
 ! D18   D(38,3,4,34)            0.1343         estimate D2E/DX2                !
 ! D19   D(3,4,5,6)             -0.6176         estimate D2E/DX2                !
 ! D20   D(3,4,5,39)           179.0793         estimate D2E/DX2                !
 ! D21   D(34,4,5,6)           179.686          estimate D2E/DX2                !
 ! D22   D(34,4,5,39)           -0.6171         estimate D2E/DX2                !
 ! D23   D(4,5,6,7)              0.4117         estimate D2E/DX2                !
 ! D24   D(4,5,6,8)            177.051          estimate D2E/DX2                !
 ! D25   D(39,5,6,7)          -179.2851         estimate D2E/DX2                !
 ! D26   D(39,5,6,8)            -2.6458         estimate D2E/DX2                !
 ! D27   D(5,6,7,2)              0.2786         estimate D2E/DX2                !
 ! D28   D(5,6,7,40)           179.6497         estimate D2E/DX2                !
 ! D29   D(8,6,7,2)           -176.4392         estimate D2E/DX2                !
 ! D30   D(8,6,7,40)             2.9319         estimate D2E/DX2                !
 ! D31   D(5,6,8,9)             42.8109         estimate D2E/DX2                !
 ! D32   D(5,6,8,41)           165.79           estimate D2E/DX2                !
 ! D33   D(5,6,8,42)           -78.5864         estimate D2E/DX2                !
 ! D34   D(7,6,8,9)           -140.5108         estimate D2E/DX2                !
 ! D35   D(7,6,8,41)           -17.5317         estimate D2E/DX2                !
 ! D36   D(7,6,8,42)            98.0919         estimate D2E/DX2                !
 ! D37   D(6,8,9,10)            71.7926         estimate D2E/DX2                !
 ! D38   D(6,8,9,22)          -100.8696         estimate D2E/DX2                !
 ! D39   D(41,8,9,10)          -51.498          estimate D2E/DX2                !
 ! D40   D(41,8,9,22)          135.8397         estimate D2E/DX2                !
 ! D41   D(42,8,9,10)         -167.6013         estimate D2E/DX2                !
 ! D42   D(42,8,9,22)           19.7365         estimate D2E/DX2                !
 ! D43   D(8,9,10,11)         -175.5126         estimate D2E/DX2                !
 ! D44   D(8,9,10,12)            5.6844         estimate D2E/DX2                !
 ! D45   D(22,9,10,11)          -3.0289         estimate D2E/DX2                !
 ! D46   D(22,9,10,12)         178.1681         estimate D2E/DX2                !
 ! D47   D(8,9,22,23)          -54.6946         estimate D2E/DX2                !
 ! D48   D(8,9,22,27)          126.0102         estimate D2E/DX2                !
 ! D49   D(10,9,22,23)         132.5224         estimate D2E/DX2                !
 ! D50   D(10,9,22,27)         -46.7728         estimate D2E/DX2                !
 ! D51   D(9,10,12,13)         177.5539         estimate D2E/DX2                !
 ! D52   D(9,10,12,43)         -61.7119         estimate D2E/DX2                !
 ! D53   D(9,10,12,44)          56.9245         estimate D2E/DX2                !
 ! D54   D(11,10,12,13)         -1.2376         estimate D2E/DX2                !
 ! D55   D(11,10,12,43)        119.4966         estimate D2E/DX2                !
 ! D56   D(11,10,12,44)       -121.867          estimate D2E/DX2                !
 ! D57   D(10,12,13,14)        -71.9398         estimate D2E/DX2                !
 ! D58   D(10,12,13,21)         82.7253         estimate D2E/DX2                !
 ! D59   D(43,12,13,14)        166.9712         estimate D2E/DX2                !
 ! D60   D(43,12,13,21)        -38.3637         estimate D2E/DX2                !
 ! D61   D(44,12,13,14)         49.0903         estimate D2E/DX2                !
 ! D62   D(44,12,13,21)       -156.2446         estimate D2E/DX2                !
 ! D63   D(12,13,14,15)        163.0965         estimate D2E/DX2                !
 ! D64   D(21,13,14,15)          4.7652         estimate D2E/DX2                !
 ! D65   D(12,13,21,16)       -161.8562         estimate D2E/DX2                !
 ! D66   D(12,13,21,20)         21.9917         estimate D2E/DX2                !
 ! D67   D(14,13,21,16)         -4.0367         estimate D2E/DX2                !
 ! D68   D(14,13,21,20)        179.8112         estimate D2E/DX2                !
 ! D69   D(13,14,15,16)         -3.2558         estimate D2E/DX2                !
 ! D70   D(14,15,16,17)        179.4275         estimate D2E/DX2                !
 ! D71   D(14,15,16,21)          0.5194         estimate D2E/DX2                !
 ! D72   D(15,16,17,18)       -179.0738         estimate D2E/DX2                !
 ! D73   D(15,16,17,45)          0.9061         estimate D2E/DX2                !
 ! D74   D(21,16,17,18)         -0.2922         estimate D2E/DX2                !
 ! D75   D(21,16,17,45)        179.6878         estimate D2E/DX2                !
 ! D76   D(15,16,21,13)          2.2154         estimate D2E/DX2                !
 ! D77   D(15,16,21,20)        179.0415         estimate D2E/DX2                !
 ! D78   D(17,16,21,13)       -176.8605         estimate D2E/DX2                !
 ! D79   D(17,16,21,20)         -0.0344         estimate D2E/DX2                !
 ! D80   D(16,17,18,19)          0.3429         estimate D2E/DX2                !
 ! D81   D(16,17,18,46)       -179.6274         estimate D2E/DX2                !
 ! D82   D(45,17,18,19)       -179.6369         estimate D2E/DX2                !
 ! D83   D(45,17,18,46)          0.3928         estimate D2E/DX2                !
 ! D84   D(17,18,19,20)         -0.0626         estimate D2E/DX2                !
 ! D85   D(17,18,19,47)       -179.9624         estimate D2E/DX2                !
 ! D86   D(46,18,19,20)        179.9078         estimate D2E/DX2                !
 ! D87   D(46,18,19,47)          0.008          estimate D2E/DX2                !
 ! D88   D(18,19,20,21)         -0.2674         estimate D2E/DX2                !
 ! D89   D(18,19,20,48)        179.9263         estimate D2E/DX2                !
 ! D90   D(47,19,20,21)        179.6323         estimate D2E/DX2                !
 ! D91   D(47,19,20,48)         -0.174          estimate D2E/DX2                !
 ! D92   D(19,20,21,13)        175.9472         estimate D2E/DX2                !
 ! D93   D(19,20,21,16)          0.311          estimate D2E/DX2                !
 ! D94   D(48,20,21,13)         -4.2473         estimate D2E/DX2                !
 ! D95   D(48,20,21,16)       -179.8835         estimate D2E/DX2                !
 ! D96   D(9,22,23,24)        -179.5973         estimate D2E/DX2                !
 ! D97   D(9,22,23,49)          -0.4618         estimate D2E/DX2                !
 ! D98   D(27,22,23,24)         -0.2854         estimate D2E/DX2                !
 ! D99   D(27,22,23,49)        178.8501         estimate D2E/DX2                !
 ! D100  D(9,22,27,26)         179.2435         estimate D2E/DX2                !
 ! D101  D(9,22,27,52)           1.4337         estimate D2E/DX2                !
 ! D102  D(23,22,27,26)         -0.0618         estimate D2E/DX2                !
 ! D103  D(23,22,27,52)       -177.8716         estimate D2E/DX2                !
 ! D104  D(22,23,24,25)          0.4642         estimate D2E/DX2                !
 ! D105  D(22,23,24,50)        179.3002         estimate D2E/DX2                !
 ! D106  D(49,23,24,25)       -178.6831         estimate D2E/DX2                !
 ! D107  D(49,23,24,50)          0.1528         estimate D2E/DX2                !
 ! D108  D(23,24,25,26)         -0.2868         estimate D2E/DX2                !
 ! D109  D(23,24,25,28)        179.1628         estimate D2E/DX2                !
 ! D110  D(50,24,25,26)       -179.1182         estimate D2E/DX2                !
 ! D111  D(50,24,25,28)          0.3314         estimate D2E/DX2                !
 ! D112  D(24,25,26,27)         -0.0648         estimate D2E/DX2                !
 ! D113  D(24,25,26,51)       -179.8501         estimate D2E/DX2                !
 ! D114  D(28,25,26,27)       -179.5142         estimate D2E/DX2                !
 ! D115  D(28,25,26,51)          0.7006         estimate D2E/DX2                !
 ! D116  D(24,25,28,29)         37.4303         estimate D2E/DX2                !
 ! D117  D(24,25,28,33)       -142.3435         estimate D2E/DX2                !
 ! D118  D(26,25,28,29)       -143.1306         estimate D2E/DX2                !
 ! D119  D(26,25,28,33)         37.0956         estimate D2E/DX2                !
 ! D120  D(25,26,27,22)          0.2372         estimate D2E/DX2                !
 ! D121  D(25,26,27,52)        178.058          estimate D2E/DX2                !
 ! D122  D(51,26,27,22)       -179.9764         estimate D2E/DX2                !
 ! D123  D(51,26,27,52)         -2.1556         estimate D2E/DX2                !
 ! D124  D(25,28,29,30)       -179.8464         estimate D2E/DX2                !
 ! D125  D(25,28,29,53)          0.5224         estimate D2E/DX2                !
 ! D126  D(33,28,29,30)         -0.0658         estimate D2E/DX2                !
 ! D127  D(33,28,29,53)       -179.697          estimate D2E/DX2                !
 ! D128  D(25,28,33,32)       -179.8843         estimate D2E/DX2                !
 ! D129  D(25,28,33,56)          0.6799         estimate D2E/DX2                !
 ! D130  D(29,28,33,32)          0.3331         estimate D2E/DX2                !
 ! D131  D(29,28,33,56)       -179.1026         estimate D2E/DX2                !
 ! D132  D(28,29,30,31)         -0.2364         estimate D2E/DX2                !
 ! D133  D(28,29,30,54)        179.707          estimate D2E/DX2                !
 ! D134  D(53,29,30,31)        179.3943         estimate D2E/DX2                !
 ! D135  D(53,29,30,54)         -0.6623         estimate D2E/DX2                !
 ! D136  D(29,30,31,32)          0.3201         estimate D2E/DX2                !
 ! D137  D(29,30,31,55)       -179.7346         estimate D2E/DX2                !
 ! D138  D(54,30,31,32)       -179.6237         estimate D2E/DX2                !
 ! D139  D(54,30,31,55)          0.3216         estimate D2E/DX2                !
 ! D140  D(30,31,32,33)         -0.0705         estimate D2E/DX2                !
 ! D141  D(55,31,32,33)        179.9817         estimate D2E/DX2                !
 ! D142  D(31,32,33,28)         -0.2642         estimate D2E/DX2                !
 ! D143  D(31,32,33,56)        179.196          estimate D2E/DX2                !
 --------------------------------------------------------------------------------
 Trust Radius=3.00D-01 FncErr=1.00D-07 GrdErr=1.00D-07
 Number of steps in this run=    312 maximum allowed number of steps=    336.
 GradGradGradGradGradGradGradGradGradGradGradGradGradGradGradGradGradGrad

 Leave Link  103 at Sat Aug 27 06:07:53 2022, MaxMem=  209715200 cpu:       0.1
 (Enter /opt/gaussian/l202.exe)
 Stoichiometry    C27H22ClN5O
 Framework group  C1[X(C27H22ClN5O)]
 Deg. of freedom   162
 Full point group                 C1      NOp   1
 Largest Abelian subgroup         C1      NOp   1
 Largest concise Abelian subgroup C1      NOp   1
                         Standard orientation:                         
 ---------------------------------------------------------------------
 Center     Atomic      Atomic             Coordinates (Angstroms)
 Number     Number       Type             X           Y           Z
 ---------------------------------------------------------------------
      1          6           0       -3.827358    4.727849   -1.268489
      2          6           0       -2.712279    3.917162   -0.725961
      3          6           0       -2.277831    4.126296    0.588540
      4          6           0       -1.210533    3.379180    1.090964
      5          6           0       -0.566071    2.424765    0.297477
      6          6           0       -1.007626    2.210487   -1.010072
      7          6           0       -2.079358    2.953608   -1.516748
      8          6           0       -0.302710    1.241081   -1.920745
      9          7           0        0.092968   -0.017995   -1.335178
     10          6           0       -0.844194   -1.002105   -1.003398
     11          8           0       -0.502570   -2.045754   -0.425733
     12          6           0       -2.302670   -0.736090   -1.414957
     13          7           0       -3.228085   -1.794037   -1.106284
     14          7           0       -3.249938   -2.992390   -1.783627
     15          7           0       -3.876252   -3.881825   -1.160018
     16          6           0       -4.303555   -3.363902    0.106736
     17          6           0       -5.027941   -3.908568    1.165631
     18          6           0       -5.279729   -3.086530    2.259723
     19          6           0       -4.832988   -1.756043    2.303894
     20          6           0       -4.112928   -1.181283    1.260698
     21          6           0       -3.843658   -1.990937    0.156906
     22          6           0        1.455746   -0.171154   -0.954994
     23          6           0        2.484035    0.052687   -1.895364
     24          6           0        3.815484   -0.104249   -1.529182
     25          6           0        4.164542   -0.495202   -0.229012
     26          6           0        3.143503   -0.721080    0.704074
     27          6           0        1.807687   -0.560945    0.353839
     28          6           0        5.561808   -0.674947    0.141368
     29          6           0        6.567822    0.169672   -0.351532
     30          6           0        7.889927   -0.050154    0.033547
     31          6           0        8.168440   -1.113341    0.910955
     32          7           0        7.220706   -1.938978    1.396789
     33          6           0        5.950659   -1.719685    1.013996
     34         17           0       -0.681224    3.637153    2.685407
     35          1           0       -4.138120    4.367412   -2.279494
     36          1           0       -4.713561    4.682021   -0.587655
     37          1           0       -3.512167    5.798194   -1.358365
     38          1           0       -2.776141    4.881076    1.216075
     39          1           0        0.285343    1.850891    0.698769
     40          1           0       -2.423239    2.788166   -2.549730
     41          1           0       -0.962069    1.028253   -2.813449
     42          1           0        0.623689    1.763825   -2.305874
     43          1           0       -2.657501    0.196460   -0.886737
     44          1           0       -2.333163   -0.569058   -2.531506
     45          1           0       -5.383942   -4.948195    1.131085
     46          1           0       -5.843942   -3.488181    3.115369
     47          1           0       -5.058921   -1.148692    3.194397
     48          1           0       -3.771202   -0.139111    1.308990
     49          1           0        2.242625    0.339540   -2.930512
     50          1           0        4.604288    0.063322   -2.279102
     51          1           0        3.397916   -1.026444    1.731327
     52          1           0        1.021725   -0.775592    1.095941
     53          1           0        6.314561    0.998814   -1.028767
     54          1           0        8.700205    0.590088   -0.338495
     55          1           0        9.201232   -1.319080    1.244024
     56          1           0        5.198612   -2.422149    1.418532
 ---------------------------------------------------------------------
 Rotational constants (GHZ):      0.1363348      0.0622200      0.0504738
 Leave Link  202 at Sat Aug 27 06:07:53 2022, MaxMem=  209715200 cpu:       0.0
 (Enter /opt/gaussian/l301.exe)
 Standard basis: 6-31G (6D, 7F)
 Ernie: Thresh=  0.10000D-02 Tol=  0.10000D-05 Strict=F.
 There are   354 symmetry adapted basis functions of A   symmetry.
 Integral buffers will be    131072 words long.
 Raffenetti 1 integral format.
 Two-electron integral symmetry is turned on.
   354 basis functions,   860 primitive gaussians,   354 cartesian basis functions
   122 alpha electrons      122 beta electrons
       nuclear repulsion energy      3353.2751878365 Hartrees.
 IExCor=    0 DFT=F Ex=HF Corr=None ExCW=0 ScaHFX=  1.000000
 ScaDFX=  1.000000  1.000000  1.000000  1.000000 ScalE2=  1.000000  1.000000
 IRadAn=      0 IRanWt=     -1 IRanGd=            0 ICorTp=0
 NAtoms=   56 NActive=   56 NUniq=   56 SFac= 1.00D+00 NAtFMM=   60 NAOKFM=F Big=F
 Leave Link  301 at Sat Aug 27 06:07:53 2022, MaxMem=  209715200 cpu:       0.2
 (Enter /opt/gaussian/l302.exe)
 NPDir=0 NMtPBC=     1 NCelOv=     1 NCel=       1 NClECP=     1 NCelD=      1
         NCelK=      1 NCelE2=     1 NClLst=     1 CellRange=     0.0.
 One-electron integrals computed using PRISM.
 NBasis=   354 RedAO= T  NBF=   354
 NBsUse=   354 1.00D-06 NBFU=   354
 Leave Link  302 at Sat Aug 27 06:07:53 2022, MaxMem=  209715200 cpu:       2.2
 (Enter /opt/gaussian/l303.exe)
 DipDrv:  MaxL=1.
 Leave Link  303 at Sat Aug 27 06:07:53 2022, MaxMem=  209715200 cpu:       0.5
 (Enter /opt/gaussian/l401.exe)
 Harris functional with IExCor=  205 diagonalized for initial guess.
 ExpMin= 1.43D-01 ExpMax= 2.52D+04 ExpMxC= 3.78D+03 IAcc=1 IRadAn=         1 AccDes= 0.00D+00
 HarFok:  IExCor=  205 AccDes= 0.00D+00 IRadAn=         1 IDoV= 1
 ScaDFX=  1.000000  1.000000  1.000000  1.000000
 FoFCou: FMM=F IPFlag=           0 FMFlag=      100000 FMFlg1=           0
         NFxFlg=           0 DoJE=T BraDBF=F KetDBF=T FulRan=T
         Omega=  0.000000  0.000000  1.000000  0.000000  0.000000 ICntrl=     500 IOpCl=  0
         NMat0=    1 NMatS0=    1 NMatT0=    0 NMatD0=    1 NMtDS0=    0 NMtDT0=    0
         I1Cent=           4 NGrid=           0.
 Petite list used in FoFCou.
 Harris En= -1842.40590511396    
 Initial guess orbital symmetries:
       Occupied  (A) (A) (A) (A) (A) (A) (A) (A) (A) (A) (A) (A)
                 (A) (A) (A) (A) (A) (A) (A) (A) (A) (A) (A) (A)
                 (A) (A) (A) (A) (A) (A) (A) (A) (A) (A) (A) (A)
                 (A) (A) (A) (A) (A) (A) (A) (A) (A) (A) (A) (A)
                 (A) (A) (A) (A) (A) (A) (A) (A) (A) (A) (A) (A)
                 (A) (A) (A) (A) (A) (A) (A) (A) (A) (A) (A) (A)
                 (A) (A) (A) (A) (A) (A) (A) (A) (A) (A) (A) (A)
                 (A) (A) (A) (A) (A) (A) (A) (A) (A) (A) (A) (A)
                 (A) (A) (A) (A) (A) (A) (A) (A) (A) (A) (A) (A)
                 (A) (A) (A) (A) (A) (A) (A) (A) (A) (A) (A) (A)
                 (A) (A)
       Virtual   (A) (A) (A) (A) (A) (A) (A) (A) (A) (A) (A) (A)
                 (A) (A) (A) (A) (A) (A) (A) (A) (A) (A) (A) (A)
                 (A) (A) (A) (A) (A) (A) (A) (A) (A) (A) (A) (A)
                 (A) (A) (A) (A) (A) (A) (A) (A) (A) (A) (A) (A)
                 (A) (A) (A) (A) (A) (A) (A) (A) (A) (A) (A) (A)
                 (A) (A) (A) (A) (A) (A) (A) (A) (A) (A) (A) (A)
                 (A) (A) (A) (A) (A) (A) (A) (A) (A) (A) (A) (A)
                 (A) (A) (A) (A) (A) (A) (A) (A) (A) (A) (A) (A)
                 (A) (A) (A) (A) (A) (A) (A) (A) (A) (A) (A) (A)
                 (A) (A) (A) (A) (A) (A) (A) (A) (A) (A) (A) (A)
                 (A) (A) (A) (A) (A) (A) (A) (A) (A) (A) (A) (A)
                 (A) (A) (A) (A) (A) (A) (A) (A) (A) (A) (A) (A)
                 (A) (A) (A) (A) (A) (A) (A) (A) (A) (A) (A) (A)
                 (A) (A) (A) (A) (A) (A) (A) (A) (A) (A) (A) (A)
                 (A) (A) (A) (A) (A) (A) (A) (A) (A) (A) (A) (A)
                 (A) (A) (A) (A) (A) (A) (A) (A) (A) (A) (A) (A)
                 (A) (A) (A) (A) (A) (A) (A) (A) (A) (A) (A) (A)
                 (A) (A) (A) (A) (A) (A) (A) (A) (A) (A) (A) (A)
                 (A) (A) (A) (A) (A) (A) (A) (A) (A) (A) (A) (A)
                 (A) (A) (A) (A)
 The electronic state of the initial guess is 1-A.
 Leave Link  401 at Sat Aug 27 06:07:54 2022, MaxMem=  209715200 cpu:       5.3
 (Enter /opt/gaussian/l502.exe)
 Closed shell SCF:
 Requested convergence on RMS density matrix=1.00D-08 within 128 cycles.
 Requested convergence on MAX density matrix=1.00D-06.
 Requested convergence on             energy=1.00D-06.
 No special actions if energy rises.
 Using DIIS extrapolation, IDIIS=  1040.
 Integral symmetry usage will be decided dynamically.
 IEnd=      399663 IEndB=      399663 NGot=   209715200 MDV=   209457848
 LenX=   209457848 LenY=   209332091
 Fock matrices will be formed incrementally for  20 cycles.
 Integral accuracy reduced to 1.0D-05 until final iterations.

 Cycle   1  Pass 0  IDiag  1:
 FoFCou: FMM=F IPFlag=           0 FMFlag=      100000 FMFlg1=           0
         NFxFlg=           0 DoJE=F BraDBF=F KetDBF=F FulRan=T
         Omega=  0.000000  0.000000  1.000000  0.000000  0.000000 ICntrl=       0 IOpCl=  0
         NMat0=    1 NMatS0=    1 NMatT0=    0 NMatD0=    1 NMtDS0=    0 NMtDT0=    0
         I1Cent=           0 NGrid=           0.
 Symmetry not used in FoFCou.
 E= -1840.19739145126    
 DIIS: error= 3.19D-02 at cycle   1 NSaved=   1.
 NSaved= 1 IEnMin= 1 EnMin= -1840.19739145126     IErMin= 1 ErrMin= 3.19D-02
 ErrMax= 3.19D-02 EMaxC= 1.00D-01 BMatC= 1.15D+00 BMatP= 1.15D+00
 IDIUse=3 WtCom= 6.81D-01 WtEn= 3.19D-01
 Coeff-Com:  0.100D+01
 Coeff-En:   0.100D+01
 Coeff:      0.100D+01
 Gap=     0.566 Goal=   None    Shift=    0.000
 GapD=    0.566 DampG=2.000 DampE=0.500 DampFc=1.0000 IDamp=-1.
 RMSDP=5.53D-03 MaxDP=1.75D-01              OVMax= 1.63D-01

 Cycle   2  Pass 0  IDiag  1:
 RMSU=  3.87D-03    CP:  9.68D-01
 E= -1840.99606550006     Delta-E=       -0.798674048798 Rises=F Damp=F
 DIIS: error= 1.74D-02 at cycle   2 NSaved=   2.
 NSaved= 2 IEnMin= 2 EnMin= -1840.99606550006     IErMin= 2 ErrMin= 1.74D-02
 ErrMax= 1.74D-02 EMaxC= 1.00D-01 BMatC= 1.88D-01 BMatP= 1.15D+00
 IDIUse=3 WtCom= 8.26D-01 WtEn= 1.74D-01
 Coeff-Com:  0.234D+00 0.766D+00
 Coeff-En:   0.000D+00 0.100D+01
 Coeff:      0.193D+00 0.807D+00
 Gap=     0.440 Goal=   None    Shift=    0.000
 RMSDP=2.29D-03 MaxDP=9.43D-02 DE=-7.99D-01 OVMax= 1.00D-01

 Cycle   3  Pass 0  IDiag  1:
 RMSU=  1.44D-03    CP:  9.67D-01  8.11D-01
 E= -1841.14902472422     Delta-E=       -0.152959224162 Rises=F Damp=F
 DIIS: error= 1.01D-02 at cycle   3 NSaved=   3.
 NSaved= 3 IEnMin= 3 EnMin= -1841.14902472422     IErMin= 3 ErrMin= 1.01D-02
 ErrMax= 1.01D-02 EMaxC= 1.00D-01 BMatC= 3.00D-02 BMatP= 1.88D-01
 IDIUse=3 WtCom= 8.99D-01 WtEn= 1.01D-01
 Coeff-Com:  0.784D-02 0.270D+00 0.722D+00
 Coeff-En:   0.000D+00 0.000D+00 0.100D+01
 Coeff:      0.705D-02 0.243D+00 0.750D+00
 Gap=     0.392 Goal=   None    Shift=    0.000
 RMSDP=7.56D-04 MaxDP=3.34D-02 DE=-1.53D-01 OVMax= 3.68D-02

 Cycle   4  Pass 0  IDiag  1:
 RMSU=  3.45D-04    CP:  9.67D-01  8.99D-01  8.43D-01
 E= -1841.17539531223     Delta-E=       -0.026370588001 Rises=F Damp=F
 DIIS: error= 3.33D-03 at cycle   4 NSaved=   4.
 NSaved= 4 IEnMin= 4 EnMin= -1841.17539531223     IErMin= 4 ErrMin= 3.33D-03
 ErrMax= 3.33D-03 EMaxC= 1.00D-01 BMatC= 3.08D-03 BMatP= 3.00D-02
 IDIUse=3 WtCom= 9.67D-01 WtEn= 3.33D-02
 Coeff-Com: -0.132D-01 0.232D-01 0.278D+00 0.712D+00
 Coeff-En:   0.000D+00 0.000D+00 0.000D+00 0.100D+01
 Coeff:     -0.128D-01 0.224D-01 0.269D+00 0.722D+00
 Gap=     0.389 Goal=   None    Shift=    0.000
 RMSDP=2.50D-04 MaxDP=1.01D-02 DE=-2.64D-02 OVMax= 9.12D-03

 Cycle   5  Pass 0  IDiag  1:
 RMSU=  1.10D-04    CP:  9.66D-01  8.94D-01  9.18D-01  7.57D-01
 E= -1841.17833087092     Delta-E=       -0.002935558699 Rises=F Damp=F
 DIIS: error= 9.25D-04 at cycle   5 NSaved=   5.
 NSaved= 5 IEnMin= 5 EnMin= -1841.17833087092     IErMin= 5 ErrMin= 9.25D-04
 ErrMax= 9.25D-04 EMaxC= 1.00D-01 BMatC= 9.73D-05 BMatP= 3.08D-03
 IDIUse=3 WtCom= 9.91D-01 WtEn= 9.25D-03
 Coeff-Com: -0.132D-02-0.135D-01-0.128D-01 0.631D-01 0.964D+00
 Coeff-En:   0.000D+00 0.000D+00 0.000D+00 0.000D+00 0.100D+01
 Coeff:     -0.130D-02-0.133D-01-0.127D-01 0.625D-01 0.965D+00
 Gap=     0.389 Goal=   None    Shift=    0.000
 RMSDP=7.30D-05 MaxDP=1.97D-03 DE=-2.94D-03 OVMax= 5.34D-03

 Cycle   6  Pass 0  IDiag  1:
 RMSU=  3.82D-05    CP:  9.66D-01  8.95D-01  9.34D-01  8.08D-01  1.17D+00
 E= -1841.17858292071     Delta-E=       -0.000252049782 Rises=F Damp=F
 DIIS: error= 2.53D-04 at cycle   6 NSaved=   6.
 NSaved= 6 IEnMin= 6 EnMin= -1841.17858292071     IErMin= 6 ErrMin= 2.53D-04
 ErrMax= 2.53D-04 EMaxC= 1.00D-01 BMatC= 2.61D-05 BMatP= 9.73D-05
 IDIUse=3 WtCom= 9.97D-01 WtEn= 2.53D-03
 Coeff-Com:  0.234D-02-0.747D-02-0.530D-01-0.143D+00 0.161D+00 0.104D+01
 Coeff-En:   0.000D+00 0.000D+00 0.000D+00 0.000D+00 0.000D+00 0.100D+01
 Coeff:      0.234D-02-0.745D-02-0.529D-01-0.142D+00 0.160D+00 0.104D+01
 Gap=     0.390 Goal=   None    Shift=    0.000
 RMSDP=4.80D-05 MaxDP=1.82D-03 DE=-2.52D-04 OVMax= 3.02D-03

 Cycle   7  Pass 0  IDiag  1:
 RMSU=  1.55D-05    CP:  9.66D-01  8.94D-01  9.44D-01  8.14D-01  1.40D+00
                    CP:  1.19D+00
 E= -1841.17866360508     Delta-E=       -0.000080684370 Rises=F Damp=F
 DIIS: error= 1.83D-04 at cycle   7 NSaved=   7.
 NSaved= 7 IEnMin= 7 EnMin= -1841.17866360508     IErMin= 7 ErrMin= 1.83D-04
 ErrMax= 1.83D-04 EMaxC= 1.00D-01 BMatC= 3.36D-06 BMatP= 2.61D-05
 IDIUse=3 WtCom= 9.98D-01 WtEn= 1.83D-03
 Coeff-Com: -0.689D-04 0.210D-02 0.870D-02 0.474D-03-0.119D+00-0.114D+00
 Coeff-Com:  0.122D+01
 Coeff-En:   0.000D+00 0.000D+00 0.000D+00 0.000D+00 0.000D+00 0.000D+00
 Coeff-En:   0.100D+01
 Coeff:     -0.688D-04 0.210D-02 0.868D-02 0.473D-03-0.119D+00-0.113D+00
 Coeff:      0.122D+01
 Gap=     0.390 Goal=   None    Shift=    0.000
 RMSDP=1.90D-05 MaxDP=7.60D-04 DE=-8.07D-05 OVMax= 1.63D-03

 Cycle   8  Pass 0  IDiag  1:
 RMSU=  6.13D-06    CP:  9.66D-01  8.94D-01  9.45D-01  8.11D-01  1.46D+00
                    CP:  1.37D+00  1.36D+00
 E= -1841.17867678891     Delta-E=       -0.000013183831 Rises=F Damp=F
 DIIS: error= 4.93D-05 at cycle   8 NSaved=   8.
 NSaved= 8 IEnMin= 8 EnMin= -1841.17867678891     IErMin= 8 ErrMin= 4.93D-05
 ErrMax= 4.93D-05 EMaxC= 1.00D-01 BMatC= 7.07D-07 BMatP= 3.36D-06
 IDIUse=1 WtCom= 1.00D+00 WtEn= 0.00D+00
 Coeff-Com: -0.510D-03 0.208D-02 0.142D-01 0.295D-01-0.521D-01-0.260D+00
 Coeff-Com:  0.249D+00 0.102D+01
 Coeff:     -0.510D-03 0.208D-02 0.142D-01 0.295D-01-0.521D-01-0.260D+00
 Coeff:      0.249D+00 0.102D+01
 Gap=     0.390 Goal=   None    Shift=    0.000
 RMSDP=8.18D-06 MaxDP=2.42D-04 DE=-1.32D-05 OVMax= 6.64D-04

 Initial convergence to 1.0D-05 achieved.  Increase integral accuracy.
 Cycle   9  Pass 1  IDiag  1:
 E= -1841.17868502447     Delta-E=       -0.000008235565 Rises=F Damp=F
 DIIS: error= 1.06D-04 at cycle   1 NSaved=   1.
 NSaved= 1 IEnMin= 1 EnMin= -1841.17868502447     IErMin= 1 ErrMin= 1.06D-04
 ErrMax= 1.06D-04 EMaxC= 1.00D-01 BMatC= 2.18D-06 BMatP= 2.18D-06
 IDIUse=3 WtCom= 9.99D-01 WtEn= 1.06D-03
 Coeff-Com:  0.100D+01
 Coeff-En:   0.100D+01
 Coeff:      0.100D+01
 Gap=     0.390 Goal=   None    Shift=    0.000
 RMSDP=8.18D-06 MaxDP=2.42D-04 DE=-8.24D-06 OVMax= 1.97D-04

 Cycle  10  Pass 1  IDiag  1:
 RMSU=  4.15D-05    CP:  1.00D+00
 E= -1841.17868739626     Delta-E=       -0.000002371788 Rises=F Damp=F
 DIIS: error= 1.25D-05 at cycle   2 NSaved=   2.
 NSaved= 2 IEnMin= 2 EnMin= -1841.17868739626     IErMin= 2 ErrMin= 1.25D-05
 ErrMax= 1.25D-05 EMaxC= 1.00D-01 BMatC= 3.89D-08 BMatP= 2.18D-06
 IDIUse=1 WtCom= 1.00D+00 WtEn= 0.00D+00
 Coeff-Com: -0.378D-01 0.104D+01
 Coeff:     -0.378D-01 0.104D+01
 Gap=     0.390 Goal=   None    Shift=    0.000
 RMSDP=3.51D-06 MaxDP=6.17D-05 DE=-2.37D-06 OVMax= 1.19D-04

 Cycle  11  Pass 1  IDiag  1:
 RMSU=  1.04D-06    CP:  1.00D+00  1.05D+00
 E= -1841.17868750725     Delta-E=       -0.000000110995 Rises=F Damp=F
 DIIS: error= 1.02D-05 at cycle   3 NSaved=   3.
 NSaved= 3 IEnMin= 3 EnMin= -1841.17868750725     IErMin= 3 ErrMin= 1.02D-05
 ErrMax= 1.02D-05 EMaxC= 1.00D-01 BMatC= 1.81D-08 BMatP= 3.89D-08
 IDIUse=1 WtCom= 1.00D+00 WtEn= 0.00D+00
 Coeff-Com: -0.233D-01 0.328D+00 0.695D+00
 Coeff:     -0.233D-01 0.328D+00 0.695D+00
 Gap=     0.390 Goal=   None    Shift=    0.000
 RMSDP=5.77D-07 MaxDP=1.78D-05 DE=-1.11D-07 OVMax= 5.41D-05

 Cycle  12  Pass 1  IDiag  1:
 RMSU=  3.96D-07    CP:  1.00D+00  1.06D+00  1.05D+00
 E= -1841.17868754439     Delta-E=       -0.000000037130 Rises=F Damp=F
 DIIS: error= 6.36D-06 at cycle   4 NSaved=   4.
 NSaved= 4 IEnMin= 4 EnMin= -1841.17868754439     IErMin= 4 ErrMin= 6.36D-06
 ErrMax= 6.36D-06 EMaxC= 1.00D-01 BMatC= 5.61D-09 BMatP= 1.81D-08
 IDIUse=1 WtCom= 1.00D+00 WtEn= 0.00D+00
 Coeff-Com:  0.270D-01-0.632D+00-0.288D+00 0.189D+01
 Coeff:      0.270D-01-0.632D+00-0.288D+00 0.189D+01
 Gap=     0.390 Goal=   None    Shift=    0.000
 RMSDP=1.03D-06 MaxDP=2.72D-05 DE=-3.71D-08 OVMax= 1.27D-04

 Cycle  13  Pass 1  IDiag  1:
 RMSU=  3.20D-07    CP:  1.00D+00  1.06D+00  1.54D+00  2.03D+00
 E= -1841.17868758163     Delta-E=       -0.000000037247 Rises=F Damp=F
 DIIS: error= 1.73D-06 at cycle   5 NSaved=   5.
 NSaved= 5 IEnMin= 5 EnMin= -1841.17868758163     IErMin= 5 ErrMin= 1.73D-06
 ErrMax= 1.73D-06 EMaxC= 1.00D-01 BMatC= 4.12D-10 BMatP= 5.61D-09
 IDIUse=1 WtCom= 1.00D+00 WtEn= 0.00D+00
 Coeff-Com:  0.836D-02-0.173D+00-0.127D+00 0.405D+00 0.886D+00
 Coeff:      0.836D-02-0.173D+00-0.127D+00 0.405D+00 0.886D+00
 Gap=     0.390 Goal=   None    Shift=    0.000
 RMSDP=1.97D-07 MaxDP=6.21D-06 DE=-3.72D-08 OVMax= 2.38D-05

 Cycle  14  Pass 1  IDiag  1:
 RMSU=  7.08D-08    CP:  1.00D+00  1.06D+00  1.59D+00  2.23D+00  1.21D+00
 E= -1841.17868758323     Delta-E=       -0.000000001601 Rises=F Damp=F
 DIIS: error= 4.32D-07 at cycle   6 NSaved=   6.
 NSaved= 6 IEnMin= 6 EnMin= -1841.17868758323     IErMin= 6 ErrMin= 4.32D-07
 ErrMax= 4.32D-07 EMaxC= 1.00D-01 BMatC= 7.38D-11 BMatP= 4.12D-10
 IDIUse=1 WtCom= 1.00D+00 WtEn= 0.00D+00
 Coeff-Com: -0.332D-02 0.806D-01 0.374D-01-0.273D+00 0.146D+00 0.101D+01
 Coeff:     -0.332D-02 0.806D-01 0.374D-01-0.273D+00 0.146D+00 0.101D+01
 Gap=     0.390 Goal=   None    Shift=    0.000
 RMSDP=7.74D-08 MaxDP=1.81D-06 DE=-1.60D-09 OVMax= 8.81D-06

 Cycle  15  Pass 1  IDiag  1:
 RMSU=  2.94D-08    CP:  1.00D+00  1.06D+00  1.59D+00  2.30D+00  1.32D+00
                    CP:  1.12D+00
 E= -1841.17868758345     Delta-E=       -0.000000000218 Rises=F Damp=F
 DIIS: error= 2.07D-07 at cycle   7 NSaved=   7.
 NSaved= 7 IEnMin= 7 EnMin= -1841.17868758345     IErMin= 7 ErrMin= 2.07D-07
 ErrMax= 2.07D-07 EMaxC= 1.00D-01 BMatC= 8.64D-12 BMatP= 7.38D-11
 IDIUse=1 WtCom= 1.00D+00 WtEn= 0.00D+00
 Coeff-Com: -0.924D-03 0.189D-01 0.185D-01-0.526D-01-0.925D-01-0.240D-01
 Coeff-Com:  0.113D+01
 Coeff:     -0.924D-03 0.189D-01 0.185D-01-0.526D-01-0.925D-01-0.240D-01
 Coeff:      0.113D+01
 Gap=     0.390 Goal=   None    Shift=    0.000
 RMSDP=2.69D-08 MaxDP=7.19D-07 DE=-2.18D-10 OVMax= 3.03D-06

 Cycle  16  Pass 1  IDiag  1:
 RMSU=  1.11D-08    CP:  1.00D+00  1.06D+00  1.60D+00  2.31D+00  1.34D+00
                    CP:  1.25D+00  1.31D+00
 E= -1841.17868758348     Delta-E=       -0.000000000034 Rises=F Damp=F
 DIIS: error= 9.14D-08 at cycle   8 NSaved=   8.
 NSaved= 8 IEnMin= 8 EnMin= -1841.17868758348     IErMin= 8 ErrMin= 9.14D-08
 ErrMax= 9.14D-08 EMaxC= 1.00D-01 BMatC= 2.54D-12 BMatP= 8.64D-12
 IDIUse=1 WtCom= 1.00D+00 WtEn= 0.00D+00
 Coeff-Com:  0.438D-03-0.118D-01-0.293D-03 0.417D-01-0.595D-01-0.244D+00
 Coeff-Com:  0.384D+00 0.890D+00
 Coeff:      0.438D-03-0.118D-01-0.293D-03 0.417D-01-0.595D-01-0.244D+00
 Coeff:      0.384D+00 0.890D+00
 Gap=     0.390 Goal=   None    Shift=    0.000
 RMSDP=1.16D-08 MaxDP=2.81D-07 DE=-3.37D-11 OVMax= 1.18D-06

 Cycle  17  Pass 1  IDiag  1:
 RMSU=  5.00D-09    CP:  1.00D+00  1.06D+00  1.60D+00  2.31D+00  1.34D+00
                    CP:  1.27D+00  1.51D+00  1.02D+00
 E= -1841.17868758352     Delta-E=       -0.000000000034 Rises=F Damp=F
 DIIS: error= 5.19D-08 at cycle   9 NSaved=   9.
 NSaved= 9 IEnMin= 9 EnMin= -1841.17868758352     IErMin= 9 ErrMin= 5.19D-08
 ErrMax= 5.19D-08 EMaxC= 1.00D-01 BMatC= 2.14D-13 BMatP= 2.54D-12
 IDIUse=1 WtCom= 1.00D+00 WtEn= 0.00D+00
 Coeff-Com:  0.105D-03-0.227D-02-0.101D-02 0.587D-02 0.732D-02-0.117D-01
 Coeff-Com: -0.750D-01 0.158D-01 0.106D+01
 Coeff:      0.105D-03-0.227D-02-0.101D-02 0.587D-02 0.732D-02-0.117D-01
 Coeff:     -0.750D-01 0.158D-01 0.106D+01
 Gap=     0.390 Goal=   None    Shift=    0.000
 RMSDP=4.08D-09 MaxDP=1.15D-07 DE=-3.37D-11 OVMax= 4.81D-07

 SCF Done:  E(RHF) =  -1841.17868758     A.U. after   17 cycles
             Convg  =    0.4077D-08             -V/T =  2.0002
 KE= 1.840873666264D+03 PE=-1.102278814091D+04 EE= 3.987460599226D+03
 Leave Link  502 at Sat Aug 27 06:09:30 2022, MaxMem=  209715200 cpu:     759.6
 (Enter /opt/gaussian/l601.exe)
 Copying SCF densities to generalized density rwf, IOpCl= 0 IROHF=0.

 **********************************************************************

            Population analysis using the SCF density.

 **********************************************************************

 Orbital symmetries:
       Occupied  (A) (A) (A) (A) (A) (A) (A) (A) (A) (A) (A) (A)
                 (A) (A) (A) (A) (A) (A) (A) (A) (A) (A) (A) (A)
                 (A) (A) (A) (A) (A) (A) (A) (A) (A) (A) (A) (A)
                 (A) (A) (A) (A) (A) (A) (A) (A) (A) (A) (A) (A)
                 (A) (A) (A) (A) (A) (A) (A) (A) (A) (A) (A) (A)
                 (A) (A) (A) (A) (A) (A) (A) (A) (A) (A) (A) (A)
                 (A) (A) (A) (A) (A) (A) (A) (A) (A) (A) (A) (A)
                 (A) (A) (A) (A) (A) (A) (A) (A) (A) (A) (A) (A)
                 (A) (A) (A) (A) (A) (A) (A) (A) (A) (A) (A) (A)
                 (A) (A) (A) (A) (A) (A) (A) (A) (A) (A) (A) (A)
                 (A) (A)
       Virtual   (A) (A) (A) (A) (A) (A) (A) (A) (A) (A) (A) (A)
                 (A) (A) (A) (A) (A) (A) (A) (A) (A) (A) (A) (A)
                 (A) (A) (A) (A) (A) (A) (A) (A) (A) (A) (A) (A)
                 (A) (A) (A) (A) (A) (A) (A) (A) (A) (A) (A) (A)
                 (A) (A) (A) (A) (A) (A) (A) (A) (A) (A) (A) (A)
                 (A) (A) (A) (A) (A) (A) (A) (A) (A) (A) (A) (A)
                 (A) (A) (A) (A) (A) (A) (A) (A) (A) (A) (A) (A)
                 (A) (A) (A) (A) (A) (A) (A) (A) (A) (A) (A) (A)
                 (A) (A) (A) (A) (A) (A) (A) (A) (A) (A) (A) (A)
                 (A) (A) (A) (A) (A) (A) (A) (A) (A) (A) (A) (A)
                 (A) (A) (A) (A) (A) (A) (A) (A) (A) (A) (A) (A)
                 (A) (A) (A) (A) (A) (A) (A) (A) (A) (A) (A) (A)
                 (A) (A) (A) (A) (A) (A) (A) (A) (A) (A) (A) (A)
                 (A) (A) (A) (A) (A) (A) (A) (A) (A) (A) (A) (A)
                 (A) (A) (A) (A) (A) (A) (A) (A) (A) (A) (A) (A)
                 (A) (A) (A) (A) (A) (A) (A) (A) (A) (A) (A) (A)
                 (A) (A) (A) (A) (A) (A) (A) (A) (A) (A) (A) (A)
                 (A) (A) (A) (A) (A) (A) (A) (A) (A) (A) (A) (A)
                 (A) (A) (A) (A) (A) (A) (A) (A) (A) (A) (A) (A)
                 (A) (A) (A) (A)
 The electronic state is 1-A.
 Alpha  occ. eigenvalues -- -104.83527 -20.55448 -15.67192 -15.65738 -15.62499
 Alpha  occ. eigenvalues --  -15.62406 -15.58291 -11.39658 -11.33139 -11.32892
 Alpha  occ. eigenvalues --  -11.31628 -11.30814 -11.30482 -11.28703 -11.28666
 Alpha  occ. eigenvalues --  -11.28429 -11.28293 -11.28261 -11.27228 -11.27133
 Alpha  occ. eigenvalues --  -11.27064 -11.26847 -11.26628 -11.26536 -11.26535
 Alpha  occ. eigenvalues --  -11.26426 -11.26343 -11.26225 -11.25896 -11.25858
 Alpha  occ. eigenvalues --  -11.25635 -11.25626 -11.25487 -11.25224 -10.57757
 Alpha  occ. eigenvalues --   -8.04632  -8.04178  -8.04169  -1.46428  -1.41098
 Alpha  occ. eigenvalues --   -1.28939  -1.27054  -1.24550  -1.22267  -1.17617
 Alpha  occ. eigenvalues --   -1.17139  -1.15746  -1.10960  -1.09189  -1.06413
 Alpha  occ. eigenvalues --   -1.05076  -1.04616  -1.03631  -1.03024  -1.02320
 Alpha  occ. eigenvalues --   -0.99773  -0.96473  -0.96352  -0.89421  -0.88428
 Alpha  occ. eigenvalues --   -0.87315  -0.84904  -0.84651  -0.83841  -0.82665
 Alpha  occ. eigenvalues --   -0.81994  -0.80363  -0.76746  -0.72982  -0.72650
 Alpha  occ. eigenvalues --   -0.72092  -0.71471  -0.71123  -0.70235  -0.68742
 Alpha  occ. eigenvalues --   -0.68044  -0.67427  -0.66036  -0.65578  -0.64003
 Alpha  occ. eigenvalues --   -0.63254  -0.63172  -0.62746  -0.62136  -0.61524
 Alpha  occ. eigenvalues --   -0.61139  -0.60483  -0.59980  -0.59789  -0.59650
 Alpha  occ. eigenvalues --   -0.58998  -0.57882  -0.57399  -0.56371  -0.55293
 Alpha  occ. eigenvalues --   -0.55071  -0.54709  -0.54050  -0.53625  -0.53379
 Alpha  occ. eigenvalues --   -0.52443  -0.51878  -0.51397  -0.50853  -0.50771
 Alpha  occ. eigenvalues --   -0.50324  -0.49712  -0.47420  -0.46740  -0.45539
 Alpha  occ. eigenvalues --   -0.42699  -0.42327  -0.41467  -0.40697  -0.38671
 Alpha  occ. eigenvalues --   -0.36504  -0.35600  -0.35119  -0.35007  -0.33861
 Alpha  occ. eigenvalues --   -0.32709  -0.30408
 Alpha virt. eigenvalues --    0.08588   0.09350   0.10078   0.10925   0.11542
 Alpha virt. eigenvalues --    0.12636   0.14233   0.14830   0.17625   0.18885
 Alpha virt. eigenvalues --    0.19997   0.20183   0.21936   0.22789   0.23046
 Alpha virt. eigenvalues --    0.23538   0.23903   0.24754   0.25995   0.26692
 Alpha virt. eigenvalues --    0.27664   0.28248   0.28672   0.29141   0.29590
 Alpha virt. eigenvalues --    0.29985   0.30533   0.31153   0.31539   0.31883
 Alpha virt. eigenvalues --    0.32349   0.33095   0.33683   0.34679   0.35243
 Alpha virt. eigenvalues --    0.35946   0.36288   0.36730   0.37496   0.38848
 Alpha virt. eigenvalues --    0.39249   0.39523   0.40127   0.41020   0.42441
 Alpha virt. eigenvalues --    0.43002   0.43101   0.43463   0.44465   0.46530
 Alpha virt. eigenvalues --    0.47220   0.47790   0.48285   0.49156   0.50486
 Alpha virt. eigenvalues --    0.50909   0.51772   0.52142   0.52567   0.54312
 Alpha virt. eigenvalues --    0.54850   0.56263   0.56369   0.57126   0.57250
 Alpha virt. eigenvalues --    0.59851   0.60595   0.62379   0.62802   0.63219
 Alpha virt. eigenvalues --    0.63626   0.65445   0.69398   0.70821   0.71374
 Alpha virt. eigenvalues --    0.71682   0.72735   0.73272   0.73660   0.73986
 Alpha virt. eigenvalues --    0.75082   0.75663   0.76205   0.76269   0.76610
 Alpha virt. eigenvalues --    0.77150   0.77356   0.77708   0.78193   0.79148
 Alpha virt. eigenvalues --    0.79559   0.79957   0.80453   0.80638   0.81672
 Alpha virt. eigenvalues --    0.82722   0.82827   0.83107   0.83608   0.83999
 Alpha virt. eigenvalues --    0.84354   0.84768   0.85121   0.85620   0.85724
 Alpha virt. eigenvalues --    0.85962   0.86162   0.86526   0.86955   0.87469
 Alpha virt. eigenvalues --    0.87827   0.88284   0.89145   0.89294   0.89631
 Alpha virt. eigenvalues --    0.90416   0.90953   0.91886   0.92011   0.92707
 Alpha virt. eigenvalues --    0.92845   0.93979   0.94662   0.94882   0.95079
 Alpha virt. eigenvalues --    0.95755   0.95907   0.97070   0.97367   0.97889
 Alpha virt. eigenvalues --    0.99605   0.99816   1.00237   1.00574   1.01157
 Alpha virt. eigenvalues --    1.02481   1.03057   1.04744   1.06121   1.06265
 Alpha virt. eigenvalues --    1.08318   1.09110   1.09589   1.09761   1.10045
 Alpha virt. eigenvalues --    1.10451   1.11100   1.11454   1.11560   1.11816
 Alpha virt. eigenvalues --    1.12205   1.12863   1.12951   1.13387   1.14401
 Alpha virt. eigenvalues --    1.14911   1.15298   1.16135   1.16684   1.17064
 Alpha virt. eigenvalues --    1.17439   1.17865   1.18606   1.19685   1.20271
 Alpha virt. eigenvalues --    1.20403   1.21359   1.21895   1.22417   1.22742
 Alpha virt. eigenvalues --    1.24269   1.25427   1.25666   1.26550   1.27694
 Alpha virt. eigenvalues --    1.28862   1.28925   1.29726   1.29917   1.30409
 Alpha virt. eigenvalues --    1.31691   1.32997   1.33212   1.34643   1.36967
 Alpha virt. eigenvalues --    1.37173   1.37686   1.38647   1.39158   1.39242
 Alpha virt. eigenvalues --    1.41040   1.41525   1.41977   1.42444   1.44361
 Alpha virt. eigenvalues --    1.44755   1.46730   1.47083   1.47594   1.49625
 Alpha virt. eigenvalues --    1.51210   1.51750   1.52007   1.53287   1.54819
 Alpha virt. eigenvalues --    1.56677   1.57677   1.60868   1.61751   1.64406
 Alpha virt. eigenvalues --    1.65186   1.67085   1.69267   1.69856   1.70525
 Alpha virt. eigenvalues --    1.70649   1.72905   1.73707   1.75503   1.78332
 Alpha virt. eigenvalues --    1.81415   1.84109   1.87291   1.99168   2.00826
 Alpha virt. eigenvalues --    2.04499   2.09726   2.12124   2.15507   2.18934
 Alpha virt. eigenvalues --    2.21730   2.30794
          Condensed to atoms (all electrons):
 Mulliken atomic charges:
              1
     1  C   -0.497891
     2  C    0.015078
     3  C   -0.148783
     4  C   -0.377072
     5  C   -0.146583
     6  C   -0.011494
     7  C   -0.229189
     8  C   -0.139542
     9  N   -0.974478
    10  C    0.809728
    11  O   -0.577958
    12  C   -0.150200
    13  N   -0.788247
    14  N    0.116802
    15  N   -0.312110
    16  C    0.031602
    17  C   -0.104310
    18  C   -0.234601
    19  C   -0.200542
    20  C   -0.121325
    21  C    0.388758
    22  C    0.321440
    23  C   -0.197751
    24  C   -0.198897
    25  C   -0.024076
    26  C   -0.206088
    27  C   -0.155429
    28  C   -0.090750
    29  C   -0.141567
    30  C   -0.246987
    31  C    0.049661
    32  N   -0.528951
    33  C    0.056393
    34  Cl   0.165227
    35  H    0.171912
    36  H    0.179612
    37  H    0.184716
    38  H    0.240037
    39  H    0.262961
    40  H    0.219197
    41  H    0.186910
    42  H    0.226600
    43  H    0.240981
    44  H    0.240211
    45  H    0.246954
    46  H    0.209611
    47  H    0.212230
    48  H    0.227637
    49  H    0.218085
    50  H    0.220488
    51  H    0.230462
    52  H    0.247967
    53  H    0.225943
    54  H    0.217231
    55  H    0.212490
    56  H    0.227901
 Sum of Mulliken atomic charges =   0.00000
 Mulliken charges with hydrogens summed into heavy atoms:
              1
     1  C    0.038348
     2  C    0.015078
     3  C    0.091254
     4  C   -0.377072
     5  C    0.116377
     6  C   -0.011494
     7  C   -0.009992
     8  C    0.273968
     9  N   -0.974478
    10  C    0.809728
    11  O   -0.577958
    12  C    0.330992
    13  N   -0.788247
    14  N    0.116802
    15  N   -0.312110
    16  C    0.031602
    17  C    0.142644
    18  C   -0.024990
    19  C    0.011687
    20  C    0.106312
    21  C    0.388758
    22  C    0.321440
    23  C    0.020334
    24  C    0.021591
    25  C   -0.024076
    26  C    0.024373
    27  C    0.092538
    28  C   -0.090750
    29  C    0.084376
    30  C   -0.029756
    31  C    0.262151
    32  N   -0.528951
    33  C    0.284294
    34  Cl   0.165227
 Sum of Mulliken charges with hydrogens summed into heavy atoms =   0.00000
 Electronic spatial extent (au):  <R**2>=          21154.6927
 Charge=              0.0000 electrons
 Dipole moment (field-independent basis, Debye):
    X=             -1.6958    Y=              9.0175    Z=             -1.8847  Tot=              9.3671
 Quadrupole moment (field-independent basis, Debye-Ang):
   XX=           -193.5107   YY=           -227.3714   ZZ=           -202.3984
   XY=             -0.9056   XZ=            -23.5641   YZ=            -21.2781
 Traceless Quadrupole moment (field-independent basis, Debye-Ang):
   XX=             14.2495   YY=            -19.6113   ZZ=              5.3618
   XY=             -0.9056   XZ=            -23.5641   YZ=            -21.2781
 Octapole moment (field-independent basis, Debye-Ang**2):
  XXX=             37.9162  YYY=            115.5041  ZZZ=            -13.5482  XYY=            -76.2002
  XXY=            161.2249  XXZ=            -18.5807  XZZ=            -35.7565  YZZ=             22.4484
  YYZ=             32.4491  XYZ=             76.0501
 Hexadecapole moment (field-independent basis, Debye-Ang**3):
 XXXX=         -18485.9861 YYYY=          -7608.7077 ZZZZ=          -2510.9365 XXXY=            845.4649
 XXXZ=           -910.2966 YYYX=           -179.5491 YYYZ=           -234.8671 ZZZX=           -153.3274
 ZZZY=            -65.6080 XXYY=          -4663.9745 XXZZ=          -3760.0427 YYZZ=          -1794.0038
 XXYZ=           -170.1784 YYXZ=           -294.4301 ZZXY=             36.9601
 N-N= 3.353275187836D+03 E-N=-1.102278814023D+04  KE= 1.840873666264D+03
 No NMR shielding tensors so no spin-rotation constants.
 Leave Link  601 at Sat Aug 27 06:09:30 2022, MaxMem=  209715200 cpu:       1.5
 (Enter /opt/gaussian/l701.exe)
 Compute integral first derivatives.
 ... and contract with generalized density number  0.
 Leave Link  701 at Sat Aug 27 06:09:30 2022, MaxMem=  209715200 cpu:       1.4
 (Enter /opt/gaussian/l702.exe)
 L702 exits ... SP integral derivatives will be done elsewhere.
 Leave Link  702 at Sat Aug 27 06:09:30 2022, MaxMem=  209715200 cpu:       0.2
 (Enter /opt/gaussian/l703.exe)
 Compute integral first derivatives, UseDBF=F ICtDFT=           0.
 Integral derivatives from FoFDir, PRISM(SPDF).
 Calling FoFJK, ICntrl=      2127 FMM=F ISym2X=0 I1Cent= 0 IOpClX= 0 NMat=1 NMatS=1 NMatT=0.
 FoFCou: FMM=F IPFlag=           0 FMFlag=      100000 FMFlg1=         800
         NFxFlg=           0 DoJE=F BraDBF=F KetDBF=F FulRan=T
         Omega=  0.000000  0.000000  1.000000  0.000000  0.000000 ICntrl=    2127 IOpCl=  0
         NMat0=    1 NMatS0=    1 NMatT0=    0 NMatD0=    1 NMtDS0=    0 NMtDT0=    0
         I1Cent=           0 NGrid=           0.
 Symmetry not used in FoFCou.
 Leave Link  703 at Sat Aug 27 06:10:05 2022, MaxMem=  209715200 cpu:     282.6
 (Enter /opt/gaussian/l716.exe)
 Dipole        =-6.67177807D-01 3.54774022D+00-7.41516994D-01
 ***** Axes restored to original set *****
 -------------------------------------------------------------------
 Center     Atomic                   Forces (Hartrees/Bohr)
 Number     Number              X              Y              Z
 -------------------------------------------------------------------
      1        6           0.028892985   -0.017394334   -0.007636092
      2        6          -0.015795182    0.009857512    0.002702537
      3        6          -0.002396385    0.000513275    0.003679230
      4        6           0.021910868    0.000480082   -0.063128520
      5        6          -0.004329592    0.002837306    0.004791975
      6        6           0.007045251   -0.006478711    0.006910304
      7        6          -0.000085762   -0.001039915   -0.000027249
      8        6           0.000352744   -0.022570690   -0.041188962
      9        7           0.012786398    0.018220095    0.012026313
     10        6          -0.022243339    0.018904563    0.003850461
     11        8           0.021625766   -0.028111567   -0.010029544
     12        6           0.008364963   -0.023798198   -0.017280430
     13        7          -0.000436025    0.023143202    0.049404265
     14        7          -0.003078923   -0.013782927   -0.010502358
     15        7           0.009097982   -0.001303851    0.030216159
     16        6          -0.012718133   -0.046887185   -0.006007844
     17        6          -0.000146218    0.009865871   -0.006699750
     18        6           0.006134661    0.011886576    0.007590972
     19        6           0.001217642   -0.007530223    0.010503277
     20        6          -0.004351030   -0.010795353   -0.001530705
     21        6           0.006470686    0.035317432   -0.029518685
     22        6          -0.026933441    0.007864867    0.003916359
     23        6           0.011173199    0.000078671   -0.002005108
     24        6          -0.004870862   -0.004733316   -0.004552202
     25        6           0.018719818    0.000123923   -0.004287847
     26        6          -0.000635747    0.003641789    0.006131563
     27        6           0.011860081    0.001870758    0.000287852
     28        6          -0.026854110    0.008084868    0.009624156
     29        6          -0.001437333   -0.003186988   -0.002226165
     30        6          -0.006704029    0.004178301    0.002575476
     31        6          -0.013038329   -0.001019323    0.002185163
     32        7           0.009559116   -0.021974844   -0.012324193
     33        6           0.004860300    0.006051832    0.002586009
     34       17          -0.018493253   -0.000866640    0.054627789
     35        1          -0.004071727   -0.005842941    0.022661448
     36        1          -0.014637057   -0.008398835   -0.015181541
     37        1           0.007105367    0.021098189   -0.003423990
     38        1          -0.011643931    0.010709938   -0.012908902
     39        1           0.019522458   -0.011116704   -0.004206429
     40        1          -0.006114332   -0.000029168    0.018216372
     41        1          -0.019263455   -0.009311010    0.022153603
     42        1           0.023847391    0.022988312    0.004472357
     43        1          -0.010521724    0.020008631   -0.023780688
     44        1          -0.000289622    0.008266505    0.029928619
     45        1          -0.004032028   -0.019222613    0.003966049
     46        1          -0.008610163   -0.011674006   -0.014121115
     47        1          -0.005102716    0.007050843   -0.018237084
     48        1           0.003810817    0.017689038   -0.002809521
     49        1          -0.004448842    0.009661568    0.017215375
     50        1           0.014119218    0.008906293    0.012251903
     51        1           0.007097164   -0.009867725   -0.017522825
     52        1          -0.014809357   -0.010110061   -0.015240420
     53        1          -0.007134693    0.015693670    0.010229465
     54        1           0.011482250    0.014184499    0.005187665
     55        1           0.022891156   -0.003059566   -0.006302585
     56        1          -0.014720937   -0.019071713   -0.007211961
 -------------------------------------------------------------------
 Cartesian Forces:  Max     0.063128520 RMS     0.015612909
 Leave Link  716 at Sat Aug 27 06:10:05 2022, MaxMem=  209715200 cpu:       0.2
 (Enter /opt/gaussian/l103.exe)

 GradGradGradGradGradGradGradGradGradGradGradGradGradGradGradGradGradGrad
 Berny optimization.
 Internal  Forces:  Max     0.057679679 RMS     0.009913854
 Search for a local minimum.
 Step number   1 out of a maximum of  312
 All quantities printed in internal units (Hartrees-Bohrs-Radians)
 RMS Force = .99139D-02 SwitMx=.10000D-02 MixMth= 1
 Mixed Optimization -- RFO/linear search
 Second derivative matrix not updated -- first step.
 ITU=  0
     Eigenvalues ---    0.00255   0.00696   0.00830   0.01010   0.01112
     Eigenvalues ---    0.01175   0.01339   0.01386   0.01393   0.01552
     Eigenvalues ---    0.01579   0.01664   0.01666   0.01707   0.01735
     Eigenvalues ---    0.01766   0.01774   0.01774   0.01849   0.01976
     Eigenvalues ---    0.01982   0.02049   0.02055   0.02061   0.02072
     Eigenvalues ---    0.02078   0.02092   0.02096   0.02100   0.02107
     Eigenvalues ---    0.02108   0.02111   0.02112   0.02113   0.02120
     Eigenvalues ---    0.02124   0.02125   0.02125   0.02128   0.02129
     Eigenvalues ---    0.02144   0.02156   0.02158   0.02176   0.02182
     Eigenvalues ---    0.02187   0.02319   0.04705   0.04792   0.06489
     Eigenvalues ---    0.06545   0.07369   0.07535   0.10321   0.10630
     Eigenvalues ---    0.13475   0.13655   0.15989   0.15997   0.15999
     Eigenvalues ---    0.15999   0.16000   0.16000   0.16000   0.16000
     Eigenvalues ---    0.16000   0.16000   0.16000   0.16000   0.16000
     Eigenvalues ---    0.16000   0.16000   0.16000   0.16000   0.16000
     Eigenvalues ---    0.22000   0.22000   0.22001   0.22081   0.22146
     Eigenvalues ---    0.22577   0.22960   0.22966   0.23196   0.23444
     Eigenvalues ---    0.23467   0.23479   0.23497   0.24000   0.24427
     Eigenvalues ---    0.24578   0.24829   0.24875   0.24957   0.24959
     Eigenvalues ---    0.24995   0.24998   0.24998   0.24999   0.25000
     Eigenvalues ---    0.25000   0.25000   0.28643   0.30447   0.30568
     Eigenvalues ---    0.30631   0.30671   0.31625   0.31719   0.31826
     Eigenvalues ---    0.31827   0.33054   0.33189   0.33419   0.33456
     Eigenvalues ---    0.33521   0.33536   0.33548   0.33548   0.33577
     Eigenvalues ---    0.33592   0.33592   0.33669   0.33745   0.33923
     Eigenvalues ---    0.33941   0.34394   0.34971   0.35927   0.37386
     Eigenvalues ---    0.38196   0.39061   0.39713   0.40471   0.40931
     Eigenvalues ---    0.41581   0.41701   0.41951   0.41996   0.42000
[...]
 RotChk:  IX=0 Diff= 1.69D-15
 Largest Abelian subgroup         C1      NOp   1
 Largest concise Abelian subgroup C1      NOp   1
                         Standard orientation:                         
 ---------------------------------------------------------------------
 Center     Atomic      Atomic             Coordinates (Angstroms)
 Number     Number       Type             X           Y           Z
 ---------------------------------------------------------------------
      1          6           0       -4.462278    4.402273   -1.120695
      2          6           0       -3.094059    3.916796   -0.707324
      3          6           0       -2.200578    4.769558   -0.070615
      4          6           0       -0.948352    4.302084    0.275729
      5          6           0       -0.543722    3.012934    0.014922
      6          6           0       -1.432530    2.146812   -0.617200
      7          6           0       -2.695626    2.606649   -0.968804
      8          6           0       -1.027607    0.726433   -0.970225
      9          7           0       -0.371373   -0.024552    0.116984
     10          6           0       -1.058864   -0.567298    1.160185
     11          8           0       -0.508045   -1.164179    2.081424
     12          6           0       -2.578208   -0.462115    1.187814
     13          7           0       -3.199746   -1.433309    0.314877
     14          7           0       -3.972018   -1.027184   -0.733975
     15          7           0       -4.475088   -2.040634   -1.309443
     16          6           0       -4.059461   -3.184370   -0.648675
     17          6           0       -4.347756   -4.528719   -0.888807
     18          6           0       -3.784524   -5.450156   -0.041918
     19          6           0       -2.946066   -5.047735    1.023709
     20          6           0       -2.653162   -3.727535    1.268375
     21          6           0       -3.236622   -2.796342    0.401900
     22          6           0        1.050471   -0.225118    0.041668
     23          6           0        1.587484   -0.933495   -1.023497
     24          6           0        2.957734   -1.108376   -1.127296
     25          6           0        3.820112   -0.590854   -0.163001
     26          6           0        3.265679    0.105151    0.910414
     27          6           0        1.897114    0.287968    1.013547
     28          6           0        5.288057   -0.781475   -0.272031
     29          6           0        5.964485   -0.603437   -1.477068
     30          6           0        7.336209   -0.792532   -1.529942
     31          6           0        8.003645   -1.153468   -0.371307
     32          7           0        7.366247   -1.328075    0.784604
     33          6           0        6.049671   -1.150340    0.835561
     34         17           0        0.203644    5.429147    1.103615
     35          1           0       -5.201533    3.616823   -1.026173
     36          1           0       -4.782948    5.239749   -0.514568
     37          1           0       -4.459333    4.726864   -2.156408
     38          1           0       -2.475288    5.780241    0.154232
     39          1           0        0.437647    2.690207    0.292915
     40          1           0       -3.385326    1.933411   -1.443895
     41          1           0       -1.892083    0.185302   -1.320323
     42          1           0       -0.324762    0.754384   -1.789250
     43          1           0       -2.873405   -0.652629    2.208138
     44          1           0       -2.936370    0.508934    0.893779
     45          1           0       -4.984322   -4.813067   -1.702103
     46          1           0       -3.975966   -6.495303   -0.184175
     47          1           0       -2.522286   -5.801778    1.657961
     48          1           0       -2.001467   -3.426880    2.063047
     49          1           0        0.936479   -1.364039   -1.759722
     50          1           0        3.353342   -1.676943   -1.946457
     51          1           0        3.906740    0.524437    1.660965
     52          1           0        1.487739    0.813407    1.852030
     53          1           0        5.426982   -0.303156   -2.355632
     54          1           0        7.875758   -0.654789   -2.445449
     55          1           0        9.062908   -1.306595   -0.360771
     56          1           0        5.586275   -1.324113    1.785188
 ---------------------------------------------------------------------
 Rotational constants (GHZ):      0.1146322      0.0729066      0.0484673
 Leave Link  202 at Sat Aug 27 07:33:17 2022, MaxMem=  209715200 cpu:       0.0
 (Enter /opt/gaussian/l601.exe)
 Copying SCF densities to generalized density rwf, IOpCl= 0 IROHF=0.

 **********************************************************************

            Population analysis using the SCF density.

 **********************************************************************

 Orbital symmetries:
       Occupied  (A) (A) (A) (A) (A) (A) (A) (A) (A) (A) (A) (A)
                 (A) (A) (A) (A) (A) (A) (A) (A) (A) (A) (A) (A)
                 (A) (A) (A) (A) (A) (A) (A) (A) (A) (A) (A) (A)
                 (A) (A) (A) (A) (A) (A) (A) (A) (A) (A) (A) (A)
                 (A) (A) (A) (A) (A) (A) (A) (A) (A) (A) (A) (A)
                 (A) (A) (A) (A) (A) (A) (A) (A) (A) (A) (A) (A)
                 (A) (A) (A) (A) (A) (A) (A) (A) (A) (A) (A) (A)
                 (A) (A) (A) (A) (A) (A) (A) (A) (A) (A) (A) (A)
                 (A) (A) (A) (A) (A) (A) (A) (A) (A) (A) (A) (A)
                 (A) (A) (A) (A) (A) (A) (A) (A) (A) (A) (A) (A)
                 (A) (A)
       Virtual   (A) (A) (A) (A) (A) (A) (A) (A) (A) (A) (A) (A)
                 (A) (A) (A) (A) (A) (A) (A) (A) (A) (A) (A) (A)
                 (A) (A) (A) (A) (A) (A) (A) (A) (A) (A) (A) (A)
                 (A) (A) (A) (A) (A) (A) (A) (A) (A) (A) (A) (A)
                 (A) (A) (A) (A) (A) (A) (A) (A) (A) (A) (A) (A)
                 (A) (A) (A) (A) (A) (A) (A) (A) (A) (A) (A) (A)
                 (A) (A) (A) (A) (A) (A) (A) (A) (A) (A) (A) (A)
                 (A) (A) (A) (A) (A) (A) (A) (A) (A) (A) (A) (A)
                 (A) (A) (A) (A) (A) (A) (A) (A) (A) (A) (A) (A)
                 (A) (A) (A) (A) (A) (A) (A) (A) (A) (A) (A) (A)
                 (A) (A) (A) (A) (A) (A) (A) (A) (A) (A) (A) (A)
                 (A) (A) (A) (A) (A) (A) (A) (A) (A) (A) (A) (A)
                 (A) (A) (A) (A) (A) (A) (A) (A) (A) (A) (A) (A)
                 (A) (A) (A) (A) (A) (A) (A) (A) (A) (A) (A) (A)
                 (A) (A) (A) (A) (A) (A) (A) (A) (A) (A) (A) (A)
                 (A) (A) (A) (A) (A) (A) (A) (A) (A) (A) (A) (A)
                 (A) (A) (A) (A) (A) (A) (A) (A) (A) (A) (A) (A)
                 (A) (A) (A) (A) (A) (A) (A) (A) (A) (A) (A) (A)
                 (A) (A) (A) (A) (A) (A) (A) (A) (A) (A) (A) (A)
                 (A) (A) (A) (A)
 The electronic state is 1-A.
 Alpha  occ. eigenvalues -- -104.82179 -20.55150 -15.68031 -15.67177 -15.62898
 Alpha  occ. eigenvalues --  -15.62085 -15.57669 -11.38965 -11.32452 -11.31156
 Alpha  occ. eigenvalues --  -11.30674 -11.29745 -11.29724 -11.28001 -11.27957
 Alpha  occ. eigenvalues --  -11.27931 -11.27342 -11.27220 -11.26582 -11.26523
 Alpha  occ. eigenvalues --  -11.26399 -11.26299 -11.26104 -11.25992 -11.25890
 Alpha  occ. eigenvalues --  -11.25879 -11.25533 -11.25345 -11.25247 -11.25208
 Alpha  occ. eigenvalues --  -11.25193 -11.25154 -11.25082 -11.23690 -10.56098
 Alpha  occ. eigenvalues --   -8.02948  -8.02563  -8.02546  -1.48938  -1.42211
 Alpha  occ. eigenvalues --   -1.28469  -1.28106  -1.26050  -1.20650  -1.18840
 Alpha  occ. eigenvalues --   -1.18003  -1.12854  -1.11167  -1.08573  -1.07493
 Alpha  occ. eigenvalues --   -1.06937  -1.05686  -1.04085  -1.03098  -1.02804
 Alpha  occ. eigenvalues --   -1.00690  -0.96824  -0.96310  -0.89947  -0.89275
 Alpha  occ. eigenvalues --   -0.87801  -0.86291  -0.85050  -0.84573  -0.82574
 Alpha  occ. eigenvalues --   -0.82327  -0.81969  -0.77972  -0.74568  -0.73686
 Alpha  occ. eigenvalues --   -0.73390  -0.71835  -0.70831  -0.70366  -0.68722
 Alpha  occ. eigenvalues --   -0.68371  -0.68116  -0.66494  -0.66372  -0.65631
 Alpha  occ. eigenvalues --   -0.63673  -0.63482  -0.62911  -0.62789  -0.62207
 Alpha  occ. eigenvalues --   -0.60833  -0.60285  -0.60259  -0.59689  -0.59380
 Alpha  occ. eigenvalues --   -0.58955  -0.58427  -0.57881  -0.56585  -0.55918
 Alpha  occ. eigenvalues --   -0.55210  -0.55172  -0.54425  -0.54004  -0.53565
 Alpha  occ. eigenvalues --   -0.52318  -0.51893  -0.51547  -0.50877  -0.50751
 Alpha  occ. eigenvalues --   -0.50533  -0.49789  -0.46585  -0.46212  -0.45621
 Alpha  occ. eigenvalues --   -0.44036  -0.42930  -0.41588  -0.40373  -0.38847
 Alpha  occ. eigenvalues --   -0.36935  -0.35451  -0.35109  -0.34929  -0.34602
 Alpha  occ. eigenvalues --   -0.33153  -0.31777
 Alpha virt. eigenvalues --    0.08415   0.09388   0.11362   0.11854   0.12018
 Alpha virt. eigenvalues --    0.12719   0.14456   0.14971   0.17013   0.18144
 Alpha virt. eigenvalues --    0.19057   0.23504   0.23878   0.24129   0.24557
 Alpha virt. eigenvalues --    0.25507   0.26564   0.27595   0.27821   0.28000
 Alpha virt. eigenvalues --    0.28850   0.28997   0.29254   0.29904   0.30472
 Alpha virt. eigenvalues --    0.30805   0.31431   0.31680   0.32224   0.32553
 Alpha virt. eigenvalues --    0.33557   0.33958   0.34570   0.35110   0.35561
 Alpha virt. eigenvalues --    0.35823   0.36466   0.36908   0.37983   0.38506
 Alpha virt. eigenvalues --    0.39716   0.40073   0.40709   0.41583   0.41685
 Alpha virt. eigenvalues --    0.42634   0.43365   0.43846   0.45636   0.45794
 Alpha virt. eigenvalues --    0.47868   0.48523   0.49049   0.49563   0.50283
 Alpha virt. eigenvalues --    0.51594   0.51683   0.52453   0.53290   0.54743
 Alpha virt. eigenvalues --    0.55627   0.56637   0.57430   0.58102   0.59149
 Alpha virt. eigenvalues --    0.59866   0.61474   0.61955   0.62729   0.63915
 Alpha virt. eigenvalues --    0.64621   0.65618   0.69231   0.70837   0.71468
 Alpha virt. eigenvalues --    0.71999   0.72639   0.73605   0.73668   0.74044
 Alpha virt. eigenvalues --    0.74587   0.75559   0.75679   0.76662   0.77012
 Alpha virt. eigenvalues --    0.77249   0.77833   0.78281   0.78759   0.79408
 Alpha virt. eigenvalues --    0.79838   0.80434   0.80952   0.81483   0.81909
 Alpha virt. eigenvalues --    0.82181   0.82641   0.82962   0.83694   0.84134
 Alpha virt. eigenvalues --    0.84775   0.84888   0.85109   0.85364   0.85692
 Alpha virt. eigenvalues --    0.85892   0.86107   0.86513   0.86980   0.87780
 Alpha virt. eigenvalues --    0.88424   0.88552   0.89589   0.89749   0.89797
 Alpha virt. eigenvalues --    0.90649   0.91111   0.91793   0.92534   0.92933
 Alpha virt. eigenvalues --    0.93303   0.94232   0.95021   0.95943   0.96136
 Alpha virt. eigenvalues --    0.96976   0.97257   0.97967   0.98501   0.99139
 Alpha virt. eigenvalues --    0.99304   1.00621   1.00964   1.01071   1.02183
 Alpha virt. eigenvalues --    1.02892   1.03642   1.04596   1.06035   1.08764
 Alpha virt. eigenvalues --    1.09395   1.10177   1.10685   1.11675   1.11897
 Alpha virt. eigenvalues --    1.12402   1.12935   1.13145   1.13316   1.13762
 Alpha virt. eigenvalues --    1.14119   1.14536   1.14670   1.15043   1.16106
 Alpha virt. eigenvalues --    1.16266   1.16774   1.17656   1.18615   1.19077
 Alpha virt. eigenvalues --    1.19483   1.20091   1.20553   1.20961   1.21465
 Alpha virt. eigenvalues --    1.21663   1.22822   1.23503   1.24671   1.25032
 Alpha virt. eigenvalues --    1.25384   1.26288   1.27305   1.28017   1.28264
 Alpha virt. eigenvalues --    1.29238   1.29637   1.30097   1.30606   1.31368
 Alpha virt. eigenvalues --    1.32232   1.33151   1.35796   1.35959   1.36529
 Alpha virt. eigenvalues --    1.38094   1.38814   1.39007   1.39699   1.40882
 Alpha virt. eigenvalues --    1.41888   1.42235   1.43292   1.43875   1.45279
 Alpha virt. eigenvalues --    1.45379   1.45486   1.47483   1.47804   1.49295
 Alpha virt. eigenvalues --    1.50326   1.51570   1.51967   1.52790   1.55882
 Alpha virt. eigenvalues --    1.56722   1.59527   1.62067   1.63749   1.65330
 Alpha virt. eigenvalues --    1.67400   1.69690   1.70933   1.72018   1.72498
 Alpha virt. eigenvalues --    1.73801   1.73998   1.77475   1.78128   1.80530
 Alpha virt. eigenvalues --    1.84408   1.88147   1.92300   2.00614   2.05256
 Alpha virt. eigenvalues --    2.10740   2.12684   2.15679   2.18887   2.21549
 Alpha virt. eigenvalues --    2.25117   2.36098
          Condensed to atoms (all electrons):
 Mulliken atomic charges:
              1
     1  C   -0.472897
     2  C    0.000538
     3  C   -0.163766
     4  C   -0.313334
     5  C   -0.152094
     6  C   -0.015635
     7  C   -0.241291
     8  C   -0.123641
     9  N   -0.952141
    10  C    0.789412
    11  O   -0.595763
    12  C   -0.128981
    13  N   -0.876971
    14  N    0.062234
    15  N   -0.330714
    16  C   -0.012369
    17  C   -0.082106
    18  C   -0.229866
    19  C   -0.208765
    20  C   -0.080212
    21  C    0.436297
    22  C    0.296347
    23  C   -0.182271
    24  C   -0.201596
    25  C   -0.014323
    26  C   -0.208894
    27  C   -0.146838
    28  C   -0.091832
    29  C   -0.140172
    30  C   -0.245261
    31  C    0.059098
    32  N   -0.532637
    33  C    0.061308
    34  Cl   0.092942
    35  H    0.180852
    36  H    0.173215
    37  H    0.185727
    38  H    0.237318
    39  H    0.252411
    40  H    0.247715
    41  H    0.239695
    42  H    0.217755
    43  H    0.243755
    44  H    0.252624
    45  H    0.242042
    46  H    0.208195
    47  H    0.212773
    48  H    0.278745
    49  H    0.221093
    50  H    0.218393
    51  H    0.225577
    52  H    0.235281
    53  H    0.222754
    54  H    0.214964
    55  H    0.211754
    56  H    0.223556
 Sum of Mulliken atomic charges =   0.00000
 Mulliken charges with hydrogens summed into heavy atoms:
              1
     1  C    0.066896
     2  C    0.000538
     3  C    0.073552
     4  C   -0.313334
     5  C    0.100316
     6  C   -0.015635
     7  C    0.006424
     8  C    0.333809
     9  N   -0.952141
    10  C    0.789412
    11  O   -0.595763
    12  C    0.367398
    13  N   -0.876971
    14  N    0.062234
    15  N   -0.330714
    16  C   -0.012369
    17  C    0.159936
    18  C   -0.021670
    19  C    0.004008
    20  C    0.198532
    21  C    0.436297
    22  C    0.296347
    23  C    0.038822
    24  C    0.016798
    25  C   -0.014323
    26  C    0.016684
    27  C    0.088443
    28  C   -0.091832
    29  C    0.082582
    30  C   -0.030297
    31  C    0.270852
    32  N   -0.532637
    33  C    0.284864
    34  Cl   0.092942
 Sum of Mulliken charges with hydrogens summed into heavy atoms =   0.00000
 Electronic spatial extent (au):  <R**2>=          21045.9209
 Charge=              0.0000 electrons
 Dipole moment (field-independent basis, Debye):
    X=             -1.9591    Y=             -0.5412    Z=             -3.4033  Tot=              3.9640
 Quadrupole moment (field-independent basis, Debye-Ang):
   XX=           -213.9768   YY=           -200.8909   ZZ=           -207.2637
   XY=             -1.1897   XZ=            -23.9927   YZ=             -0.0593
 Traceless Quadrupole moment (field-independent basis, Debye-Ang):
   XX=             -6.5997   YY=              6.4862   ZZ=              0.1134
   XY=             -1.1897   XZ=            -23.9927   YZ=             -0.0593
 Octapole moment (field-independent basis, Debye-Ang**2):
  XXX=            -10.1337  YYY=           -127.8821  ZZZ=             -9.4025  XYY=           -152.2475
  XXY=             79.3389  XXZ=           -110.4115  XZZ=             20.2678  YZZ=              3.9533
  YYZ=            -20.1167  XYZ=             37.3077
 Hexadecapole moment (field-independent basis, Debye-Ang**3):
 XXXX=         -18054.4665 YYYY=          -9951.7601 ZZZZ=          -1430.0639 XXXY=             59.8112
 XXXZ=          -1239.9958 YYYX=            171.5803 YYYZ=           -126.0184 ZZZX=            -90.1686
 ZZZY=             30.4210 XXYY=          -4431.7856 XXZZ=          -3139.1984 YYZZ=          -2006.9034
 XXYZ=            171.7749 YYXZ=             70.5127 ZZXY=              8.5188
 N-N= 3.371985488646D+03 E-N=-1.106205631369D+04  KE= 1.842748302821D+03
 No NMR shielding tensors so no spin-rotation constants.
 Leave Link  601 at Sat Aug 27 07:33:17 2022, MaxMem=  209715200 cpu:       1.6
 (Enter /opt/gaussian/l9999.exe)
 1\1\GINC-LQCAPF-6\FOpt\RHF\6-31G\C27H22Cl1N5O1\LQCAPF-6\27-Aug-2022\0\
 \#p opt hf/6-31G\\Mol33.out\\0,1\C,25.4680341925,-13.5471117223,-2.408
 3414918\C,24.1034223516,-13.1058706437,-1.9374618359\C,23.3091751122,-
 13.9506515421,-1.1716785514\C,22.0566675003,-13.5264739075,-0.77436904
 76\C,21.5566238752,-12.2885209794,-1.1076550591\C,22.3457029452,-11.43
 03223012,-1.8696106958\C,23.6082085365,-11.8467368534,-2.2735464025\C,
 21.8310592925,-10.0695922798,-2.3050640112\N,21.2044584259,-9.26764182
 6,-1.2369379337\C,21.9258502098,-8.6013916796,-0.2929090247\O,21.40255
 3836,-7.9608303028,0.6149414263\C,23.4471934755,-8.6187070115,-0.36671
 82221\N,23.9474170841,-7.6912011649,-1.3572007346\N,24.6708760694,-8.1
 403358431,-2.4231816321\N,25.0705548433,-7.1523760109,-3.1127588925\C,
 24.6306018989,-5.982124679,-2.5174058544\C,24.8185729821,-4.6487476406
 ,-2.8845864531\C,24.2578824935,-3.6922459353,-2.0757422795\C,23.519531
 2232,-4.0498069281,-0.9235692798\C,23.3257857754,-5.3590357987,-0.5534
 812035\C,23.9059016458,-6.3257595763,-1.3824769637\C,19.7711105494,-9.
 1539923269,-1.225213843\C,19.1208955786,-8.5689572263,-2.3021131801\C,
 17.738592448,-8.4803716334,-2.3203755835\C,16.9766966824,-8.9623131299
 ,-1.2580019569\C,17.6440522853,-9.5333695558,-0.1751492495\C,19.025121
 8365,-9.630000555,-0.1567913843\C,15.4957838167,-8.8639742204,-1.27567
 04661\C,14.7520072515,-9.1803892869,-2.4105909724\C,13.3707884966,-9.0
 734581784,-2.3792567761\C,12.7619097044,-8.6541732691,-1.2080832826\N,
 13.4637226474,-8.3474914331,-0.1189095256\C,14.7891931871,-8.446367056
 ,-0.1490782673\Cl,21.0347862103,-14.6425209778,0.2221038933\H,26.16210
 37634,-12.7163678981,-2.4306317524\H,25.8798594986,-14.311332255,-1.76
 18477602\H,25.4153713008,-13.9573959895,-3.411816422\H,23.6602388101,-
 14.921860389,-0.8870565445\H,20.5781684553,-11.9989490636,-0.786265178
 \H,24.221489196,-11.1783554162,-2.8495670625\H,22.6349540669,-9.512339
 4698,-2.7588620308\H,21.0777133971,-10.2056704341,-3.0663313811\H,23.7
 981228262,-8.326758014,0.6110925127\H,23.8439668604,-9.5894969212,-0.6
 071530498\H,25.3801562817,-4.398708566,-3.7618689973\H,24.3744585178,-
 2.6537171514,-2.3146707564\H,23.0937162344,-3.2699417721,-0.3227881881
 \H,22.7488874262,-5.6277129138,0.3076839347\H,19.6930280834,-8.1661752
 65,-3.1155212922\H,17.2543856153,-8.0058108673,-3.1517201658\H,17.0820
 911735,-9.9231890145,0.6508827581\H,19.5216780874,-10.0592583455,0.689
 3152713\H,15.2466171323,-9.5230217493,-3.2988010091\H,12.7803327663,-9
 .3177534558,-3.2394432127\H,11.6983361079,-8.5602067419,-1.1333883335\
 H,15.3038899357,-8.1676148316,0.7476433963\\Version=EM64L-G09RevC.01\S
 tate=1-A\HF=-1841.2294005\RMSD=7.447e-09\RMSF=1.819e-06\Dipole=0.66421
 75,0.1422349,-1.4038699\Quadrupole=-2.345899,4.8352737,-2.4893747,0.12
 31979,18.0190139,0.6373101\PG=C01 [X(C27H22Cl1N5O1)]\\@


 THE TRULY SUCCESSFUL PERFORMANCE OF RESEARCHES IN
 INORGANIC CHEMISTRY IS POSSIBLE ONLY TO ONE WHO IS NOT
 ONLY A THEORETICAL CHEMIST, BUT ALSO AN ACCOMPLISHED
 ANALYST AND, MOREOVER, NOT MERELY A PRACTICALLY TRAINED,
 MECHANICAL WORKER, BUT A THINKING CREATIVE ARTIST.
   --  CLEMENS WINKLER, BER. 33, 1697(1900)
 Job cpu time:  0 days 11 hours 18 minutes 27.5 seconds.
 File lengths (MBytes):  RWF=     85 Int=      0 D2E=      0 Chk=     12 Scr=      1
 Normal termination of Gaussian 09 at Sat Aug 27 07:33:17 2022.
