 Entering Gaussian System, Link 0=g09
 Input=Mol41.gjf
 Output=Mol41.log
 Initial command:
 /opt/gaussian/l1.exe /home/scr/lqcapf-6/Gau-10926.inp -scrdir=/home/scr/lqcapf-6/
 Entering Link 1 = /opt/gaussian/l1.exe PID=     10928.
  
 Copyright (c) 1988,1990,1992,1993,1995,1998,2003,2009,2011,
            Gaussian, Inc.  All Rights Reserved.
  
 This is part of the Gaussian(R) 09 program.  It is based on
 the Gaussian(R) 03 system (copyright 2003, Gaussian, Inc.),
 the Gaussian(R) 98 system (copyright 1998, Gaussian, Inc.),
 the Gaussian(R) 94 system (copyright 1995, Gaussian, Inc.),
 the Gaussian 92(TM) system (copyright 1992, Gaussian, Inc.),
 the Gaussian 90(TM) system (copyright 1990, Gaussian, Inc.),
 the Gaussian 88(TM) system (copyright 1988, Gaussian, Inc.),
 the Gaussian 86(TM) system (copyright 1986, Carnegie Mellon
 University), and the Gaussian 82(TM) system (copyright 1983,
 Carnegie Mellon University). Gaussian is a federally registered
 trademark of Gaussian, Inc.
  
 This software contains proprietary and confidential information,
 including trade secrets, belonging to Gaussian, Inc.
  
 This software is provided under written license and may be
 used, copied, transmitted, or stored only in accord with that
 written license.
  
 The following legend is applicable only to US Government
 contracts under FAR:
  
                    RESTRICTED RIGHTS LEGEND
  
 Use, reproduction and disclosure by the US Government is
 subject to restrictions as set forth in subparagraphs (a)
 and (c) of the Commercial Computer Software - Restricted
 Rights clause in FAR 52.227-19.
  
 Gaussian, Inc.
 340 Quinnipiac St., Bldg. 40, Wallingford CT 06492
  
  
 ---------------------------------------------------------------
 Warning -- This program may not be used in any manner that
 competes with the business of Gaussian, Inc. or will provide
 assistance to any competitor of Gaussian, Inc.  The licensee
 of this program is prohibited from giving any competitor of
 Gaussian, Inc. access to this program.  By using this program,
 the user acknowledges that Gaussian, Inc. is engaged in the
 business of creating and licensing software in the field of
 computational chemistry and represents and warrants to the
 licensee that it is not a competitor of Gaussian, Inc. and that
 it will not use this program in any manner prohibited above.
 ---------------------------------------------------------------
  

 Cite this work as:
 Gaussian 09, Revision C.01,
 M. J. Frisch, G. W. Trucks, H. B. Schlegel, G. E. Scuseria, 
 M. A. Robb, J. R. Cheeseman, G. Scalmani, V. Barone, B. Mennucci, 
 G. A. Petersson, H. Nakatsuji, M. Caricato, X. Li, H. P. Hratchian, 
 A. F. Izmaylov, J. Bloino, G. Zheng, J. L. Sonnenberg, M. Hada, 
 M. Ehara, K. Toyota, R. Fukuda, J. Hasegawa, M. Ishida, T. Nakajima, 
 Y. Honda, O. Kitao, H. Nakai, T. Vreven, J. A. Montgomery, Jr., 
 J. E. Peralta, F. Ogliaro, M. Bearpark, J. J. Heyd, E. Brothers, 
 K. N. Kudin, V. N. Staroverov, T. Keith, R. Kobayashi, J. Normand, 
 K. Raghavachari, A. Rendell, J. C. Burant, S. S. Iyengar, J. Tomasi, 
 M. Cossi, N. Rega, J. M. Millam, M. Klene, J. E. Knox, J. B. Cross, 
 V. Bakken, C. Adamo, J. Jaramillo, R. Gomperts, R. E. Stratmann, 
 O. Yazyev, A. J. Austin, R. Cammi, C. Pomelli, J. W. Ochterski, 
 R. L. Martin, K. Morokuma, V. G. Zakrzewski, G. A. Voth, 
 P. Salvador, J. J. Dannenberg, S. Dapprich, A. D. Daniels, 
 O. Farkas, J. B. Foresman, J. V. Ortiz, J. Cioslowski, 
 and D. J. Fox, Gaussian, Inc., Wallingford CT, 2010.
 
 ******************************************
 Gaussian 09:  EM64L-G09RevC.01 23-Sep-2011
                30-Aug-2022 
 ******************************************
 %nprocshared=8
 Will use up to    8 processors via shared memory.
 %mem=1600MB
 ---------------
 #p opt hf/6-31G
 ---------------
 1/18=20,19=15,38=1/1,3;
 2/9=110,12=2,17=6,18=5,40=1/2;
 3/5=1,6=6,11=9,16=1,25=1,30=1,71=1/1,2,3;
 4//1;
 5/5=2,38=5/2;
 6/7=2,8=2,9=2,10=2,28=1/1;
 7//1,2,3,16;
 1/18=20,19=15/3(2);
 2/9=110/2;
 99//99;
 2/9=110/2;
 3/5=1,6=6,11=9,16=1,25=1,30=1,71=1/1,2,3;
 4/5=5,16=3/1;
 5/5=2,38=5/2;
 7//1,2,3,16;
 1/18=20,19=15/3(-5);
 2/9=110/2;
 6/7=2,8=2,9=2,10=2,19=2,28=1/1;
 99/9=1/99;
 Leave Link    1 at Tue Aug 30 12:02:08 2022, MaxMem=  209715200 cpu:       0.1
 (Enter /opt/gaussian/l101.exe)
 ---------
 Mol41.out
 ---------
 Charge =  0 Multiplicity = 1
 Symbolic Z-Matrix:
 C                     15.6823  -6.3031   -1.9135 
 C                     15.0785  -7.5584   -1.5172 
 C                     15.2183  -5.0812   -1.4161 
 C                     14.007   -7.572    -0.621 
 C                     14.1508  -5.1329   -0.5296 
 C                     13.5586  -6.349    -0.1401 
 N                     16.7073  -6.6939   -2.802 
 N                     15.7974  -8.5814   -2.2083 
 N                     16.6991  -8.0565   -2.9123 
 C                     17.5894  -5.8081   -3.5121 
 C                     18.4033  -4.8845   -2.5866 
 N                     19.487   -5.3808   -1.8887 
 O                     18.0584  -3.6892   -2.4814 
 C                     20.2626  -4.5083   -1.0252 
 C                     23.7439  -3.4323   -2.0879 
 C                     23.4626  -2.3561   -2.9346 
 C                     22.7118  -4.1492   -1.4744 
 C                     22.135   -1.9961   -3.1631 
 C                     21.3854  -3.7779   -1.7077 
 C                     21.0987  -2.701    -2.5541 
 Cl                    25.3608  -3.8775   -1.8013 
 C                     21.0675  -8.4272   -3.3627 
 C                     20.9192  -9.3517   -2.3183 
 C                     20.5969  -7.1253   -3.236 
 C                     20.2922  -8.9412   -1.1329 
 C                     19.9545  -6.7155   -2.0502 
 C                     19.8144  -7.6421   -0.9964 
 C                     21.4031  -10.7079  -2.4775 
 C                     21.6788  -11.3584  -3.7042 
 N                     21.6621  -11.5909  -1.4137 
 N                     22.1066  -12.6411  -3.3803 
 C                     22.0812  -12.7377  -1.9821 
 H                     15.6904  -4.1314   -1.7108 
 H                     13.5439  -8.5198   -0.3125 
 H                     13.7538  -4.1928   -0.1151 
 H                     12.717   -6.3247    0.5688 
 H                     18.2901  -6.4046   -4.1638 
 H                     16.9642  -5.1292   -4.1646 
 H                     19.5567  -3.7418   -0.5867 
 H                     20.6768  -5.1384   -0.186 
 H                     24.279   -1.7973   -3.4161 
 H                     22.944   -4.9988   -0.8138 
 H                     21.9067  -1.1493   -3.8274 
 H                     20.0469  -2.4181   -2.7312 
 H                     21.569   -8.73     -4.2943 
 H                     20.7409  -6.416    -4.0658 
 H                     20.1693  -9.6519   -0.3 
 H                     19.3214  -7.3449   -0.0573 
 H                     21.5902  -11.009   -4.7309 
 H                     22.369   -13.3459  -4.0156 
 H                     22.3727  -13.6471  -1.4463 
 
 NAtoms=     51 NQM=        0 NQMF=       0 NMMI=     51 NMMIF=      0
                NMic=       0 NMicF=      0.
                    Isotopes and Nuclear Properties:
 (Nuclear quadrupole moments (NQMom) in fm**2, nuclear magnetic moments (NMagM)
  in nuclear magnetons)

  Atom         1           2           3           4           5           6           7           8           9          10
 IAtWgt=          12          12          12          12          12          12          14          14          14          12
 AtmWgt=  12.0000000  12.0000000  12.0000000  12.0000000  12.0000000  12.0000000  14.0030740  14.0030740  14.0030740  12.0000000
 NucSpn=           0           0           0           0           0           0           2           2           2           0
 AtZEff=   0.0000000   0.0000000   0.0000000   0.0000000   0.0000000   0.0000000   0.0000000   0.0000000   0.0000000   0.0000000
 NQMom=    0.0000000   0.0000000   0.0000000   0.0000000   0.0000000   0.0000000   2.0440000   2.0440000   2.0440000   0.0000000
 NMagM=    0.0000000   0.0000000   0.0000000   0.0000000   0.0000000   0.0000000   0.4037610   0.4037610   0.4037610   0.0000000

  Atom        11          12          13          14          15          16          17          18          19          20
 IAtWgt=          12          14          16          12          12          12          12          12          12          12
 AtmWgt=  12.0000000  14.0030740  15.9949146  12.0000000  12.0000000  12.0000000  12.0000000  12.0000000  12.0000000  12.0000000
 NucSpn=           0           2           0           0           0           0           0           0           0           0
 AtZEff=   0.0000000   0.0000000   0.0000000   0.0000000   0.0000000   0.0000000   0.0000000   0.0000000   0.0000000   0.0000000
 NQMom=    0.0000000   2.0440000   0.0000000   0.0000000   0.0000000   0.0000000   0.0000000   0.0000000   0.0000000   0.0000000
 NMagM=    0.0000000   0.4037610   0.0000000   0.0000000   0.0000000   0.0000000   0.0000000   0.0000000   0.0000000   0.0000000

  Atom        21          22          23          24          25          26          27          28          29          30
 IAtWgt=          35          12          12          12          12          12          12          12          12          14
 AtmWgt=  34.9688527  12.0000000  12.0000000  12.0000000  12.0000000  12.0000000  12.0000000  12.0000000  12.0000000  14.0030740
 NucSpn=           3           0           0           0           0           0           0           0           0           2
 AtZEff=   0.0000000   0.0000000   0.0000000   0.0000000   0.0000000   0.0000000   0.0000000   0.0000000   0.0000000   0.0000000
 NQMom=   -8.1650000   0.0000000   0.0000000   0.0000000   0.0000000   0.0000000   0.0000000   0.0000000   0.0000000   2.0440000
 NMagM=    0.8218740   0.0000000   0.0000000   0.0000000   0.0000000   0.0000000   0.0000000   0.0000000   0.0000000   0.4037610

  Atom        31          32          33          34          35          36          37          38          39          40
 IAtWgt=          14          12           1           1           1           1           1           1           1           1
 AtmWgt=  14.0030740  12.0000000   1.0078250   1.0078250   1.0078250   1.0078250   1.0078250   1.0078250   1.0078250   1.0078250
 NucSpn=           2           0           1           1           1           1           1           1           1           1
 AtZEff=   0.0000000   0.0000000   0.0000000   0.0000000   0.0000000   0.0000000   0.0000000   0.0000000   0.0000000   0.0000000
 NQMom=    2.0440000   0.0000000   0.0000000   0.0000000   0.0000000   0.0000000   0.0000000   0.0000000   0.0000000   0.0000000
 NMagM=    0.4037610   0.0000000   2.7928460   2.7928460   2.7928460   2.7928460   2.7928460   2.7928460   2.7928460   2.7928460

  Atom        41          42          43          44          45          46          47          48          49          50
 IAtWgt=           1           1           1           1           1           1           1           1           1           1
 AtmWgt=   1.0078250   1.0078250   1.0078250   1.0078250   1.0078250   1.0078250   1.0078250   1.0078250   1.0078250   1.0078250
 NucSpn=           1           1           1           1           1           1           1           1           1           1
 AtZEff=   0.0000000   0.0000000   0.0000000   0.0000000   0.0000000   0.0000000   0.0000000   0.0000000   0.0000000   0.0000000
 NQMom=    0.0000000   0.0000000   0.0000000   0.0000000   0.0000000   0.0000000   0.0000000   0.0000000   0.0000000   0.0000000
 NMagM=    2.7928460   2.7928460   2.7928460   2.7928460   2.7928460   2.7928460   2.7928460   2.7928460   2.7928460   2.7928460

  Atom        51
 IAtWgt=           1
 AtmWgt=   1.0078250
 NucSpn=           1
 AtZEff=   0.0000000
 NQMom=    0.0000000
 NMagM=    2.7928460
 Leave Link  101 at Tue Aug 30 12:02:08 2022, MaxMem=  209715200 cpu:       0.9
 (Enter /opt/gaussian/l103.exe)

 GradGradGradGradGradGradGradGradGradGradGradGradGradGradGradGradGradGrad
 Berny optimization.
 Initialization pass.
                           ----------------------------
                           !    Initial Parameters    !
                           ! (Angstroms and Degrees)  !
 --------------------------                            --------------------------
 ! Name  Definition              Value          Derivative Info.                !
 --------------------------------------------------------------------------------
 ! R1    R(1,2)                  1.4482         estimate D2E/DX2                !
 ! R2    R(1,3)                  1.3985         estimate D2E/DX2                !
 ! R3    R(1,7)                  1.4117         estimate D2E/DX2                !
 ! R4    R(2,4)                  1.397          estimate D2E/DX2                !
 ! R5    R(2,8)                  1.4286         estimate D2E/DX2                !
 ! R6    R(3,5)                  1.3886         estimate D2E/DX2                !
 ! R7    R(3,33)                 1.1008         estimate D2E/DX2                !
 ! R8    R(4,6)                  1.3885         estimate D2E/DX2                !
 ! R9    R(4,34)                 1.0991         estimate D2E/DX2                !
 ! R10   R(5,6)                  1.4076         estimate D2E/DX2                !
 ! R11   R(5,35)                 1.1015         estimate D2E/DX2                !
 ! R12   R(6,36)                 1.1006         estimate D2E/DX2                !
 ! R13   R(7,9)                  1.3671         estimate D2E/DX2                !
 ! R14   R(7,10)                 1.4377         estimate D2E/DX2                !
 ! R15   R(8,9)                  1.2586         estimate D2E/DX2                !
 ! R16   R(10,11)                1.5401         estimate D2E/DX2                !
 ! R17   R(10,37)                1.1276         estimate D2E/DX2                !
 ! R18   R(10,38)                1.1303         estimate D2E/DX2                !
 ! R19   R(11,12)                1.3812         estimate D2E/DX2                !
 ! R20   R(11,13)                1.2485         estimate D2E/DX2                !
 ! R21   R(12,14)                1.452          estimate D2E/DX2                !
 ! R22   R(12,26)                1.4234         estimate D2E/DX2                !
 ! R23   R(14,19)                1.5033         estimate D2E/DX2                !
 ! R24   R(14,39)                1.1305         estimate D2E/DX2                !
 ! R25   R(14,40)                1.1282         estimate D2E/DX2                !
 ! R26   R(15,16)                1.3979         estimate D2E/DX2                !
 ! R27   R(15,17)                1.3984         estimate D2E/DX2                !
 ! R28   R(15,21)                1.7014         estimate D2E/DX2                !
 ! R29   R(16,18)                1.3944         estimate D2E/DX2                !
 ! R30   R(16,41)                1.1003         estimate D2E/DX2                !
 ! R31   R(17,19)                1.397          estimate D2E/DX2                !
 ! R32   R(17,42)                1.101          estimate D2E/DX2                !
 ! R33   R(18,20)                1.3934         estimate D2E/DX2                !
 ! R34   R(18,43)                1.1002         estimate D2E/DX2                !
 ! R35   R(19,20)                1.3994         estimate D2E/DX2                !
 ! R36   R(20,44)                1.1035         estimate D2E/DX2                !
 ! R37   R(22,23)                1.4027         estimate D2E/DX2                !
 ! R38   R(22,24)                1.3901         estimate D2E/DX2                !
 ! R39   R(22,45)                1.1005         estimate D2E/DX2                !
 ! R40   R(23,25)                1.4024         estimate D2E/DX2                !
 ! R41   R(23,28)                1.4487         estimate D2E/DX2                !
 ! R42   R(24,26)                1.4095         estimate D2E/DX2                !
 ! R43   R(24,46)                1.1011         estimate D2E/DX2                !
 ! R44   R(25,27)                1.3909         estimate D2E/DX2                !
 ! R45   R(25,47)                1.1018         estimate D2E/DX2                !
 ! R46   R(26,27)                1.4102         estimate D2E/DX2                !
 ! R47   R(27,48)                1.1015         estimate D2E/DX2                !
 ! R48   R(28,29)                1.4156         estimate D2E/DX2                !
 ! R49   R(28,30)                1.4066         estimate D2E/DX2                !
 ! R50   R(29,31)                1.3904         estimate D2E/DX2                !
 ! R51   R(29,49)                1.0881         estimate D2E/DX2                !
 ! R52   R(30,32)                1.3468         estimate D2E/DX2                !
 ! R53   R(31,32)                1.4018         estimate D2E/DX2                !
 ! R54   R(31,50)                0.9845         estimate D2E/DX2                !
 ! R55   R(32,51)                1.095          estimate D2E/DX2                !
 ! A1    A(2,1,3)              121.4447         estimate D2E/DX2                !
 ! A2    A(2,1,7)              103.5915         estimate D2E/DX2                !
 ! A3    A(3,1,7)              134.9633         estimate D2E/DX2                !
 ! A4    A(1,2,4)              120.2504         estimate D2E/DX2                !
 ! A5    A(1,2,8)              106.1708         estimate D2E/DX2                !
 ! A6    A(4,2,8)              133.5789         estimate D2E/DX2                !
 ! A7    A(1,3,5)              116.7188         estimate D2E/DX2                !
 ! A8    A(1,3,33)             121.0878         estimate D2E/DX2                !
 ! A9    A(5,3,33)             122.1901         estimate D2E/DX2                !
 ! A10   A(2,4,6)              117.4715         estimate D2E/DX2                !
 ! A11   A(2,4,34)             120.7746         estimate D2E/DX2                !
 ! A12   A(6,4,34)             121.7539         estimate D2E/DX2                !
 ! A13   A(3,5,6)              122.159          estimate D2E/DX2                !
 ! A14   A(3,5,35)             119.0497         estimate D2E/DX2                !
 ! A15   A(6,5,35)             118.7913         estimate D2E/DX2                !
 ! A16   A(4,6,5)              121.9554         estimate D2E/DX2                !
 ! A17   A(4,6,36)             119.3035         estimate D2E/DX2                !
 ! A18   A(5,6,36)             118.7409         estimate D2E/DX2                !
 ! A19   A(1,7,9)              108.8055         estimate D2E/DX2                !
 ! A20   A(1,7,10)             125.8595         estimate D2E/DX2                !
 ! A21   A(9,7,10)             125.3053         estimate D2E/DX2                !
 ! A22   A(2,8,9)              109.4177         estimate D2E/DX2                !
 ! A23   A(7,9,8)              112.0142         estimate D2E/DX2                !
 ! A24   A(7,10,11)            113.3854         estimate D2E/DX2                !
 ! A25   A(7,10,37)            109.9251         estimate D2E/DX2                !
 ! A26   A(7,10,38)            108.4107         estimate D2E/DX2                !
 ! A27   A(11,10,37)           109.6422         estimate D2E/DX2                !
 ! A28   A(11,10,38)           106.2015         estimate D2E/DX2                !
 ! A29   A(37,10,38)           109.1363         estimate D2E/DX2                !
 ! A30   A(10,11,12)           120.184          estimate D2E/DX2                !
 ! A31   A(10,11,13)           118.6056         estimate D2E/DX2                !
 ! A32   A(12,11,13)           121.2099         estimate D2E/DX2                !
 ! A33   A(11,12,14)           120.2421         estimate D2E/DX2                !
 ! A34   A(11,12,26)           122.4994         estimate D2E/DX2                !
 ! A35   A(14,12,26)           117.0953         estimate D2E/DX2                !
 ! A36   A(12,14,19)           114.8914         estimate D2E/DX2                !
 ! A37   A(12,14,39)           107.7302         estimate D2E/DX2                !
 ! A38   A(12,14,40)           107.6292         estimate D2E/DX2                !
 ! A39   A(19,14,39)           108.2419         estimate D2E/DX2                !
 ! A40   A(19,14,40)           109.5631         estimate D2E/DX2                !
 ! A41   A(39,14,40)           108.6258         estimate D2E/DX2                !
 ! A42   A(16,15,17)           120.7883         estimate D2E/DX2                !
 ! A43   A(16,15,21)           119.6503         estimate D2E/DX2                !
 ! A44   A(17,15,21)           119.5614         estimate D2E/DX2                !
 ! A45   A(15,16,18)           119.3139         estimate D2E/DX2                !
 ! A46   A(15,16,41)           120.4463         estimate D2E/DX2                !
 ! A47   A(18,16,41)           120.2397         estimate D2E/DX2                !
 ! A48   A(15,17,19)           119.4214         estimate D2E/DX2                !
 ! A49   A(15,17,42)           120.2108         estimate D2E/DX2                !
 ! A50   A(19,17,42)           120.3678         estimate D2E/DX2                !
 ! A51   A(16,18,20)           120.3878         estimate D2E/DX2                !
 ! A52   A(16,18,43)           119.684          estimate D2E/DX2                !
 ! A53   A(20,18,43)           119.9281         estimate D2E/DX2                !
 ! A54   A(14,19,17)           120.2771         estimate D2E/DX2                !
 ! A55   A(14,19,20)           119.7005         estimate D2E/DX2                !
 ! A56   A(17,19,20)           120.0039         estimate D2E/DX2                !
 ! A57   A(18,20,19)           120.0838         estimate D2E/DX2                !
 ! A58   A(18,20,44)           120.5994         estimate D2E/DX2                !
 ! A59   A(19,20,44)           119.3168         estimate D2E/DX2                !
 ! A60   A(23,22,24)           120.905          estimate D2E/DX2                !
 ! A61   A(23,22,45)           119.8112         estimate D2E/DX2                !
 ! A62   A(24,22,45)           119.2823         estimate D2E/DX2                !
 ! A63   A(22,23,25)           118.9275         estimate D2E/DX2                !
 ! A64   A(22,23,28)           119.9917         estimate D2E/DX2                !
 ! A65   A(25,23,28)           121.0798         estimate D2E/DX2                !
 ! A66   A(22,24,26)           120.2152         estimate D2E/DX2                !
 ! A67   A(22,24,46)           119.3625         estimate D2E/DX2                !
 ! A68   A(26,24,46)           120.4189         estimate D2E/DX2                !
 ! A69   A(23,25,27)           120.6586         estimate D2E/DX2                !
 ! A70   A(23,25,47)           120.0021         estimate D2E/DX2                !
 ! A71   A(27,25,47)           119.3385         estimate D2E/DX2                !
 ! A72   A(12,26,24)           121.1823         estimate D2E/DX2                !
 ! A73   A(12,26,27)           119.9143         estimate D2E/DX2                !
 ! A74   A(24,26,27)           118.8751         estimate D2E/DX2                !
 ! A75   A(25,27,26)           120.4134         estimate D2E/DX2                !
 ! A76   A(25,27,48)           119.3031         estimate D2E/DX2                !
 ! A77   A(26,27,48)           120.283          estimate D2E/DX2                !
 ! A78   A(23,28,29)           126.1891         estimate D2E/DX2                !
 ! A79   A(23,28,30)           124.4768         estimate D2E/DX2                !
 ! A80   A(29,28,30)           109.3323         estimate D2E/DX2                !
 ! A81   A(28,29,31)           106.3783         estimate D2E/DX2                !
 ! A82   A(28,29,49)           130.8603         estimate D2E/DX2                !
 ! A83   A(31,29,49)           122.757          estimate D2E/DX2                !
 ! A84   A(28,30,32)           105.8222         estimate D2E/DX2                !
 ! A85   A(29,31,32)           106.8795         estimate D2E/DX2                !
 ! A86   A(29,31,50)           126.3083         estimate D2E/DX2                !
 ! A87   A(32,31,50)           126.8104         estimate D2E/DX2                !
 ! A88   A(30,32,31)           111.5876         estimate D2E/DX2                !
 ! A89   A(30,32,51)           125.6966         estimate D2E/DX2                !
 ! A90   A(31,32,51)           122.7158         estimate D2E/DX2                !
 ! D1    D(3,1,2,4)              0.0854         estimate D2E/DX2                !
 ! D2    D(3,1,2,8)           -179.9107         estimate D2E/DX2                !
 ! D3    D(7,1,2,4)            179.8724         estimate D2E/DX2                !
 ! D4    D(7,1,2,8)             -0.1236         estimate D2E/DX2                !
 ! D5    D(2,1,3,5)             -0.1883         estimate D2E/DX2                !
 ! D6    D(2,1,3,33)           179.1662         estimate D2E/DX2                !
 ! D7    D(7,1,3,5)           -179.8957         estimate D2E/DX2                !
 ! D8    D(7,1,3,33)            -0.5413         estimate D2E/DX2                !
 ! D9    D(2,1,7,9)              0.0191         estimate D2E/DX2                !
 ! D10   D(2,1,7,10)           178.1147         estimate D2E/DX2                !
 ! D11   D(3,1,7,9)            179.7624         estimate D2E/DX2                !
 ! D12   D(3,1,7,10)            -2.1421         estimate D2E/DX2                !
 ! D13   D(1,2,4,6)              0.0429         estimate D2E/DX2                !
 ! D14   D(1,2,4,34)          -179.8495         estimate D2E/DX2                !
 ! D15   D(8,2,4,6)           -179.9623         estimate D2E/DX2                !
 ! D16   D(8,2,4,34)             0.1452         estimate D2E/DX2                !
 ! D17   D(1,2,8,9)              0.1983         estimate D2E/DX2                !
 ! D18   D(4,2,8,9)           -179.7969         estimate D2E/DX2                !
 ! D19   D(1,3,5,6)              0.1714         estimate D2E/DX2                !
 ! D20   D(1,3,5,35)          -179.9276         estimate D2E/DX2                !
 ! D21   D(33,3,5,6)          -179.1754         estimate D2E/DX2                !
 ! D22   D(33,3,5,35)            0.7256         estimate D2E/DX2                !
 ! D23   D(2,4,6,5)             -0.0619         estimate D2E/DX2                !
 ! D24   D(2,4,6,36)          -179.9099         estimate D2E/DX2                !
 ! D25   D(34,4,6,5)           179.8294         estimate D2E/DX2                !
 ! D26   D(34,4,6,36)           -0.0185         estimate D2E/DX2                !
 ! D27   D(3,5,6,4)             -0.0485         estimate D2E/DX2                !
 ! D28   D(3,5,6,36)           179.8002         estimate D2E/DX2                !
 ! D29   D(35,5,6,4)          -179.9498         estimate D2E/DX2                !
 ! D30   D(35,5,6,36)           -0.101          estimate D2E/DX2                !
 ! D31   D(1,7,9,8)              0.1107         estimate D2E/DX2                !
 ! D32   D(10,7,9,8)          -177.9981         estimate D2E/DX2                !
 ! D33   D(1,7,10,11)           58.1055         estimate D2E/DX2                !
 ! D34   D(1,7,10,37)         -178.7808         estimate D2E/DX2                !
 ! D35   D(1,7,10,38)          -59.5612         estimate D2E/DX2                !
 ! D36   D(9,7,10,11)         -124.1037         estimate D2E/DX2                !
 ! D37   D(9,7,10,37)           -0.99           estimate D2E/DX2                !
 ! D38   D(9,7,10,38)          118.2296         estimate D2E/DX2                !
 ! D39   D(2,8,9,7)             -0.1935         estimate D2E/DX2                !
 ! D40   D(7,10,11,12)          76.21           estimate D2E/DX2                !
 ! D41   D(7,10,11,13)        -103.5444         estimate D2E/DX2                !
 ! D42   D(37,10,11,12)        -47.0592         estimate D2E/DX2                !
 ! D43   D(37,10,11,13)        133.1863         estimate D2E/DX2                !
 ! D44   D(38,10,11,12)       -164.8451         estimate D2E/DX2                !
 ! D45   D(38,10,11,13)         15.4005         estimate D2E/DX2                !
 ! D46   D(10,11,12,14)        179.4388         estimate D2E/DX2                !
 ! D47   D(10,11,12,26)          4.2199         estimate D2E/DX2                !
 ! D48   D(13,11,12,14)         -0.8133         estimate D2E/DX2                !
 ! D49   D(13,11,12,26)       -176.0322         estimate D2E/DX2                !
 ! D50   D(11,12,14,19)        -87.8089         estimate D2E/DX2                !
 ! D51   D(11,12,14,39)         32.898          estimate D2E/DX2                !
 ! D52   D(11,12,14,40)        149.8624         estimate D2E/DX2                !
 ! D53   D(26,12,14,19)         87.6622         estimate D2E/DX2                !
 ! D54   D(26,12,14,39)       -151.631          estimate D2E/DX2                !
 ! D55   D(26,12,14,40)        -34.6666         estimate D2E/DX2                !
 ! D56   D(11,12,26,24)         70.4699         estimate D2E/DX2                !
 ! D57   D(11,12,26,27)       -111.4872         estimate D2E/DX2                !
 ! D58   D(14,12,26,24)       -104.8908         estimate D2E/DX2                !
 ! D59   D(14,12,26,27)         73.1521         estimate D2E/DX2                !
 ! D60   D(12,14,19,17)       -107.4217         estimate D2E/DX2                !
 ! D61   D(12,14,19,20)         74.1462         estimate D2E/DX2                !
 ! D62   D(39,14,19,17)        132.1527         estimate D2E/DX2                !
 ! D63   D(39,14,19,20)        -46.2793         estimate D2E/DX2                !
 ! D64   D(40,14,19,17)         13.8577         estimate D2E/DX2                !
 ! D65   D(40,14,19,20)       -164.5744         estimate D2E/DX2                !
 ! D66   D(17,15,16,18)          0.1724         estimate D2E/DX2                !
 ! D67   D(17,15,16,41)       -179.8672         estimate D2E/DX2                !
 ! D68   D(21,15,16,18)       -179.9117         estimate D2E/DX2                !
 ! D69   D(21,15,16,41)          0.0487         estimate D2E/DX2                !
 ! D70   D(16,15,17,19)         -0.329          estimate D2E/DX2                !
 ! D71   D(16,15,17,42)        179.6512         estimate D2E/DX2                !
 ! D72   D(21,15,17,19)        179.7551         estimate D2E/DX2                !
 ! D73   D(21,15,17,42)         -0.2647         estimate D2E/DX2                !
 ! D74   D(15,16,18,20)          0.0099         estimate D2E/DX2                !
 ! D75   D(15,16,18,43)        179.9246         estimate D2E/DX2                !
 ! D76   D(41,16,18,20)       -179.9506         estimate D2E/DX2                !
 ! D77   D(41,16,18,43)         -0.0359         estimate D2E/DX2                !
 ! D78   D(15,17,19,14)       -178.1238         estimate D2E/DX2                !
 ! D79   D(15,17,19,20)          0.3035         estimate D2E/DX2                !
 ! D80   D(42,17,19,14)          1.896          estimate D2E/DX2                !
 ! D81   D(42,17,19,20)       -179.6767         estimate D2E/DX2                !
 ! D82   D(16,18,20,19)         -0.0328         estimate D2E/DX2                !
 ! D83   D(16,18,20,44)        179.9018         estimate D2E/DX2                !
 ! D84   D(43,18,20,19)       -179.9473         estimate D2E/DX2                !
 ! D85   D(43,18,20,44)         -0.0127         estimate D2E/DX2                !
 ! D86   D(14,19,20,18)        178.3111         estimate D2E/DX2                !
 ! D87   D(14,19,20,44)         -1.6244         estimate D2E/DX2                !
 ! D88   D(17,19,20,18)         -0.1254         estimate D2E/DX2                !
 ! D89   D(17,19,20,44)        179.9392         estimate D2E/DX2                !
 ! D90   D(24,22,23,25)         -0.3534         estimate D2E/DX2                !
 ! D91   D(24,22,23,28)        179.2783         estimate D2E/DX2                !
 ! D92   D(45,22,23,25)        179.2046         estimate D2E/DX2                !
 ! D93   D(45,22,23,28)         -1.1637         estimate D2E/DX2                !
 ! D94   D(23,22,24,26)         -0.2856         estimate D2E/DX2                !
 ! D95   D(23,22,24,46)        179.0463         estimate D2E/DX2                !
 ! D96   D(45,22,24,26)       -179.8459         estimate D2E/DX2                !
 ! D97   D(45,22,24,46)         -0.514          estimate D2E/DX2                !
 ! D98   D(22,23,25,27)          0.5203         estimate D2E/DX2                !
 ! D99   D(22,23,25,47)       -179.8022         estimate D2E/DX2                !
 ! D100  D(28,23,25,27)       -179.1072         estimate D2E/DX2                !
 ! D101  D(28,23,25,47)          0.5702         estimate D2E/DX2                !
 ! D102  D(22,23,28,29)        -19.6999         estimate D2E/DX2                !
 ! D103  D(22,23,28,30)        160.8503         estimate D2E/DX2                !
 ! D104  D(25,23,28,29)        159.9238         estimate D2E/DX2                !
 ! D105  D(25,23,28,30)        -19.526          estimate D2E/DX2                !
 ! D106  D(22,24,26,12)        178.8147         estimate D2E/DX2                !
 ! D107  D(22,24,26,27)          0.7519         estimate D2E/DX2                !
 ! D108  D(46,24,26,12)         -0.5101         estimate D2E/DX2                !
 ! D109  D(46,24,26,27)       -178.5729         estimate D2E/DX2                !
 ! D110  D(23,25,27,26)         -0.0488         estimate D2E/DX2                !
 ! D111  D(23,25,27,48)        179.7177         estimate D2E/DX2                !
 ! D112  D(47,25,27,26)       -179.7283         estimate D2E/DX2                !
 ! D113  D(47,25,27,48)          0.0381         estimate D2E/DX2                !
 ! D114  D(12,26,27,25)       -178.6748         estimate D2E/DX2                !
 ! D115  D(12,26,27,48)          1.561          estimate D2E/DX2                !
 ! D116  D(24,26,27,25)         -0.5868         estimate D2E/DX2                !
 ! D117  D(24,26,27,48)        179.649          estimate D2E/DX2                !
 ! D118  D(23,28,29,31)       -179.5186         estimate D2E/DX2                !
 ! D119  D(23,28,29,49)         -0.2886         estimate D2E/DX2                !
 ! D120  D(30,28,29,31)          0.0008         estimate D2E/DX2                !
 ! D121  D(30,28,29,49)        179.2307         estimate D2E/DX2                !
 ! D122  D(23,28,30,32)        179.5451         estimate D2E/DX2                !
 ! D123  D(29,28,30,32)          0.0157         estimate D2E/DX2                !
 ! D124  D(28,29,31,32)         -0.0164         estimate D2E/DX2                !
 ! D125  D(28,29,31,50)        179.5216         estimate D2E/DX2                !
 ! D126  D(49,29,31,32)       -179.3238         estimate D2E/DX2                !
 ! D127  D(49,29,31,50)          0.2142         estimate D2E/DX2                !
 ! D128  D(28,30,32,31)         -0.0267         estimate D2E/DX2                !
 ! D129  D(28,30,32,51)        179.9386         estimate D2E/DX2                !
 ! D130  D(29,31,32,30)          0.0277         estimate D2E/DX2                !
 ! D131  D(29,31,32,51)       -179.9388         estimate D2E/DX2                !
 ! D132  D(50,31,32,30)       -179.5073         estimate D2E/DX2                !
 ! D133  D(50,31,32,51)          0.5262         estimate D2E/DX2                !
 --------------------------------------------------------------------------------
 Trust Radius=3.00D-01 FncErr=1.00D-07 GrdErr=1.00D-07
 Number of steps in this run=    288 maximum allowed number of steps=    306.
 GradGradGradGradGradGradGradGradGradGradGradGradGradGradGradGradGradGrad

 Leave Link  103 at Tue Aug 30 12:02:08 2022, MaxMem=  209715200 cpu:       0.1
 (Enter /opt/gaussian/l202.exe)
 Stoichiometry    C24H19ClN6O
 Framework group  C1[X(C24H19ClN6O)]
 Deg. of freedom   147
 Full point group                 C1      NOp   1
 Largest Abelian subgroup         C1      NOp   1
 Largest concise Abelian subgroup C1      NOp   1
                         Standard orientation:                         
 ---------------------------------------------------------------------
 Center     Atomic      Atomic             Coordinates (Angstroms)
 Number     Number       Type             X           Y           Z
 ---------------------------------------------------------------------
      1          6           0       -3.752774   -1.429866    0.267080
      2          6           0       -4.726943   -0.431461   -0.122262
      3          6           0       -3.887290   -2.768385   -0.115040
      4          6           0       -5.833662   -0.791746   -0.894816
      5          6           0       -5.000319   -3.090348   -0.880295
      6          6           0       -5.951490   -2.125609   -1.262216
      7          7           0       -2.807898   -0.696677    1.017030
      8          7           0       -4.274400    0.804155    0.433997
      9          7           0       -3.199303    0.612477    1.059796
     10          6           0       -1.646665   -1.238453    1.668951
     11          6           0       -0.688482   -1.964922    0.706584
     12          7           0        0.137365   -1.239712   -0.129975
     13          8           0       -0.681455   -3.213386    0.699389
     14          6           0        1.049932   -1.923234   -1.029121
     15          6           0        4.775318   -1.885338   -0.303437
     16          6           0        4.895253   -2.926730    0.621417
     17          6           0        3.528724   -1.539746   -0.834593
     18          6           0        3.754834   -3.627577    1.012047
     19          6           0        2.393150   -2.250679   -0.438769
     20          6           0        2.508113   -3.294287    0.486416
     21         17           0        6.161541   -1.025969   -0.787772
     22          6           0        0.897807    2.235513    1.008335
     23          6           0        0.394271    2.994981   -0.058026
     24          6           0        0.813876    0.847951    0.998905
     25          6           0       -0.192654    2.331824   -1.145479
     26          6           0        0.212036    0.181085   -0.087287
     27          6           0       -0.285148    0.944132   -1.163984
     28          6           0        0.478151    4.440781   -0.020490
     29          6           0        0.664709    5.237504    1.134664
     30          7           0        0.373003    5.274001   -1.148820
     31          7           0        0.672355    6.559006    0.702441
     32          6           0        0.492890    6.533658   -0.687556
     33          1           0       -3.136142   -3.519914    0.172757
     34          1           0       -6.576911   -0.040679   -1.197202
     35          1           0       -5.144840   -4.133979   -1.201472
     36          1           0       -6.811101   -2.442431   -1.872227
     37          1           0       -1.091845   -0.418856    2.209267
     38          1           0       -1.986937   -2.012416    2.419106
     39          1           0        0.558686   -2.889978   -1.348784
     40          1           0        1.186209   -1.270244   -1.938998
     41          1           0        5.878585   -3.192485    1.037399
     42          1           0        3.444408   -0.714147   -1.558062
     43          1           0        3.842394   -4.449105    1.738622
     44          1           0        1.603583   -3.847638    0.791878
     45          1           0        1.373124    2.740213    1.862981
     46          1           0        1.231599    0.276052    1.842025
     47          1           0       -0.590955    2.910772   -1.994064
     48          1           0       -0.754666    0.446592   -2.027288
     49          1           0        0.774723    4.959609    2.180950
     50          1           0        0.776685    7.357136    1.269279
     51          1           0        0.459180    7.443033   -1.296622
 ---------------------------------------------------------------------
 Rotational constants (GHZ):      0.1238042      0.0961021      0.0583692
 Leave Link  202 at Tue Aug 30 12:02:08 2022, MaxMem=  209715200 cpu:       0.0
 (Enter /opt/gaussian/l301.exe)
 Standard basis: 6-31G (6D, 7F)
 Ernie: Thresh=  0.10000D-02 Tol=  0.10000D-05 Strict=F.
 There are   330 symmetry adapted basis functions of A   symmetry.
 Integral buffers will be    131072 words long.
 Raffenetti 1 integral format.
 Two-electron integral symmetry is turned on.
   330 basis functions,   804 primitive gaussians,   330 cartesian basis functions
   115 alpha electrons      115 beta electrons
       nuclear repulsion energy      3111.6851374418 Hartrees.
 IExCor=    0 DFT=F Ex=HF Corr=None ExCW=0 ScaHFX=  1.000000
 ScaDFX=  1.000000  1.000000  1.000000  1.000000 ScalE2=  1.000000  1.000000
 IRadAn=      0 IRanWt=     -1 IRanGd=            0 ICorTp=0
 NAtoms=   51 NActive=   51 NUniq=   51 SFac= 1.00D+00 NAtFMM=   60 NAOKFM=F Big=F
 Leave Link  301 at Tue Aug 30 12:02:08 2022, MaxMem=  209715200 cpu:       0.3
 (Enter /opt/gaussian/l302.exe)
 NPDir=0 NMtPBC=     1 NCelOv=     1 NCel=       1 NClECP=     1 NCelD=      1
         NCelK=      1 NCelE2=     1 NClLst=     1 CellRange=     0.0.
 One-electron integrals computed using PRISM.
 NBasis=   330 RedAO= T  NBF=   330
 NBsUse=   330 1.00D-06 NBFU=   330
 Leave Link  302 at Tue Aug 30 12:02:09 2022, MaxMem=  209715200 cpu:       2.0
 (Enter /opt/gaussian/l303.exe)
 DipDrv:  MaxL=1.
 Leave Link  303 at Tue Aug 30 12:02:09 2022, MaxMem=  209715200 cpu:       0.5
 (Enter /opt/gaussian/l401.exe)
 Harris functional with IExCor=  205 diagonalized for initial guess.
 ExpMin= 1.43D-01 ExpMax= 2.52D+04 ExpMxC= 3.78D+03 IAcc=1 IRadAn=         1 AccDes= 0.00D+00
 HarFok:  IExCor=  205 AccDes= 0.00D+00 IRadAn=         1 IDoV= 1
 ScaDFX=  1.000000  1.000000  1.000000  1.000000
 FoFCou: FMM=F IPFlag=           0 FMFlag=      100000 FMFlg1=           0
         NFxFlg=           0 DoJE=T BraDBF=F KetDBF=T FulRan=T
         Omega=  0.000000  0.000000  1.000000  0.000000  0.000000 ICntrl=     500 IOpCl=  0
         NMat0=    1 NMatS0=    1 NMatT0=    0 NMatD0=    1 NMtDS0=    0 NMtDT0=    0
         I1Cent=           4 NGrid=           0.
 Petite list used in FoFCou.
 Harris En= -1781.35005889173    
 Initial guess orbital symmetries:
       Occupied  (A) (A) (A) (A) (A) (A) (A) (A) (A) (A) (A) (A)
                 (A) (A) (A) (A) (A) (A) (A) (A) (A) (A) (A) (A)
                 (A) (A) (A) (A) (A) (A) (A) (A) (A) (A) (A) (A)
                 (A) (A) (A) (A) (A) (A) (A) (A) (A) (A) (A) (A)
                 (A) (A) (A) (A) (A) (A) (A) (A) (A) (A) (A) (A)
                 (A) (A) (A) (A) (A) (A) (A) (A) (A) (A) (A) (A)
                 (A) (A) (A) (A) (A) (A) (A) (A) (A) (A) (A) (A)
                 (A) (A) (A) (A) (A) (A) (A) (A) (A) (A) (A) (A)
                 (A) (A) (A) (A) (A) (A) (A) (A) (A) (A) (A) (A)
                 (A) (A) (A) (A) (A) (A) (A)
       Virtual   (A) (A) (A) (A) (A) (A) (A) (A) (A) (A) (A) (A)
                 (A) (A) (A) (A) (A) (A) (A) (A) (A) (A) (A) (A)
                 (A) (A) (A) (A) (A) (A) (A) (A) (A) (A) (A) (A)
                 (A) (A) (A) (A) (A) (A) (A) (A) (A) (A) (A) (A)
                 (A) (A) (A) (A) (A) (A) (A) (A) (A) (A) (A) (A)
                 (A) (A) (A) (A) (A) (A) (A) (A) (A) (A) (A) (A)
                 (A) (A) (A) (A) (A) (A) (A) (A) (A) (A) (A) (A)
                 (A) (A) (A) (A) (A) (A) (A) (A) (A) (A) (A) (A)
                 (A) (A) (A) (A) (A) (A) (A) (A) (A) (A) (A) (A)
                 (A) (A) (A) (A) (A) (A) (A) (A) (A) (A) (A) (A)
                 (A) (A) (A) (A) (A) (A) (A) (A) (A) (A) (A) (A)
                 (A) (A) (A) (A) (A) (A) (A) (A) (A) (A) (A) (A)
                 (A) (A) (A) (A) (A) (A) (A) (A) (A) (A) (A) (A)
                 (A) (A) (A) (A) (A) (A) (A) (A) (A) (A) (A) (A)
                 (A) (A) (A) (A) (A) (A) (A) (A) (A) (A) (A) (A)
                 (A) (A) (A) (A) (A) (A) (A) (A) (A) (A) (A) (A)
                 (A) (A) (A) (A) (A) (A) (A) (A) (A) (A) (A) (A)
                 (A) (A) (A) (A) (A) (A) (A) (A) (A) (A) (A)
 The electronic state of the initial guess is 1-A.
 Leave Link  401 at Tue Aug 30 12:02:09 2022, MaxMem=  209715200 cpu:       4.8
 (Enter /opt/gaussian/l502.exe)
 Closed shell SCF:
 Requested convergence on RMS density matrix=1.00D-08 within 128 cycles.
 Requested convergence on MAX density matrix=1.00D-06.
 Requested convergence on             energy=1.00D-06.
 No special actions if energy rises.
 Using DIIS extrapolation, IDIIS=  1040.
 Integral symmetry usage will be decided dynamically.
 IEnd=      350033 IEndB=      350033 NGot=   209715200 MDV=   209491038
 LenX=   209491038 LenY=   209381697
 Fock matrices will be formed incrementally for  20 cycles.
 Integral accuracy reduced to 1.0D-05 until final iterations.

 Cycle   1  Pass 0  IDiag  1:
 FoFCou: FMM=F IPFlag=           0 FMFlag=      100000 FMFlg1=           0
         NFxFlg=           0 DoJE=F BraDBF=F KetDBF=F FulRan=T
         Omega=  0.000000  0.000000  1.000000  0.000000  0.000000 ICntrl=       0 IOpCl=  0
         NMat0=    1 NMatS0=    1 NMatT0=    0 NMatD0=    1 NMtDS0=    0 NMtDT0=    0
         I1Cent=           0 NGrid=           0.
 Symmetry not used in FoFCou.
 E= -1779.39607461374    
 DIIS: error= 3.50D-02 at cycle   1 NSaved=   1.
 NSaved= 1 IEnMin= 1 EnMin= -1779.39607461374     IErMin= 1 ErrMin= 3.50D-02
 ErrMax= 3.50D-02 EMaxC= 1.00D-01 BMatC= 1.06D+00 BMatP= 1.06D+00
 IDIUse=3 WtCom= 6.50D-01 WtEn= 3.50D-01
 Coeff-Com:  0.100D+01
 Coeff-En:   0.100D+01
 Coeff:      0.100D+01
 Gap=     0.475 Goal=   None    Shift=    0.000
 GapD=    0.475 DampG=2.000 DampE=0.500 DampFc=1.0000 IDamp=-1.
 RMSDP=5.83D-03 MaxDP=1.61D-01              OVMax= 1.63D-01

 Cycle   2  Pass 0  IDiag  1:
 RMSU=  4.09D-03    CP:  9.71D-01
 E= -1780.11197063959     Delta-E=       -0.715896025848 Rises=F Damp=F
 DIIS: error= 1.84D-02 at cycle   2 NSaved=   2.
 NSaved= 2 IEnMin= 2 EnMin= -1780.11197063959     IErMin= 2 ErrMin= 1.84D-02
 ErrMax= 1.84D-02 EMaxC= 1.00D-01 BMatC= 1.85D-01 BMatP= 1.06D+00
 IDIUse=3 WtCom= 8.16D-01 WtEn= 1.84D-01
 Coeff-Com:  0.239D+00 0.761D+00
 Coeff-En:   0.000D+00 0.100D+01
 Coeff:      0.195D+00 0.805D+00
 Gap=     0.431 Goal=   None    Shift=    0.000
 RMSDP=2.41D-03 MaxDP=9.13D-02 DE=-7.16D-01 OVMax= 1.01D-01

 Cycle   3  Pass 0  IDiag  1:
 RMSU=  1.49D-03    CP:  9.69D-01  8.01D-01
 E= -1780.25900852572     Delta-E=       -0.147037886128 Rises=F Damp=F
 DIIS: error= 9.41D-03 at cycle   3 NSaved=   3.
 NSaved= 3 IEnMin= 3 EnMin= -1780.25900852572     IErMin= 3 ErrMin= 9.41D-03
 ErrMax= 9.41D-03 EMaxC= 1.00D-01 BMatC= 3.33D-02 BMatP= 1.85D-01
 IDIUse=3 WtCom= 9.06D-01 WtEn= 9.41D-02
 Coeff-Com:  0.781D-02 0.285D+00 0.708D+00
 Coeff-En:   0.000D+00 0.000D+00 0.100D+01
 Coeff:      0.708D-02 0.258D+00 0.735D+00
 Gap=     0.389 Goal=   None    Shift=    0.000
 RMSDP=8.66D-04 MaxDP=3.22D-02 DE=-1.47D-01 OVMax= 4.16D-02

 Cycle   4  Pass 0  IDiag  1:
 RMSU=  3.93D-04    CP:  9.71D-01  8.94D-01  8.17D-01
 E= -1780.28890725814     Delta-E=       -0.029898732419 Rises=F Damp=F
 DIIS: error= 2.81D-03 at cycle   4 NSaved=   4.
 NSaved= 4 IEnMin= 4 EnMin= -1780.28890725814     IErMin= 4 ErrMin= 2.81D-03
 ErrMax= 2.81D-03 EMaxC= 1.00D-01 BMatC= 3.23D-03 BMatP= 3.33D-02
 IDIUse=3 WtCom= 9.72D-01 WtEn= 2.81D-02
 Coeff-Com: -0.138D-01 0.278D-01 0.276D+00 0.710D+00
 Coeff-En:   0.000D+00 0.000D+00 0.000D+00 0.100D+01
 Coeff:     -0.134D-01 0.270D-01 0.268D+00 0.718D+00
 Gap=     0.383 Goal=   None    Shift=    0.000
 RMSDP=2.78D-04 MaxDP=9.82D-03 DE=-2.99D-02 OVMax= 8.73D-03

 Cycle   5  Pass 0  IDiag  1:
 RMSU=  1.15D-04    CP:  9.69D-01  8.90D-01  8.99D-01  7.51D-01
 E= -1780.29210775073     Delta-E=       -0.003200492591 Rises=F Damp=F
 DIIS: error= 9.11D-04 at cycle   5 NSaved=   5.
 NSaved= 5 IEnMin= 5 EnMin= -1780.29210775073     IErMin= 5 ErrMin= 9.11D-04
 ErrMax= 9.11D-04 EMaxC= 1.00D-01 BMatC= 9.85D-05 BMatP= 3.23D-03
 IDIUse=3 WtCom= 9.91D-01 WtEn= 9.11D-03
 Coeff-Com: -0.124D-02-0.140D-01-0.150D-01 0.523D-01 0.978D+00
 Coeff-En:   0.000D+00 0.000D+00 0.000D+00 0.000D+00 0.100D+01
 Coeff:     -0.123D-02-0.139D-01-0.149D-01 0.518D-01 0.978D+00
 Gap=     0.383 Goal=   None    Shift=    0.000
 RMSDP=7.82D-05 MaxDP=1.89D-03 DE=-3.20D-03 OVMax= 5.01D-03

 Cycle   6  Pass 0  IDiag  1:
 RMSU=  4.08D-05    CP:  9.69D-01  8.90D-01  9.15D-01  7.97D-01  1.19D+00
 E= -1780.29237542190     Delta-E=       -0.000267671176 Rises=F Damp=F
 DIIS: error= 3.00D-04 at cycle   6 NSaved=   6.
 NSaved= 6 IEnMin= 6 EnMin= -1780.29237542190     IErMin= 6 ErrMin= 3.00D-04
 ErrMax= 3.00D-04 EMaxC= 1.00D-01 BMatC= 2.91D-05 BMatP= 9.85D-05
 IDIUse=3 WtCom= 9.97D-01 WtEn= 3.00D-03
 Coeff-Com:  0.247D-02-0.884D-02-0.542D-01-0.143D+00 0.192D+00 0.101D+01
 Coeff-En:   0.000D+00 0.000D+00 0.000D+00 0.000D+00 0.000D+00 0.100D+01
 Coeff:      0.246D-02-0.881D-02-0.540D-01-0.142D+00 0.191D+00 0.101D+01
 Gap=     0.384 Goal=   None    Shift=    0.000
 RMSDP=4.93D-05 MaxDP=1.41D-03 DE=-2.68D-04 OVMax= 3.08D-03

 Cycle   7  Pass 0  IDiag  1:
 RMSU=  1.77D-05    CP:  9.69D-01  8.90D-01  9.24D-01  8.07D-01  1.41D+00
                    CP:  1.16D+00
 E= -1780.29246267060     Delta-E=       -0.000087248694 Rises=F Damp=F
 DIIS: error= 1.87D-04 at cycle   7 NSaved=   7.
 NSaved= 7 IEnMin= 7 EnMin= -1780.29246267060     IErMin= 7 ErrMin= 1.87D-04
 ErrMax= 1.87D-04 EMaxC= 1.00D-01 BMatC= 3.97D-06 BMatP= 2.91D-05
 IDIUse=3 WtCom= 9.98D-01 WtEn= 1.87D-03
 Coeff-Com:  0.105D-03 0.187D-02 0.543D-02-0.880D-02-0.125D+00-0.411D-01
 Coeff-Com:  0.117D+01
 Coeff-En:   0.000D+00 0.000D+00 0.000D+00 0.000D+00 0.000D+00 0.000D+00
 Coeff-En:   0.100D+01
 Coeff:      0.104D-03 0.187D-02 0.542D-02-0.879D-02-0.125D+00-0.411D-01
 Coeff:      0.117D+01
 Gap=     0.383 Goal=   None    Shift=    0.000
 RMSDP=2.01D-05 MaxDP=5.83D-04 DE=-8.72D-05 OVMax= 1.59D-03

 Cycle   8  Pass 0  IDiag  1:
 RMSU=  6.92D-06    CP:  9.69D-01  8.89D-01  9.25D-01  8.05D-01  1.47D+00
                    CP:  1.35D+00  1.31D+00
 E= -1780.29247768501     Delta-E=       -0.000015014416 Rises=F Damp=F
 DIIS: error= 6.19D-05 at cycle   8 NSaved=   8.
 NSaved= 8 IEnMin= 8 EnMin= -1780.29247768501     IErMin= 8 ErrMin= 6.19D-05
 ErrMax= 6.19D-05 EMaxC= 1.00D-01 BMatC= 8.19D-07 BMatP= 3.97D-06
 IDIUse=1 WtCom= 1.00D+00 WtEn= 0.00D+00
 Coeff-Com: -0.531D-03 0.236D-02 0.142D-01 0.294D-01-0.588D-01-0.250D+00
 Coeff-Com:  0.216D+00 0.105D+01
 Coeff:     -0.531D-03 0.236D-02 0.142D-01 0.294D-01-0.588D-01-0.250D+00
 Coeff:      0.216D+00 0.105D+01
 Gap=     0.383 Goal=   None    Shift=    0.000
 RMSDP=9.39D-06 MaxDP=2.53D-04 DE=-1.50D-05 OVMax= 6.98D-04

 Initial convergence to 1.0D-05 achieved.  Increase integral accuracy.
 Cycle   9  Pass 1  IDiag  1:
 E= -1780.29249381105     Delta-E=       -0.000016126040 Rises=F Damp=F
 DIIS: error= 7.26D-05 at cycle   1 NSaved=   1.
 NSaved= 1 IEnMin= 1 EnMin= -1780.29249381105     IErMin= 1 ErrMin= 7.26D-05
 ErrMax= 7.26D-05 EMaxC= 1.00D-01 BMatC= 1.51D-06 BMatP= 1.51D-06
 IDIUse=1 WtCom= 1.00D+00 WtEn= 0.00D+00
 Coeff-Com:  0.100D+01
 Coeff:      0.100D+01
 Gap=     0.383 Goal=   None    Shift=    0.000
 RMSDP=9.39D-06 MaxDP=2.53D-04 DE=-1.61D-05 OVMax= 2.05D-04

 Cycle  10  Pass 1  IDiag  1:
 RMSU=  3.49D-05    CP:  1.00D+00
 E= -1780.29249536178     Delta-E=       -0.000001550725 Rises=F Damp=F
 DIIS: error= 1.48D-05 at cycle   2 NSaved=   2.
 NSaved= 2 IEnMin= 2 EnMin= -1780.29249536178     IErMin= 2 ErrMin= 1.48D-05
 ErrMax= 1.48D-05 EMaxC= 1.00D-01 BMatC= 4.24D-08 BMatP= 1.51D-06
 IDIUse=1 WtCom= 1.00D+00 WtEn= 0.00D+00
 Coeff-Com: -0.232D-01 0.102D+01
 Coeff:     -0.232D-01 0.102D+01
 Gap=     0.383 Goal=   None    Shift=    0.000
 RMSDP=2.96D-06 MaxDP=4.69D-05 DE=-1.55D-06 OVMax= 1.20D-04

 Cycle  11  Pass 1  IDiag  1:
 RMSU=  1.06D-06    CP:  1.00D+00  1.05D+00
 E= -1780.29249547401     Delta-E=       -0.000000112229 Rises=F Damp=F
 DIIS: error= 1.25D-05 at cycle   3 NSaved=   3.
 NSaved= 3 IEnMin= 3 EnMin= -1780.29249547401     IErMin= 3 ErrMin= 1.25D-05
 ErrMax= 1.25D-05 EMaxC= 1.00D-01 BMatC= 1.97D-08 BMatP= 4.24D-08
 IDIUse=1 WtCom= 1.00D+00 WtEn= 0.00D+00
 Coeff-Com: -0.259D-01 0.326D+00 0.700D+00
 Coeff:     -0.259D-01 0.326D+00 0.700D+00
 Gap=     0.383 Goal=   None    Shift=    0.000
 RMSDP=6.35D-07 MaxDP=1.61D-05 DE=-1.12D-07 OVMax= 6.25D-05

 Cycle  12  Pass 1  IDiag  1:
 RMSU=  4.36D-07    CP:  1.00D+00  1.05D+00  1.02D+00
 E= -1780.29249551549     Delta-E=       -0.000000041482 Rises=F Damp=F
 DIIS: error= 6.96D-06 at cycle   4 NSaved=   4.
 NSaved= 4 IEnMin= 4 EnMin= -1780.29249551549     IErMin= 4 ErrMin= 6.96D-06
 ErrMax= 6.96D-06 EMaxC= 1.00D-01 BMatC= 6.09D-09 BMatP= 1.97D-08
 IDIUse=1 WtCom= 1.00D+00 WtEn= 0.00D+00
 Coeff-Com:  0.229D-01-0.628D+00-0.295D+00 0.190D+01
 Coeff:      0.229D-01-0.628D+00-0.295D+00 0.190D+01
 Gap=     0.383 Goal=   None    Shift=    0.000
 RMSDP=1.13D-06 MaxDP=2.37D-05 DE=-4.15D-08 OVMax= 1.25D-04

 Cycle  13  Pass 1  IDiag  1:
 RMSU=  3.10D-07    CP:  1.00D+00  1.06D+00  1.58D+00  2.01D+00
 E= -1780.29249555417     Delta-E=       -0.000000038681 Rises=F Damp=F
 DIIS: error= 2.14D-06 at cycle   5 NSaved=   5.
 NSaved= 5 IEnMin= 5 EnMin= -1780.29249555417     IErMin= 5 ErrMin= 2.14D-06
 ErrMax= 2.14D-06 EMaxC= 1.00D-01 BMatC= 5.31D-10 BMatP= 6.09D-09
 IDIUse=1 WtCom= 1.00D+00 WtEn= 0.00D+00
 Coeff-Com:  0.986D-02-0.227D+00-0.158D+00 0.582D+00 0.794D+00
 Coeff:      0.986D-02-0.227D+00-0.158D+00 0.582D+00 0.794D+00
 Gap=     0.383 Goal=   None    Shift=    0.000
 RMSDP=1.97D-07 MaxDP=5.75D-06 DE=-3.87D-08 OVMax= 2.42D-05

 Cycle  14  Pass 1  IDiag  1:
 RMSU=  8.06D-08    CP:  1.00D+00  1.06D+00  1.64D+00  2.20D+00  1.12D+00
 E= -1780.29249555581     Delta-E=       -0.000000001638 Rises=F Damp=F
 DIIS: error= 5.84D-07 at cycle   6 NSaved=   6.
 NSaved= 6 IEnMin= 6 EnMin= -1780.29249555581     IErMin= 6 ErrMin= 5.84D-07
 ErrMax= 5.84D-07 EMaxC= 1.00D-01 BMatC= 5.90D-11 BMatP= 5.31D-10
 IDIUse=1 WtCom= 1.00D+00 WtEn= 0.00D+00
 Coeff-Com: -0.326D-02 0.898D-01 0.437D-01-0.283D+00 0.642D-02 0.115D+01
 Coeff:     -0.326D-02 0.898D-01 0.437D-01-0.283D+00 0.642D-02 0.115D+01
 Gap=     0.383 Goal=   None    Shift=    0.000
 RMSDP=8.61D-08 MaxDP=1.86D-06 DE=-1.64D-09 OVMax= 9.21D-06

 Cycle  15  Pass 1  IDiag  1:
 RMSU=  3.21D-08    CP:  1.00D+00  1.06D+00  1.65D+00  2.26D+00  1.25D+00
                    CP:  1.18D+00
 E= -1780.29249555605     Delta-E=       -0.000000000248 Rises=F Damp=F
 DIIS: error= 1.62D-07 at cycle   7 NSaved=   7.
 NSaved= 7 IEnMin= 7 EnMin= -1780.29249555605     IErMin= 7 ErrMin= 1.62D-07
 ErrMax= 1.62D-07 EMaxC= 1.00D-01 BMatC= 7.86D-12 BMatP= 5.90D-11
 IDIUse=1 WtCom= 1.00D+00 WtEn= 0.00D+00
 Coeff-Com: -0.104D-02 0.237D-01 0.178D-01-0.620D-01-0.937D-01 0.121D-02
 Coeff-Com:  0.111D+01
 Coeff:     -0.104D-02 0.237D-01 0.178D-01-0.620D-01-0.937D-01 0.121D-02
 Coeff:      0.111D+01
 Gap=     0.383 Goal=   None    Shift=    0.000
 RMSDP=2.70D-08 MaxDP=7.52D-07 DE=-2.48D-10 OVMax= 2.58D-06

 Cycle  16  Pass 1  IDiag  1:
 RMSU=  1.12D-08    CP:  1.00D+00  1.06D+00  1.65D+00  2.27D+00  1.26D+00
                    CP:  1.29D+00  1.31D+00
 E= -1780.29249555605     Delta-E=        0.000000000004 Rises=F Damp=F
 DIIS: error= 8.46D-08 at cycle   8 NSaved=   8.
 NSaved= 8 IEnMin= 7 EnMin= -1780.29249555605     IErMin= 8 ErrMin= 8.46D-08
 ErrMax= 8.46D-08 EMaxC= 1.00D-01 BMatC= 1.92D-12 BMatP= 7.86D-12
 IDIUse=1 WtCom= 1.00D+00 WtEn= 0.00D+00
 Coeff-Com:  0.361D-03-0.114D-01-0.294D-02 0.396D-01-0.311D-01-0.233D+00
 Coeff-Com:  0.331D+00 0.908D+00
 Coeff:      0.361D-03-0.114D-01-0.294D-02 0.396D-01-0.311D-01-0.233D+00
 Coeff:      0.331D+00 0.908D+00
 Gap=     0.383 Goal=   None    Shift=    0.000
 RMSDP=1.16D-08 MaxDP=3.71D-07 DE= 3.64D-12 OVMax= 1.18D-06

 Cycle  17  Pass 1  IDiag  1:
 RMSU=  4.95D-09    CP:  1.00D+00  1.06D+00  1.65D+00  2.28D+00  1.26D+00
                    CP:  1.32D+00  1.49D+00  1.04D+00
 E= -1780.29249555607     Delta-E=       -0.000000000024 Rises=F Damp=F
 DIIS: error= 5.40D-08 at cycle   9 NSaved=   9.
 NSaved= 9 IEnMin= 9 EnMin= -1780.29249555607     IErMin= 9 ErrMin= 5.40D-08
 ErrMax= 5.40D-08 EMaxC= 1.00D-01 BMatC= 1.90D-13 BMatP= 1.92D-12
 IDIUse=1 WtCom= 1.00D+00 WtEn= 0.00D+00
 Coeff-Com:  0.993D-04-0.225D-02-0.137D-02 0.540D-02 0.919D-02 0.295D-02
 Coeff-Com: -0.100D+00-0.241D-01 0.111D+01
 Coeff:      0.993D-04-0.225D-02-0.137D-02 0.540D-02 0.919D-02 0.295D-02
 Coeff:     -0.100D+00-0.241D-01 0.111D+01
 Gap=     0.383 Goal=   None    Shift=    0.000
 RMSDP=4.11D-09 MaxDP=1.18D-07 DE=-2.36D-11 OVMax= 4.97D-07

 SCF Done:  E(RHF) =  -1780.29249556     A.U. after   17 cycles
             Convg  =    0.4109D-08             -V/T =  2.0003
 KE= 1.779781454766D+03 PE=-1.040083734715D+04 EE= 3.729078259386D+03
 Leave Link  502 at Tue Aug 30 12:03:34 2022, MaxMem=  209715200 cpu:     672.2
 (Enter /opt/gaussian/l601.exe)
 Copying SCF densities to generalized density rwf, IOpCl= 0 IROHF=0.

 **********************************************************************

            Population analysis using the SCF density.

 **********************************************************************

 Orbital symmetries:
       Occupied  (A) (A) (A) (A) (A) (A) (A) (A) (A) (A) (A) (A)
                 (A) (A) (A) (A) (A) (A) (A) (A) (A) (A) (A) (A)
                 (A) (A) (A) (A) (A) (A) (A) (A) (A) (A) (A) (A)
                 (A) (A) (A) (A) (A) (A) (A) (A) (A) (A) (A) (A)
                 (A) (A) (A) (A) (A) (A) (A) (A) (A) (A) (A) (A)
                 (A) (A) (A) (A) (A) (A) (A) (A) (A) (A) (A) (A)
                 (A) (A) (A) (A) (A) (A) (A) (A) (A) (A) (A) (A)
                 (A) (A) (A) (A) (A) (A) (A) (A) (A) (A) (A) (A)
                 (A) (A) (A) (A) (A) (A) (A) (A) (A) (A) (A) (A)
                 (A) (A) (A) (A) (A) (A) (A)
       Virtual   (A) (A) (A) (A) (A) (A) (A) (A) (A) (A) (A) (A)
                 (A) (A) (A) (A) (A) (A) (A) (A) (A) (A) (A) (A)
                 (A) (A) (A) (A) (A) (A) (A) (A) (A) (A) (A) (A)
                 (A) (A) (A) (A) (A) (A) (A) (A) (A) (A) (A) (A)
                 (A) (A) (A) (A) (A) (A) (A) (A) (A) (A) (A) (A)
                 (A) (A) (A) (A) (A) (A) (A) (A) (A) (A) (A) (A)
                 (A) (A) (A) (A) (A) (A) (A) (A) (A) (A) (A) (A)
                 (A) (A) (A) (A) (A) (A) (A) (A) (A) (A) (A) (A)
                 (A) (A) (A) (A) (A) (A) (A) (A) (A) (A) (A) (A)
                 (A) (A) (A) (A) (A) (A) (A) (A) (A) (A) (A) (A)
                 (A) (A) (A) (A) (A) (A) (A) (A) (A) (A) (A) (A)
                 (A) (A) (A) (A) (A) (A) (A) (A) (A) (A) (A) (A)
                 (A) (A) (A) (A) (A) (A) (A) (A) (A) (A) (A) (A)
                 (A) (A) (A) (A) (A) (A) (A) (A) (A) (A) (A) (A)
                 (A) (A) (A) (A) (A) (A) (A) (A) (A) (A) (A) (A)
                 (A) (A) (A) (A) (A) (A) (A) (A) (A) (A) (A) (A)
                 (A) (A) (A) (A) (A) (A) (A) (A) (A) (A) (A) (A)
                 (A) (A) (A) (A) (A) (A) (A) (A) (A) (A) (A)
 The electronic state is 1-A.
 Alpha  occ. eigenvalues -- -104.81880 -20.55438 -15.67435 -15.66171 -15.64122
 Alpha  occ. eigenvalues --  -15.62198 -15.61774 -15.57795 -11.39534 -11.32590
 Alpha  occ. eigenvalues --  -11.32036 -11.30987 -11.30591 -11.29527 -11.29128
 Alpha  occ. eigenvalues --  -11.28999 -11.28282 -11.27601 -11.26381 -11.26172
 Alpha  occ. eigenvalues --  -11.25979 -11.25919 -11.25814 -11.25806 -11.25768
 Alpha  occ. eigenvalues --  -11.25738 -11.25387 -11.25322 -11.25287 -11.25142
 Alpha  occ. eigenvalues --  -11.24590 -11.24414 -10.56113  -8.02990  -8.02541
 Alpha  occ. eigenvalues --   -8.02528  -1.46722  -1.41061  -1.34546  -1.28081
 Alpha  occ. eigenvalues --   -1.24591  -1.20226  -1.18698  -1.16994  -1.15841
 Alpha  occ. eigenvalues --   -1.13192  -1.06465  -1.05351  -1.05074  -1.03978
 Alpha  occ. eigenvalues --   -1.02919  -1.01672  -0.99877  -0.98843  -0.94499
 Alpha  occ. eigenvalues --   -0.88490  -0.87948  -0.85710  -0.84799  -0.83660
 Alpha  occ. eigenvalues --   -0.82717  -0.82138  -0.79984  -0.78821  -0.76420
 Alpha  occ. eigenvalues --   -0.76037  -0.73973  -0.72068  -0.70502  -0.70121
 Alpha  occ. eigenvalues --   -0.67072  -0.66711  -0.66063  -0.65838  -0.65370
 Alpha  occ. eigenvalues --   -0.64765  -0.63301  -0.62425  -0.61939  -0.61313
 Alpha  occ. eigenvalues --   -0.60810  -0.60332  -0.60115  -0.59670  -0.58799
 Alpha  occ. eigenvalues --   -0.58418  -0.58287  -0.57903  -0.55297  -0.54760
 Alpha  occ. eigenvalues --   -0.54297  -0.53565  -0.53055  -0.52324  -0.51621
 Alpha  occ. eigenvalues --   -0.51021  -0.50309  -0.49996  -0.49635  -0.49553
 Alpha  occ. eigenvalues --   -0.46460  -0.45682  -0.45188  -0.43731  -0.43035
 Alpha  occ. eigenvalues --   -0.42029  -0.41281  -0.39251  -0.36297  -0.34906
 Alpha  occ. eigenvalues --   -0.34456  -0.33756  -0.32959  -0.32427  -0.28948
 Alpha virt. eigenvalues --    0.09397   0.10045   0.12265   0.12926   0.13190
 Alpha virt. eigenvalues --    0.14325   0.14708   0.16403   0.20218   0.21044
 Alpha virt. eigenvalues --    0.21353   0.22179   0.23318   0.23737   0.25196
 Alpha virt. eigenvalues --    0.25784   0.26141   0.26981   0.27261   0.27576
 Alpha virt. eigenvalues --    0.28688   0.29618   0.30076   0.31121   0.31650
 Alpha virt. eigenvalues --    0.31783   0.33079   0.33566   0.34113   0.34364
 Alpha virt. eigenvalues --    0.35109   0.35827   0.36305   0.37115   0.38125
 Alpha virt. eigenvalues --    0.38378   0.39497   0.39614   0.39933   0.40543
 Alpha virt. eigenvalues --    0.40910   0.43196   0.43804   0.44509   0.45389
 Alpha virt. eigenvalues --    0.45680   0.46705   0.47851   0.48467   0.49043
 Alpha virt. eigenvalues --    0.50379   0.51676   0.51955   0.53076   0.53736
 Alpha virt. eigenvalues --    0.55482   0.56872   0.58718   0.59000   0.60967
 Alpha virt. eigenvalues --    0.61065   0.61856   0.63673   0.63921   0.64188
 Alpha virt. eigenvalues --    0.64611   0.68414   0.70100   0.71724   0.72397
 Alpha virt. eigenvalues --    0.73366   0.73776   0.74095   0.74917   0.75383
 Alpha virt. eigenvalues --    0.76047   0.76478   0.76944   0.77294   0.77555
 Alpha virt. eigenvalues --    0.78150   0.78547   0.79155   0.79966   0.80682
 Alpha virt. eigenvalues --    0.81155   0.81725   0.81993   0.83005   0.83134
 Alpha virt. eigenvalues --    0.83743   0.84595   0.84822   0.85350   0.85432
 Alpha virt. eigenvalues --    0.86065   0.86283   0.86775   0.87113   0.87381
 Alpha virt. eigenvalues --    0.87687   0.87713   0.88041   0.88656   0.89335
 Alpha virt. eigenvalues --    0.89538   0.90024   0.90304   0.90739   0.91586
 Alpha virt. eigenvalues --    0.92006   0.92808   0.93432   0.93829   0.94734
 Alpha virt. eigenvalues --    0.95832   0.97417   0.98270   0.99590   0.99984
 Alpha virt. eigenvalues --    1.00533   1.00879   1.01381   1.02623   1.03028
 Alpha virt. eigenvalues --    1.05153   1.05514   1.06446   1.06713   1.07671
 Alpha virt. eigenvalues --    1.08128   1.09738   1.10007   1.10729   1.10949
 Alpha virt. eigenvalues --    1.11216   1.11697   1.11875   1.12112   1.12679
 Alpha virt. eigenvalues --    1.12875   1.13936   1.14508   1.14965   1.15652
 Alpha virt. eigenvalues --    1.16468   1.16773   1.17041   1.17343   1.17638
 Alpha virt. eigenvalues --    1.17991   1.18605   1.20061   1.20858   1.21323
 Alpha virt. eigenvalues --    1.22070   1.23531   1.24650   1.25552   1.25894
 Alpha virt. eigenvalues --    1.27010   1.27288   1.28679   1.28869   1.29882
 Alpha virt. eigenvalues --    1.30666   1.30923   1.32030   1.33277   1.36682
 Alpha virt. eigenvalues --    1.37335   1.38699   1.39531   1.40258   1.40857
 Alpha virt. eigenvalues --    1.41731   1.41971   1.43129   1.43735   1.44847
 Alpha virt. eigenvalues --    1.45411   1.46196   1.46736   1.48558   1.50935
 Alpha virt. eigenvalues --    1.51340   1.55159   1.56320   1.57270   1.58839
 Alpha virt. eigenvalues --    1.59872   1.62786   1.63809   1.67276   1.69089
 Alpha virt. eigenvalues --    1.69532   1.70846   1.72501   1.72837   1.75905
 Alpha virt. eigenvalues --    1.80199   1.81989   1.88853   1.91694   1.94900
 Alpha virt. eigenvalues --    1.95775   1.99765   2.00214   2.02917   2.06333
 Alpha virt. eigenvalues --    2.11867   2.15835   2.20985   2.22278   2.32575
          Condensed to atoms (all electrons):
 Mulliken atomic charges:
              1
     1  C    0.380852
     2  C    0.025617
     3  C   -0.118799
     4  C   -0.109640
     5  C   -0.210503
     6  C   -0.231241
     7  N   -0.842885
     8  N   -0.325440
     9  N    0.116696
    10  C   -0.122260
    11  C    0.802920
    12  N   -0.927563
    13  O   -0.638198
    14  C   -0.149172
    15  C   -0.380361
    16  C   -0.143034
    17  C   -0.139285
    18  C   -0.203077
    19  C    0.004634
    20  C   -0.211107
    21  Cl   0.146164
    22  C   -0.202161
    23  C    0.015843
    24  C   -0.193994
    25  C   -0.182208
    26  C    0.279686
    27  C   -0.174622
    28  C    0.027510
    29  C    0.161649
    30  N   -0.548000
    31  N   -0.901757
    32  C    0.353451
    33  H    0.285593
    34  H    0.243414
    35  H    0.213825
    36  H    0.208064
    37  H    0.247618
    38  H    0.238415
    39  H    0.231365
    40  H    0.197858
    41  H    0.231281
    42  H    0.242599
    43  H    0.214267
    44  H    0.279197
    45  H    0.212260
    46  H    0.221207
    47  H    0.259561
    48  H    0.226338
    49  H    0.249393
    50  H    0.395393
    51  H    0.242635
 Sum of Mulliken atomic charges =   0.00000
 Mulliken charges with hydrogens summed into heavy atoms:
              1
     1  C    0.380852
     2  C    0.025617
     3  C    0.166794
     4  C    0.133773
     5  C    0.003322
     6  C   -0.023177
     7  N   -0.842885
     8  N   -0.325440
     9  N    0.116696
    10  C    0.363773
    11  C    0.802920
    12  N   -0.927563
    13  O   -0.638198
    14  C    0.280052
    15  C   -0.380361
    16  C    0.088248
    17  C    0.103315
    18  C    0.011190
    19  C    0.004634
    20  C    0.068090
    21  Cl   0.146164
    22  C    0.010100
    23  C    0.015843
    24  C    0.027214
    25  C    0.077352
    26  C    0.279686
    27  C    0.051715
    28  C    0.027510
    29  C    0.411042
    30  N   -0.548000
    31  N   -0.506364
    32  C    0.596087
 Sum of Mulliken charges with hydrogens summed into heavy atoms =   0.00000
 Electronic spatial extent (au):  <R**2>=          17293.3272
 Charge=              0.0000 electrons
 Dipole moment (field-independent basis, Debye):
    X=              0.0806    Y=              2.2725    Z=              2.5535  Tot=              3.4192
 Quadrupole moment (field-independent basis, Debye-Ang):
   XX=           -208.4218   YY=           -153.7667   ZZ=           -184.1687
   XY=             14.7620   XZ=             17.8907   YZ=             13.4688
 Traceless Quadrupole moment (field-independent basis, Debye-Ang):
   XX=            -26.3027   YY=             28.3524   ZZ=             -2.0497
   XY=             14.7620   XZ=             17.8907   YZ=             13.4688
 Octapole moment (field-independent basis, Debye-Ang**2):
  XXX=           -125.8296  YYY=            414.8238  ZZZ=             26.0570  XYY=             63.8365
  XXY=            -81.7737  XXZ=            -21.0617  XZZ=              7.7506  YZZ=              7.7069
  YYZ=             91.4245  XYZ=            -10.3488
 Hexadecapole moment (field-independent basis, Debye-Ang**3):
 XXXX=         -12923.0610 YYYY=          -6449.3145 ZZZZ=          -1102.7680 XXXY=            222.7943
 XXXZ=            598.9148 YYYX=            366.2795 YYYZ=            500.0697 ZZZX=            -11.9178
 ZZZY=             59.0157 XXYY=          -3692.1267 XXZZ=          -2302.6317 YYZZ=          -1710.8216
 XXYZ=            -45.8046 YYXZ=            244.1172 ZZXY=             29.0411
 N-N= 3.111685137442D+03 E-N=-1.040083734439D+04  KE= 1.779781454766D+03
 No NMR shielding tensors so no spin-rotation constants.
 Leave Link  601 at Tue Aug 30 12:03:34 2022, MaxMem=  209715200 cpu:       1.5
 (Enter /opt/gaussian/l701.exe)
 Compute integral first derivatives.
 ... and contract with generalized density number  0.
 Leave Link  701 at Tue Aug 30 12:03:34 2022, MaxMem=  209715200 cpu:       1.4
 (Enter /opt/gaussian/l702.exe)
 L702 exits ... SP integral derivatives will be done elsewhere.
 Leave Link  702 at Tue Aug 30 12:03:34 2022, MaxMem=  209715200 cpu:       0.2
 (Enter /opt/gaussian/l703.exe)
 Compute integral first derivatives, UseDBF=F ICtDFT=           0.
 Integral derivatives from FoFDir, PRISM(SPDF).
 Calling FoFJK, ICntrl=      2127 FMM=F ISym2X=0 I1Cent= 0 IOpClX= 0 NMat=1 NMatS=1 NMatT=0.
 FoFCou: FMM=F IPFlag=           0 FMFlag=      100000 FMFlg1=         800
         NFxFlg=           0 DoJE=F BraDBF=F KetDBF=F FulRan=T
         Omega=  0.000000  0.000000  1.000000  0.000000  0.000000 ICntrl=    2127 IOpCl=  0
         NMat0=    1 NMatS0=    1 NMatT0=    0 NMatD0=    1 NMtDS0=    0 NMtDT0=    0
         I1Cent=           0 NGrid=           0.
 Symmetry not used in FoFCou.
 Leave Link  703 at Tue Aug 30 12:04:06 2022, MaxMem=  209715200 cpu:     254.3
 (Enter /opt/gaussian/l716.exe)
 Dipole        = 3.17084754D-02 8.94058733D-01 1.00460790D+00
 ***** Axes restored to original set *****
 -------------------------------------------------------------------
 Center     Atomic                   Forces (Hartrees/Bohr)
 Number     Number              X              Y              Z
 -------------------------------------------------------------------
      1        6          -0.004789085   -0.045657211   -0.000060605
      2        6           0.029570955    0.031855551   -0.021864518
      3        6           0.009032625    0.011484023   -0.007253472
      4        6          -0.001245010   -0.012994494    0.000091602
      5        6          -0.002674247    0.011292901    0.002994820
      6        6          -0.011610616   -0.003129180    0.009552361
      7        7          -0.031887489    0.009157146    0.035515823
      8        7          -0.018245106    0.018107111    0.017062178
      9        7           0.011740925    0.004818160   -0.010649835
     10        6           0.009785412    0.003826503   -0.035499874
     11        6           0.006313513    0.014156808    0.014636301
     12        7          -0.025288047   -0.000340144   -0.024551670
     13        8           0.006567954   -0.025105477   -0.003824917
     14        6          -0.010394784    0.015200895    0.044245360
     15        6          -0.062356218    0.018142605   -0.012607035
     16        6           0.007672328    0.000949991   -0.001083231
     17        6           0.003696608   -0.000633245   -0.000010648
     18        6          -0.003769817    0.006556218   -0.006262535
     19        6           0.007396789    0.002769534   -0.004329569
     20        6          -0.009408649    0.006450998   -0.004639987
     21       17           0.055403616   -0.015252970    0.009753911
     22        6           0.001846820   -0.001662635   -0.006509809
     23        6          -0.004041213    0.012971038    0.004839838
     24        6          -0.002000778    0.009034728    0.001607606
     25        6          -0.000658892   -0.005393776    0.009888189
     26        6           0.008790963   -0.026393489   -0.002349847
     27        6          -0.002774611    0.008746764   -0.000332313
     28        6           0.016918350   -0.044640547   -0.037000264
     29        6          -0.004686051    0.010235200    0.030646576
     30        7           0.011402184   -0.031457301   -0.044391040
     31        7          -0.010385244    0.026902732    0.043751775
     32        6          -0.007498560    0.021140024   -0.001819259
     33        1          -0.010195924   -0.017675800    0.006598353
     34        1           0.008231422    0.016971983   -0.005595597
     35        1           0.007614969   -0.017244175   -0.007765137
     36        1           0.015207053   -0.000742482   -0.012931831
     37        1          -0.025874486    0.013577864    0.018673128
     38        1           0.020334146   -0.017067650    0.017800963
     39        1           0.019042908   -0.023807507   -0.009533273
     40        1          -0.013368405    0.017926969   -0.021656816
     41        1          -0.013953621   -0.011331187    0.009953526
     42        1          -0.003237909    0.016180925   -0.012285382
     43        1           0.004368511   -0.014822405    0.011886259
     44        1           0.022066542   -0.005216100    0.004264643
     45        1          -0.008159024    0.007015665    0.017761960
     46        1          -0.002406228   -0.010560140    0.016373361
     47        1           0.003580247    0.012287720   -0.018067699
     48        1           0.007843122   -0.003566324   -0.018470291
     49        1           0.000915436   -0.007573359    0.016785203
     50        1           0.001739656   -0.004929026   -0.002551746
     51        1          -0.006173041    0.019436570   -0.010785537
 -------------------------------------------------------------------
 Cartesian Forces:  Max     0.062356218 RMS     0.017294656
 Leave Link  716 at Tue Aug 30 12:04:06 2022, MaxMem=  209715200 cpu:       0.2
 (Enter /opt/gaussian/l103.exe)

 GradGradGradGradGradGradGradGradGradGradGradGradGradGradGradGradGradGrad
 Berny optimization.
 Internal  Forces:  Max     0.058286776 RMS     0.010791671
 Search for a local minimum.
 Step number   1 out of a maximum of  288
 All quantities printed in internal units (Hartrees-Bohrs-Radians)
 RMS Force = .10792D-01 SwitMx=.10000D-02 MixMth= 1
 Mixed Optimization -- RFO/linear search
 Second derivative matrix not updated -- first step.
 ITU=  0
     Eigenvalues ---    0.00235   0.00722   0.00939   0.01003   0.01193
     Eigenvalues ---    0.01382   0.01408   0.01410   0.01444   0.01559
     Eigenvalues ---    0.01627   0.01648   0.01727   0.01738   0.01774
     Eigenvalues ---    0.01781   0.01785   0.01854   0.01872   0.01873
     Eigenvalues ---    0.01940   0.01989   0.01994   0.02062   0.02063
     Eigenvalues ---    0.02073   0.02074   0.02107   0.02113   0.02113
     Eigenvalues ---    0.02116   0.02118   0.02119   0.02121   0.02124
     Eigenvalues ---    0.02136   0.02142   0.02147   0.02151   0.02157
     Eigenvalues ---    0.02169   0.02178   0.02185   0.02194   0.04896
     Eigenvalues ---    0.04939   0.06576   0.06580   0.10053   0.10351
     Eigenvalues ---    0.13333   0.13490   0.15998   0.15999   0.15999
     Eigenvalues ---    0.15999   0.16000   0.16000   0.16000   0.16000
     Eigenvalues ---    0.16000   0.16000   0.16000   0.16000   0.16000
     Eigenvalues ---    0.16000   0.16000   0.22000   0.22000   0.22000
     Eigenvalues ---    0.22098   0.22108   0.22190   0.22588   0.22961
     Eigenvalues ---    0.23479   0.23495   0.23997   0.24012   0.24509
     Eigenvalues ---    0.24927   0.24953   0.24983   0.24985   0.24990
     Eigenvalues ---    0.24997   0.24999   0.24999   0.25000   0.25000
     Eigenvalues ---    0.25000   0.25000   0.28507   0.30520   0.30544
     Eigenvalues ---    0.30746   0.30804   0.32032   0.33300   0.33486
     Eigenvalues ---    0.33518   0.33522   0.33561   0.33575   0.33590
     Eigenvalues ---    0.33611   0.33628   0.33652   0.33658   0.33785
     Eigenvalues ---    0.34239   0.35029   0.35053   0.35724   0.37978
     Eigenvalues ---    0.38413   0.38946   0.39402   0.39902   0.40963
     Eigenvalues ---    0.41604   0.41813   0.41953   0.41987   0.42118
     Eigenvalues ---    0.42560   0.42752   0.42827   0.44559   0.44700
     Eigenvalues ---    0.44770   0.45587   0.45821   0.45939   0.45976
     Eigenvalues ---    0.45978   0.46347   0.46545   0.46922   0.47187
     Eigenvalues ---    0.47232   0.48879   0.49503   0.50524   0.53666
     Eigenvalues ---    0.75907   0.83792
 RFO step:  Lambda=-7.31279884D-02 EMin= 2.35018568D-03
 Linear search not attempted -- first point.
 Maximum step size (   0.300) exceeded in Quadratic search.
    -- Step size scaled by   0.734
 Iteration  1 RMS(Cart)=  0.07424430 RMS(Int)=  0.00100713
 Iteration  2 RMS(Cart)=  0.00237581 RMS(Int)=  0.00002902
 Iteration  3 RMS(Cart)=  0.00000173 RMS(Int)=  0.00002901
 Iteration  4 RMS(Cart)=  0.00000000 RMS(Int)=  0.00002901
 Variable       Old X    -DE/DX   Delta X   Delta X   Delta X     New X
                                 (Linear)    (Quad)   (Total)
    R1        2.73678  -0.04397   0.00000  -0.07433  -0.07425   2.66253
    R2        2.64274  -0.00870   0.00000  -0.01263  -0.01262   2.63012
    R3        2.66765  -0.03140   0.00000  -0.04612  -0.04612   2.62153
    R4        2.63985  -0.01143   0.00000  -0.01647  -0.01644   2.62341
    R5        2.69971  -0.02585   0.00000  -0.03920  -0.03918   2.66053
    R6        2.62401  -0.00920   0.00000  -0.01153  -0.01156   2.61245
    R7        2.08028  -0.02139   0.00000  -0.03838  -0.03838   2.04190
    R8        2.62397  -0.01091   0.00000  -0.01397  -0.01398   2.60999
    R9        2.07694  -0.01968   0.00000  -0.03514  -0.03514   2.04180
   R10        2.65996  -0.00730   0.00000  -0.00896  -0.00900   2.65096
   R11        2.08145  -0.02038   0.00000  -0.03664  -0.03664   2.04481
   R12        2.07992  -0.01997   0.00000  -0.03582  -0.03582   2.04409
   R13        2.58341  -0.00999   0.00000  -0.01122  -0.01126   2.57215
   R14        2.71686  -0.00149   0.00000  -0.00232  -0.00232   2.71454
   R15        2.37850  -0.00216   0.00000  -0.00067  -0.00070   2.37780
   R16        2.91044  -0.01059   0.00000  -0.02171  -0.02171   2.88873
   R17        2.13088  -0.03405   0.00000  -0.06558  -0.06558   2.06530
   R18        2.13592  -0.03178   0.00000  -0.06161  -0.06161   2.07431
   R19        2.61014  -0.02443   0.00000  -0.03191  -0.03191   2.57823
   R20        2.35933  -0.02617   0.00000  -0.02109  -0.02109   2.33825
   R21        2.74397   0.01414   0.00000   0.02292   0.02292   2.76690
   R22        2.68983   0.00935   0.00000   0.01393   0.01393   2.70376
   R23        2.84086   0.01016   0.00000   0.01896   0.01896   2.85982
   R24        2.13639  -0.03173   0.00000  -0.06156  -0.06156   2.07483
   R25        2.13200  -0.03103   0.00000  -0.05984  -0.05984   2.07215
   R26        2.64172  -0.01669   0.00000  -0.02342  -0.02342   2.61830
   R27        2.64262  -0.01310   0.00000  -0.01846  -0.01846   2.62416
   R28        3.21515   0.05829   0.00000   0.09941   0.09941   3.31456
   R29        2.63502  -0.00783   0.00000  -0.01070  -0.01071   2.62431
   R30        2.07922  -0.02046   0.00000  -0.03667  -0.03667   2.04255
   R31        2.63996  -0.00748   0.00000  -0.01024  -0.01023   2.62973
   R32        2.08053  -0.02054   0.00000  -0.03687  -0.03687   2.04365
   R33        2.63323  -0.00941   0.00000  -0.01239  -0.01240   2.62082
   R34        2.07912  -0.01949   0.00000  -0.03492  -0.03492   2.04420
   R35        2.64447  -0.00669   0.00000  -0.00883  -0.00883   2.63564
   R36        2.08529  -0.02305   0.00000  -0.04167  -0.04167   2.04362
   R37        2.65065  -0.00877   0.00000  -0.01168  -0.01168   2.63897
   R38        2.62696  -0.00722   0.00000  -0.00960  -0.00960   2.61736
   R39        2.07962  -0.02068   0.00000  -0.03708  -0.03708   2.04253
   R40        2.65021  -0.01079   0.00000  -0.01459  -0.01460   2.63561
   R41        2.73768   0.01153   0.00000   0.01850   0.01850   2.75618
   R42        2.66360  -0.02078   0.00000  -0.03017  -0.03017   2.63343
   R43        2.08077  -0.01946   0.00000  -0.03494  -0.03494   2.04583
   R44        2.62841  -0.00820   0.00000  -0.01115  -0.01115   2.61726
   R45        2.08206  -0.02198   0.00000  -0.03955  -0.03955   2.04251
   R46        2.66492  -0.02171   0.00000  -0.03166  -0.03166   2.63326
   R47        2.08152  -0.02022   0.00000  -0.03635  -0.03635   2.04517
   R48        2.67512  -0.05285   0.00000  -0.07536  -0.07535   2.59977
   R49        2.65803  -0.02068   0.00000  -0.02937  -0.02934   2.62869
[...]
 ! D122  D(23,28,30,32)       -179.9325         -DE/DX =    0.0                 !
 ! D123  D(29,28,30,32)         -0.0383         -DE/DX =    0.0                 !
 ! D124  D(28,29,31,32)         -0.0265         -DE/DX =    0.0                 !
 ! D125  D(28,29,31,50)       -179.9301         -DE/DX =    0.0                 !
 ! D126  D(49,29,31,32)        179.7979         -DE/DX =    0.0                 !
 ! D127  D(49,29,31,50)         -0.1056         -DE/DX =    0.0                 !
 ! D128  D(28,30,32,31)          0.0212         -DE/DX =    0.0                 !
 ! D129  D(28,30,32,51)       -179.9663         -DE/DX =    0.0                 !
 ! D130  D(29,31,32,30)          0.0032         -DE/DX =    0.0                 !
 ! D131  D(29,31,32,51)        179.9911         -DE/DX =    0.0                 !
 ! D132  D(50,31,32,30)        179.9064         -DE/DX =    0.0                 !
 ! D133  D(50,31,32,51)         -0.1057         -DE/DX =    0.0                 !
 --------------------------------------------------------------------------------
 GradGradGradGradGradGradGradGradGradGradGradGradGradGradGradGradGradGrad

 Largest change from initial coordinates is atom   50       6.542 Angstoms.
 Leave Link  103 at Tue Aug 30 13:01:34 2022, MaxMem=  209715200 cpu:       0.8
 (Enter /opt/gaussian/l202.exe)
 Stoichiometry    C24H19ClN6O
 Framework group  C1[X(C24H19ClN6O)]
 Deg. of freedom   147
 Full point group                 C1      NOp   1
 RotChk:  IX=3 Diff= 1.56D-15
 Largest Abelian subgroup         C1      NOp   1
 Largest concise Abelian subgroup C1      NOp   1
                         Standard orientation:                         
 ---------------------------------------------------------------------
 Center     Atomic      Atomic             Coordinates (Angstroms)
 Number     Number       Type             X           Y           Z
 ---------------------------------------------------------------------
      1          6           0       -4.210438    1.129969    0.473338
      2          6           0       -5.284734    1.892299    0.031978
      3          6           0       -4.370405    0.125618    1.432021
      4          6           0       -6.572664    1.693925    0.529094
      5          6           0       -5.641112   -0.060421    1.920171
      6          6           0       -6.736860    0.714776    1.477236
      7          7           0       -3.143364    1.623513   -0.215592
      8          7           0       -4.810153    2.792373   -0.908086
      9          7           0       -3.560760    2.622154   -1.044664
     10          6           0       -1.759627    1.253197   -0.202991
     11          6           0       -1.503618   -0.063913   -0.918971
     12          7           0       -0.207092   -0.391011   -1.163718
     13          8           0       -2.433845   -0.799866   -1.236379
     14          6           0        0.080379   -1.648430   -1.882821
     15          6           0        1.821242   -4.313757    0.166640
     16          6           0        0.772977   -5.005871    0.732684
     17          6           0        1.619414   -3.238575   -0.675736
     18          6           0       -0.522392   -4.598764    0.439056
     19          6           0        0.322055   -2.828675   -0.965523
     20          6           0       -0.748912   -3.521090   -0.402144
     21         17           0        3.519790   -4.829921    0.535493
     22          6           0        2.560036    1.002134    0.894046
     23          6           0        3.120447    1.939317    0.028074
     24          6           0        1.465907    0.243592    0.511760
     25          6           0        2.553298    2.098337   -1.236547
     26          6           0        0.905812    0.412355   -0.747608
     27          6           0        1.459719    1.341743   -1.619897
     28          6           0        4.279931    2.748848    0.411213
     29          6           0        5.008872    2.749867    1.562166
     30          7           0        4.807950    3.695351   -0.456745
     31          7           0        5.985484    3.705276    1.389985
     32          6           0        5.816333    4.244382    0.152275
     33          1           0       -3.552329   -0.485820    1.754188
     34          1           0       -7.389867    2.289434    0.175201
     35          1           0       -5.813245   -0.822875    2.655094
     36          1           0       -7.708084    0.524154    1.889308
     37          1           0       -1.213456    2.054187   -0.674346
     38          1           0       -1.407590    1.177650    0.818555
     39          1           0       -0.758245   -1.848665   -2.529862
     40          1           0        0.950765   -1.471184   -2.497768
     41          1           0        0.958121   -5.839371    1.378636
     42          1           0        2.460625   -2.728237   -1.100185
     43          1           0       -1.351661   -5.129511    0.864534
     44          1           0       -1.749899   -3.209422   -0.626153
     45          1           0        2.975418    0.853854    1.871697
     46          1           0        1.053293   -0.485197    1.181759
     47          1           0        2.977940    2.817002   -1.906304
     48          1           0        1.030786    1.469932   -2.595366
     49          1           0        4.930231    2.178831    2.456644
     50          1           0        6.683043    3.951945    2.047403
     51          1           0        6.440077    5.012103   -0.240706
 ---------------------------------------------------------------------
 Rotational constants (GHZ):      0.1300068      0.0790210      0.0538778
 Leave Link  202 at Tue Aug 30 13:01:34 2022, MaxMem=  209715200 cpu:       0.0
 (Enter /opt/gaussian/l601.exe)
 Copying SCF densities to generalized density rwf, IOpCl= 0 IROHF=0.

 **********************************************************************

            Population analysis using the SCF density.

 **********************************************************************

 Orbital symmetries:
       Occupied  (A) (A) (A) (A) (A) (A) (A) (A) (A) (A) (A) (A)
                 (A) (A) (A) (A) (A) (A) (A) (A) (A) (A) (A) (A)
                 (A) (A) (A) (A) (A) (A) (A) (A) (A) (A) (A) (A)
                 (A) (A) (A) (A) (A) (A) (A) (A) (A) (A) (A) (A)
                 (A) (A) (A) (A) (A) (A) (A) (A) (A) (A) (A) (A)
                 (A) (A) (A) (A) (A) (A) (A) (A) (A) (A) (A) (A)
                 (A) (A) (A) (A) (A) (A) (A) (A) (A) (A) (A) (A)
                 (A) (A) (A) (A) (A) (A) (A) (A) (A) (A) (A) (A)
                 (A) (A) (A) (A) (A) (A) (A) (A) (A) (A) (A) (A)
                 (A) (A) (A) (A) (A) (A) (A)
       Virtual   (A) (A) (A) (A) (A) (A) (A) (A) (A) (A) (A) (A)
                 (A) (A) (A) (A) (A) (A) (A) (A) (A) (A) (A) (A)
                 (A) (A) (A) (A) (A) (A) (A) (A) (A) (A) (A) (A)
                 (A) (A) (A) (A) (A) (A) (A) (A) (A) (A) (A) (A)
                 (A) (A) (A) (A) (A) (A) (A) (A) (A) (A) (A) (A)
                 (A) (A) (A) (A) (A) (A) (A) (A) (A) (A) (A) (A)
                 (A) (A) (A) (A) (A) (A) (A) (A) (A) (A) (A) (A)
                 (A) (A) (A) (A) (A) (A) (A) (A) (A) (A) (A) (A)
                 (A) (A) (A) (A) (A) (A) (A) (A) (A) (A) (A) (A)
                 (A) (A) (A) (A) (A) (A) (A) (A) (A) (A) (A) (A)
                 (A) (A) (A) (A) (A) (A) (A) (A) (A) (A) (A) (A)
                 (A) (A) (A) (A) (A) (A) (A) (A) (A) (A) (A) (A)
                 (A) (A) (A) (A) (A) (A) (A) (A) (A) (A) (A) (A)
                 (A) (A) (A) (A) (A) (A) (A) (A) (A) (A) (A) (A)
                 (A) (A) (A) (A) (A) (A) (A) (A) (A) (A) (A) (A)
                 (A) (A) (A) (A) (A) (A) (A) (A) (A) (A) (A) (A)
                 (A) (A) (A) (A) (A) (A) (A) (A) (A) (A) (A) (A)
                 (A) (A) (A) (A) (A) (A) (A) (A) (A) (A) (A)
 The electronic state is 1-A.
 Alpha  occ. eigenvalues -- -104.81935 -20.54453 -15.66035 -15.65132 -15.64321
 Alpha  occ. eigenvalues --  -15.61255 -15.60842 -15.57178 -11.38427 -11.32188
 Alpha  occ. eigenvalues --  -11.31941 -11.30539 -11.29678 -11.29145 -11.29045
 Alpha  occ. eigenvalues --  -11.28407 -11.27699 -11.26893 -11.26414 -11.26238
 Alpha  occ. eigenvalues --  -11.25957 -11.25943 -11.25858 -11.25587 -11.25533
 Alpha  occ. eigenvalues --  -11.25497 -11.25130 -11.25000 -11.24994 -11.24697
 Alpha  occ. eigenvalues --  -11.24688 -11.23877 -10.55856  -8.02706  -8.02323
 Alpha  occ. eigenvalues --   -8.02306  -1.47126  -1.41614  -1.38167  -1.28004
 Alpha  occ. eigenvalues --   -1.24475  -1.20300  -1.19936  -1.17478  -1.17268
 Alpha  occ. eigenvalues --   -1.12080  -1.07724  -1.06821  -1.05858  -1.04528
 Alpha  occ. eigenvalues --   -1.04198  -1.01933  -1.01631  -1.00653  -0.95557
 Alpha  occ. eigenvalues --   -0.88861  -0.88523  -0.86921  -0.84956  -0.84714
 Alpha  occ. eigenvalues --   -0.83802  -0.83092  -0.80901  -0.80366  -0.78319
 Alpha  occ. eigenvalues --   -0.77307  -0.74402  -0.72150  -0.71957  -0.71401
 Alpha  occ. eigenvalues --   -0.68566  -0.67512  -0.66810  -0.66048  -0.65316
 Alpha  occ. eigenvalues --   -0.65057  -0.64080  -0.63438  -0.63159  -0.62484
 Alpha  occ. eigenvalues --   -0.62446  -0.62139  -0.61195  -0.60934  -0.60332
 Alpha  occ. eigenvalues --   -0.60024  -0.58406  -0.58070  -0.56499  -0.54739
 Alpha  occ. eigenvalues --   -0.54469  -0.53510  -0.53342  -0.52920  -0.52439
 Alpha  occ. eigenvalues --   -0.51204  -0.51089  -0.50237  -0.49730  -0.49223
 Alpha  occ. eigenvalues --   -0.46482  -0.45422  -0.44618  -0.44127  -0.43531
 Alpha  occ. eigenvalues --   -0.42391  -0.41964  -0.39254  -0.38246  -0.35925
 Alpha  occ. eigenvalues --   -0.35154  -0.34361  -0.33438  -0.31824  -0.30715
 Alpha virt. eigenvalues --    0.09641   0.10154   0.11797   0.12307   0.13101
 Alpha virt. eigenvalues --    0.15932   0.17067   0.17369   0.18254   0.20635
 Alpha virt. eigenvalues --    0.20852   0.21871   0.23100   0.24350   0.25156
 Alpha virt. eigenvalues --    0.25807   0.26503   0.26741   0.27576   0.28344
 Alpha virt. eigenvalues --    0.29211   0.30644   0.30665   0.31214   0.32038
 Alpha virt. eigenvalues --    0.32298   0.32458   0.33019   0.33428   0.34332
 Alpha virt. eigenvalues --    0.34825   0.35434   0.37370   0.37601   0.37693
 Alpha virt. eigenvalues --    0.39225   0.39549   0.40207   0.40674   0.41929
 Alpha virt. eigenvalues --    0.43577   0.44245   0.44374   0.44679   0.45801
 Alpha virt. eigenvalues --    0.46235   0.47560   0.48351   0.48901   0.49697
 Alpha virt. eigenvalues --    0.51531   0.52134   0.52616   0.52790   0.53887
 Alpha virt. eigenvalues --    0.55607   0.57703   0.59131   0.59345   0.59985
 Alpha virt. eigenvalues --    0.60879   0.61706   0.63312   0.64070   0.65065
 Alpha virt. eigenvalues --    0.65535   0.68818   0.70313   0.70627   0.72423
 Alpha virt. eigenvalues --    0.73251   0.73857   0.74506   0.74623   0.75274
 Alpha virt. eigenvalues --    0.75990   0.76061   0.77370   0.77478   0.77809
 Alpha virt. eigenvalues --    0.78361   0.79533   0.79804   0.80259   0.80374
 Alpha virt. eigenvalues --    0.81162   0.81966   0.82486   0.83412   0.83452
 Alpha virt. eigenvalues --    0.84353   0.84470   0.84647   0.84958   0.85333
 Alpha virt. eigenvalues --    0.85962   0.86270   0.86447   0.87017   0.87079
 Alpha virt. eigenvalues --    0.87423   0.87811   0.88137   0.89249   0.89530
 Alpha virt. eigenvalues --    0.89783   0.90331   0.90637   0.91067   0.92284
 Alpha virt. eigenvalues --    0.92534   0.93676   0.93835   0.94832   0.95682
 Alpha virt. eigenvalues --    0.96586   0.97042   0.98827   0.99166   0.99901
 Alpha virt. eigenvalues --    1.00755   1.01160   1.01553   1.02760   1.03236
 Alpha virt. eigenvalues --    1.05095   1.05899   1.06617   1.07591   1.08166
 Alpha virt. eigenvalues --    1.08777   1.10404   1.10934   1.11631   1.12102
 Alpha virt. eigenvalues --    1.12506   1.12799   1.13130   1.13580   1.14043
 Alpha virt. eigenvalues --    1.14457   1.14640   1.15643   1.15889   1.16082
 Alpha virt. eigenvalues --    1.16872   1.17626   1.17810   1.18437   1.19436
 Alpha virt. eigenvalues --    1.19508   1.20251   1.21402   1.22189   1.22708
 Alpha virt. eigenvalues --    1.23411   1.24494   1.25239   1.25551   1.26384
 Alpha virt. eigenvalues --    1.26936   1.28067   1.28620   1.29594   1.30302
 Alpha virt. eigenvalues --    1.31164   1.31557   1.32114   1.33254   1.34085
 Alpha virt. eigenvalues --    1.36376   1.37541   1.39532   1.40207   1.41040
 Alpha virt. eigenvalues --    1.41846   1.42915   1.43423   1.44489   1.45093
 Alpha virt. eigenvalues --    1.45735   1.46778   1.47587   1.49408   1.50656
 Alpha virt. eigenvalues --    1.52209   1.56728   1.57576   1.59159   1.60160
 Alpha virt. eigenvalues --    1.61226   1.61998   1.67462   1.68116   1.68829
 Alpha virt. eigenvalues --    1.70744   1.72044   1.72706   1.76099   1.77067
 Alpha virt. eigenvalues --    1.80282   1.82173   1.90313   1.92131   1.97001
 Alpha virt. eigenvalues --    1.98815   1.99410   2.02473   2.06547   2.08032
 Alpha virt. eigenvalues --    2.12002   2.16234   2.22770   2.26882   2.35020
          Condensed to atoms (all electrons):
 Mulliken atomic charges:
              1
     1  C    0.487066
     2  C   -0.020105
     3  C   -0.061158
     4  C   -0.079789
     5  C   -0.208140
     6  C   -0.233685
     7  N   -0.879508
     8  N   -0.337455
     9  N    0.094390
    10  C   -0.122822
    11  C    0.805349
    12  N   -0.942311
    13  O   -0.612560
    14  C   -0.110690
    15  C   -0.316838
    16  C   -0.150521
    17  C   -0.152782
    18  C   -0.201062
    19  C   -0.011736
    20  C   -0.198487
    21  Cl   0.082480
    22  C   -0.198437
    23  C    0.018214
    24  C   -0.180109
    25  C   -0.199736
    26  C    0.241712
    27  C   -0.176193
    28  C    0.001853
    29  C    0.183525
    30  N   -0.560884
    31  N   -0.915907
    32  C    0.381092
    33  H    0.223334
    34  H    0.239283
    35  H    0.202374
    36  H    0.202472
    37  H    0.259976
    38  H    0.227931
    39  H    0.238812
    40  H    0.195263
    41  H    0.235595
    42  H    0.241591
    43  H    0.214636
    44  H    0.266441
    45  H    0.209871
    46  H    0.227853
    47  H    0.267748
    48  H    0.228953
    49  H    0.252016
    50  H    0.397559
    51  H    0.243524
 Sum of Mulliken atomic charges =   0.00000
 Mulliken charges with hydrogens summed into heavy atoms:
              1
     1  C    0.487066
     2  C   -0.020105
     3  C    0.162175
     4  C    0.159494
     5  C   -0.005766
     6  C   -0.031213
     7  N   -0.879508
     8  N   -0.337455
     9  N    0.094390
    10  C    0.365086
    11  C    0.805349
    12  N   -0.942311
    13  O   -0.612560
    14  C    0.323386
    15  C   -0.316838
    16  C    0.085074
    17  C    0.088809
    18  C    0.013574
    19  C   -0.011736
    20  C    0.067954
    21  Cl   0.082480
    22  C    0.011434
    23  C    0.018214
    24  C    0.047743
    25  C    0.068012
    26  C    0.241712
    27  C    0.052760
    28  C    0.001853
    29  C    0.435541
    30  N   -0.560884
    31  N   -0.518349
    32  C    0.624617
 Sum of Mulliken charges with hydrogens summed into heavy atoms =   0.00000
 Electronic spatial extent (au):  <R**2>=          18822.6172
 Charge=              0.0000 electrons
 Dipole moment (field-independent basis, Debye):
    X=              5.9727    Y=              0.2773    Z=              6.1588  Tot=              8.5838
 Quadrupole moment (field-independent basis, Debye-Ang):
   XX=           -171.5955   YY=           -201.7532   ZZ=           -184.6076
   XY=             44.9339   XZ=             -0.4398   YZ=             10.9678
 Traceless Quadrupole moment (field-independent basis, Debye-Ang):
   XX=             14.3899   YY=            -15.7678   ZZ=              1.3778
   XY=             44.9339   XZ=             -0.4398   YZ=             10.9678
 Octapole moment (field-independent basis, Debye-Ang**2):
  XXX=            224.7134  YYY=              3.7769  ZZZ=              9.0633  XYY=             97.4076
  XXY=            174.9115  XXZ=            205.2916  XZZ=             59.5623  YZZ=             -2.8694
  YYZ=             73.0650  XYZ=             60.7850
 Hexadecapole moment (field-independent basis, Debye-Ang**3):
 XXXX=         -12741.6962 YYYY=          -8959.0753 ZZZZ=          -1346.1479 XXXY=           1664.4952
 XXXZ=            327.4132 YYYX=           1052.2753 YYYZ=             24.2700 ZZZX=            122.2047
 ZZZY=             32.9726 XXYY=          -3666.8252 XXZZ=          -2652.6085 YYZZ=          -1711.3871
 XXYZ=            498.1115 YYXZ=            126.6478 ZZXY=            202.7456
 N-N= 3.061626912933D+03 E-N=-1.030189932068D+04  KE= 1.781761333449D+03
 No NMR shielding tensors so no spin-rotation constants.
 Leave Link  601 at Tue Aug 30 13:01:34 2022, MaxMem=  209715200 cpu:       1.5
 (Enter /opt/gaussian/l9999.exe)
 1\1\GINC-LQCAPF-6\FOpt\RHF\6-31G\C24H19Cl1N6O1\LQCAPF-6\30-Aug-2022\0\
 \#p opt hf/6-31G\\Mol41.out\\0,1\C,15.3018064674,-5.8679459575,-1.5688
 141462\C,14.1367080678,-6.133655196,-0.8602921754\C,15.3556656871,-4.8
 630022271,-2.5386442787\C,12.9646079009,-5.4127224506,-1.0876226848\C,
 14.1958297719,-4.1605959753,-2.7600133144\C,13.0068280057,-4.429285175
 9,-2.0445627093\N,16.2005538995,-6.7722326365,-1.0877990991\N,14.40021
 08634,-7.171991869,0.0180600932\N,15.6080652328,-7.5321656011,-0.12326
 80576\C,17.5758588531,-7.0013382811,-1.4165384421\C,18.4937118112,-5.9
 228822908,-0.8620785301\N,19.8306914715,-6.1619858532,-0.9185442808\O,
 18.035801979,-4.8783971685,-0.4070315235\C,20.7529893602,-5.1509283653
 ,-0.3635847394\C,22.9265859797,-3.3836135525,-2.9105315624\C,22.151937
 093,-2.3089958064,-3.2892180111\C,22.4973654842,-4.3020113133,-1.97316
 14528\C,20.9019543513,-2.1565655554,-2.7024977281\C,21.2436407526,-4.1
 512182785,-1.3895778986\C,20.449549988,-3.067087624,-1.760908279\Cl,24
 .562029242,-3.5999826644,-3.6628955461\C,21.2702958546,-8.515706069,-3
 .4124935895\C,21.5786665355,-9.6212332551,-2.6219247418\C,20.690321529
 5,-7.3850495894,-2.8612288828\C,21.2889312011,-9.5649141934,-1.2584393
 031\C,20.401746989,-7.3403759696,-1.5036852077\C,20.7088894452,-8.4362
 855153,-0.7061203569\C,22.1958178465,-10.8251458628,-3.1842927305\C,22
 .5893527291,-11.0964951498,-4.4600460298\N,22.4721022242,-11.925943953
 3,-2.3843349113\N,23.1072216007,-12.3721406527,-4.4324137083\C,23.0109
 435687,-12.8248433123,-3.1529746013\H,16.2584686519,-4.6328103854,-3.0
 66711642\H,12.0760041752,-5.6295278536,-0.5298871685\H,14.1901536096,-
 3.3767419752,-3.492554609\H,12.1313845677,-3.8473053475,-2.2550697019\
 H,17.8399718997,-7.9671355377,-1.0171104308\H,17.6943141738,-7.0515936
 846,-2.4920089131\H,20.2319714004,-4.6405804466,0.4302236186\H,21.5889
 508744,-5.6843765391,0.0650762296\H,22.5116896823,-1.6089667909,-4.015
 0222275\H,23.1307015458,-5.1225422819,-1.7014013791\H,20.2872530069,-1
 .322294315,-2.9791672994\H,19.4841820784,-2.9465640721,-1.3105419295\H
 ,21.4840702306,-8.5266804129,-4.4634503783\H,20.4718472036,-6.53493572
 56,-3.4775537892\H,21.5221257766,-10.4107196579,-0.6455723144\H,20.490
 7418906,-8.4013840664,0.3441888231\H,22.5540850959,-10.521572454,-5.35
 47965482\H,23.4819561117,-12.8667628877,-5.203488744\H,23.3401462386,-
 13.7901682006,-2.8485731671\\Version=EM64L-G09RevC.01\State=1-A\HF=-17
 80.338192\RMSD=6.595e-09\RMSF=6.097e-06\Dipole=1.5087667,-1.0028822,-2
 .8500593\Quadrupole=-15.8727259,16.6590444,-0.7863184,-28.2019237,6.78
 04371,14.2388452\PG=C01 [X(C24H19Cl1N6O1)]\\@


 A true friend is someone who is there for
 you when he'd rather be anywhere else.
                               -- Len Wein
 Job cpu time:  0 days  7 hours 51 minutes 59.9 seconds.
 File lengths (MBytes):  RWF=     74 Int=      0 D2E=      0 Chk=     11 Scr=      1
 Normal termination of Gaussian 09 at Tue Aug 30 13:01:34 2022.
