 Entering Gaussian System, Link 0=g09
 Input=Mol40.gjf
 Output=Mol40.log
 Initial command:
 /opt/gaussian/l1.exe /home/scr/lqcapf-6/Gau-326319.inp -scrdir=/home/scr/lqcapf-6/
 Entering Link 1 = /opt/gaussian/l1.exe PID=    326321.
  
 Copyright (c) 1988,1990,1992,1993,1995,1998,2003,2009,2011,
            Gaussian, Inc.  All Rights Reserved.
  
 This is part of the Gaussian(R) 09 program.  It is based on
 the Gaussian(R) 03 system (copyright 2003, Gaussian, Inc.),
 the Gaussian(R) 98 system (copyright 1998, Gaussian, Inc.),
 the Gaussian(R) 94 system (copyright 1995, Gaussian, Inc.),
 the Gaussian 92(TM) system (copyright 1992, Gaussian, Inc.),
 the Gaussian 90(TM) system (copyright 1990, Gaussian, Inc.),
 the Gaussian 88(TM) system (copyright 1988, Gaussian, Inc.),
 the Gaussian 86(TM) system (copyright 1986, Carnegie Mellon
 University), and the Gaussian 82(TM) system (copyright 1983,
 Carnegie Mellon University). Gaussian is a federally registered
 trademark of Gaussian, Inc.
  
 This software contains proprietary and confidential information,
 including trade secrets, belonging to Gaussian, Inc.
  
 This software is provided under written license and may be
 used, copied, transmitted, or stored only in accord with that
 written license.
  
 The following legend is applicable only to US Government
 contracts under FAR:
  
                    RESTRICTED RIGHTS LEGEND
  
 Use, reproduction and disclosure by the US Government is
 subject to restrictions as set forth in subparagraphs (a)
 and (c) of the Commercial Computer Software - Restricted
 Rights clause in FAR 52.227-19.
  
 Gaussian, Inc.
 340 Quinnipiac St., Bldg. 40, Wallingford CT 06492
  
  
 ---------------------------------------------------------------
 Warning -- This program may not be used in any manner that
 competes with the business of Gaussian, Inc. or will provide
 assistance to any competitor of Gaussian, Inc.  The licensee
 of this program is prohibited from giving any competitor of
 Gaussian, Inc. access to this program.  By using this program,
 the user acknowledges that Gaussian, Inc. is engaged in the
 business of creating and licensing software in the field of
 computational chemistry and represents and warrants to the
 licensee that it is not a competitor of Gaussian, Inc. and that
 it will not use this program in any manner prohibited above.
 ---------------------------------------------------------------
  

 Cite this work as:
 Gaussian 09, Revision C.01,
 M. J. Frisch, G. W. Trucks, H. B. Schlegel, G. E. Scuseria, 
 M. A. Robb, J. R. Cheeseman, G. Scalmani, V. Barone, B. Mennucci, 
 G. A. Petersson, H. Nakatsuji, M. Caricato, X. Li, H. P. Hratchian, 
 A. F. Izmaylov, J. Bloino, G. Zheng, J. L. Sonnenberg, M. Hada, 
 M. Ehara, K. Toyota, R. Fukuda, J. Hasegawa, M. Ishida, T. Nakajima, 
 Y. Honda, O. Kitao, H. Nakai, T. Vreven, J. A. Montgomery, Jr., 
 J. E. Peralta, F. Ogliaro, M. Bearpark, J. J. Heyd, E. Brothers, 
 K. N. Kudin, V. N. Staroverov, T. Keith, R. Kobayashi, J. Normand, 
 K. Raghavachari, A. Rendell, J. C. Burant, S. S. Iyengar, J. Tomasi, 
 M. Cossi, N. Rega, J. M. Millam, M. Klene, J. E. Knox, J. B. Cross, 
 V. Bakken, C. Adamo, J. Jaramillo, R. Gomperts, R. E. Stratmann, 
 O. Yazyev, A. J. Austin, R. Cammi, C. Pomelli, J. W. Ochterski, 
 R. L. Martin, K. Morokuma, V. G. Zakrzewski, G. A. Voth, 
 P. Salvador, J. J. Dannenberg, S. Dapprich, A. D. Daniels, 
 O. Farkas, J. B. Foresman, J. V. Ortiz, J. Cioslowski, 
 and D. J. Fox, Gaussian, Inc., Wallingford CT, 2010.
 
 ******************************************
 Gaussian 09:  EM64L-G09RevC.01 23-Sep-2011
                27-Aug-2022 
 ******************************************
 %nprocshared=8
 Will use up to    8 processors via shared memory.
 %mem=1600MB
 ---------------
 #p opt hf/6-31G
 ---------------
 1/18=20,19=15,38=1/1,3;
 2/9=110,12=2,17=6,18=5,40=1/2;
 3/5=1,6=6,11=9,16=1,25=1,30=1,71=1/1,2,3;
 4//1;
 5/5=2,38=5/2;
 6/7=2,8=2,9=2,10=2,28=1/1;
 7//1,2,3,16;
 1/18=20,19=15/3(2);
 2/9=110/2;
 99//99;
 2/9=110/2;
 3/5=1,6=6,11=9,16=1,25=1,30=1,71=1/1,2,3;
 4/5=5,16=3/1;
 5/5=2,38=5/2;
 7//1,2,3,16;
 1/18=20,19=15/3(-5);
 2/9=110/2;
 6/7=2,8=2,9=2,10=2,19=2,28=1/1;
 99/9=1/99;
 Leave Link    1 at Sat Aug 27 11:51:21 2022, MaxMem=  209715200 cpu:       0.1
 (Enter /opt/gaussian/l101.exe)
 ---------
 Mol40.out
 ---------
 Charge =  0 Multiplicity = 1
 Symbolic Z-Matrix:
 Cl                    22.8212  -15.66    -2.7368 
 C                     22.6178  -14.0161  -2.3569 
 C                     23.1189  -13.5161  -1.1498 
 C                     22.9448  -12.1673  -0.8494 
 C                     22.2777  -11.3229  -1.7377 
 C                     21.7742  -11.8239  -2.9406 
 C                     21.9478  -13.1791  -3.2516 
 C                     21.0638  -10.9683  -3.9573 
 N                     20.432   -9.769    -3.4682 
 C                     21.1106  -8.5552   -3.3128 
 O                     20.5824  -7.5929   -2.7399 
 C                     22.5409  -8.4865   -3.8813 
 N                     23.2775  -7.2989   -3.5393 
 N                     23.0373  -6.0632   -4.0948 
 N                     23.5453  -5.1329   -3.4248 
 C                     24.1528  -5.6722   -2.2429 
 C                     24.8481  -5.103    -1.1774 
 C                     25.319   -5.9603   -0.1873 
 C                     25.1133  -7.3479   -0.249 
 C                     24.4305  -7.9473   -1.303 
 C                     23.9457  -7.1043   -2.3029 
 C                     19.0415  -9.8658   -3.147 
 C                     18.6036  -10.88    -2.2534 
 C                     17.2465  -10.984   -1.9654 
 C                     16.3369  -10.0909  -2.5505 
 C                     16.8715  -9.1111   -3.4253 
 N                     18.168   -8.9896   -3.7322 
 C                     14.9319  -10.1644  -2.2868 
 C                     14.2371  -11.1472  -1.5496 
 N                     12.8934  -10.7822  -1.5794 
 N                     12.6839  -9.6591   -2.2692 
 C                     13.8934  -9.2438   -2.7197 
 H                     23.6414  -14.1806  -0.4452 
 H                     23.3346  -11.7657   0.0985 
 H                     22.145   -10.2619  -1.4723 
 H                     21.5553  -13.5826  -4.1981 
 H                     21.8123  -10.6925  -4.7587 
 H                     20.2697  -11.6026  -4.4544 
 H                     23.1385  -9.3629   -3.495 
 H                     22.4634  -8.5434   -5.0067 
 H                     25.0141  -4.0174   -1.1246 
 H                     25.8675  -5.5412    0.6701 
 H                     25.502   -7.9801    0.5646 
 H                     24.2781  -9.0341   -1.3432 
 H                     19.3279  -11.5704  -1.7968 
 H                     16.8918  -11.7632  -1.2746 
 H                     16.2039  -8.3782   -3.9163 
 H                     14.5899  -12.0379  -1.0327 
 H                     14.0109  -8.3378   -3.3141 
 H                     12.1326  -11.2636  -1.1614 
 
 NAtoms=     50 NQM=        0 NQMF=       0 NMMI=     50 NMMIF=      0
                NMic=       0 NMicF=      0.
                    Isotopes and Nuclear Properties:
 (Nuclear quadrupole moments (NQMom) in fm**2, nuclear magnetic moments (NMagM)
  in nuclear magnetons)

  Atom         1           2           3           4           5           6           7           8           9          10
 IAtWgt=          35          12          12          12          12          12          12          12          14          12
 AtmWgt=  34.9688527  12.0000000  12.0000000  12.0000000  12.0000000  12.0000000  12.0000000  12.0000000  14.0030740  12.0000000
 NucSpn=           3           0           0           0           0           0           0           0           2           0
 AtZEff=   0.0000000   0.0000000   0.0000000   0.0000000   0.0000000   0.0000000   0.0000000   0.0000000   0.0000000   0.0000000
 NQMom=   -8.1650000   0.0000000   0.0000000   0.0000000   0.0000000   0.0000000   0.0000000   0.0000000   2.0440000   0.0000000
 NMagM=    0.8218740   0.0000000   0.0000000   0.0000000   0.0000000   0.0000000   0.0000000   0.0000000   0.4037610   0.0000000

  Atom        11          12          13          14          15          16          17          18          19          20
 IAtWgt=          16          12          14          14          14          12          12          12          12          12
 AtmWgt=  15.9949146  12.0000000  14.0030740  14.0030740  14.0030740  12.0000000  12.0000000  12.0000000  12.0000000  12.0000000
 NucSpn=           0           0           2           2           2           0           0           0           0           0
 AtZEff=   0.0000000   0.0000000   0.0000000   0.0000000   0.0000000   0.0000000   0.0000000   0.0000000   0.0000000   0.0000000
 NQMom=    0.0000000   0.0000000   2.0440000   2.0440000   2.0440000   0.0000000   0.0000000   0.0000000   0.0000000   0.0000000
 NMagM=    0.0000000   0.0000000   0.4037610   0.4037610   0.4037610   0.0000000   0.0000000   0.0000000   0.0000000   0.0000000

  Atom        21          22          23          24          25          26          27          28          29          30
 IAtWgt=          12          12          12          12          12          12          14          12          12          14
 AtmWgt=  12.0000000  12.0000000  12.0000000  12.0000000  12.0000000  12.0000000  14.0030740  12.0000000  12.0000000  14.0030740
 NucSpn=           0           0           0           0           0           0           2           0           0           2
 AtZEff=   0.0000000   0.0000000   0.0000000   0.0000000   0.0000000   0.0000000   0.0000000   0.0000000   0.0000000   0.0000000
 NQMom=    0.0000000   0.0000000   0.0000000   0.0000000   0.0000000   0.0000000   2.0440000   0.0000000   0.0000000   2.0440000
 NMagM=    0.0000000   0.0000000   0.0000000   0.0000000   0.0000000   0.0000000   0.4037610   0.0000000   0.0000000   0.4037610

  Atom        31          32          33          34          35          36          37          38          39          40
 IAtWgt=          14          12           1           1           1           1           1           1           1           1
 AtmWgt=  14.0030740  12.0000000   1.0078250   1.0078250   1.0078250   1.0078250   1.0078250   1.0078250   1.0078250   1.0078250
 NucSpn=           2           0           1           1           1           1           1           1           1           1
 AtZEff=   0.0000000   0.0000000   0.0000000   0.0000000   0.0000000   0.0000000   0.0000000   0.0000000   0.0000000   0.0000000
 NQMom=    2.0440000   0.0000000   0.0000000   0.0000000   0.0000000   0.0000000   0.0000000   0.0000000   0.0000000   0.0000000
 NMagM=    0.4037610   0.0000000   2.7928460   2.7928460   2.7928460   2.7928460   2.7928460   2.7928460   2.7928460   2.7928460

  Atom        41          42          43          44          45          46          47          48          49          50
 IAtWgt=           1           1           1           1           1           1           1           1           1           1
 AtmWgt=   1.0078250   1.0078250   1.0078250   1.0078250   1.0078250   1.0078250   1.0078250   1.0078250   1.0078250   1.0078250
 NucSpn=           1           1           1           1           1           1           1           1           1           1
 AtZEff=   0.0000000   0.0000000   0.0000000   0.0000000   0.0000000   0.0000000   0.0000000   0.0000000   0.0000000   0.0000000
 NQMom=    0.0000000   0.0000000   0.0000000   0.0000000   0.0000000   0.0000000   0.0000000   0.0000000   0.0000000   0.0000000
 NMagM=    2.7928460   2.7928460   2.7928460   2.7928460   2.7928460   2.7928460   2.7928460   2.7928460   2.7928460   2.7928460
 Leave Link  101 at Sat Aug 27 11:51:21 2022, MaxMem=  209715200 cpu:       0.8
 (Enter /opt/gaussian/l103.exe)

 GradGradGradGradGradGradGradGradGradGradGradGradGradGradGradGradGradGrad
 Berny optimization.
 Initialization pass.
                           ----------------------------
                           !    Initial Parameters    !
                           ! (Angstroms and Degrees)  !
 --------------------------                            --------------------------
 ! Name  Definition              Value          Derivative Info.                !
 --------------------------------------------------------------------------------
 ! R1    R(1,2)                  1.6994         estimate D2E/DX2                !
 ! R2    R(2,3)                  1.3994         estimate D2E/DX2                !
 ! R3    R(2,7)                  1.3964         estimate D2E/DX2                !
 ! R4    R(3,4)                  1.3928         estimate D2E/DX2                !
 ! R5    R(3,33)                 1.1005         estimate D2E/DX2                !
 ! R6    R(4,5)                  1.3954         estimate D2E/DX2                !
 ! R7    R(4,34)                 1.1008         estimate D2E/DX2                !
 ! R8    R(5,6)                  1.397          estimate D2E/DX2                !
 ! R9    R(5,35)                 1.1017         estimate D2E/DX2                !
 ! R10   R(6,7)                  1.4012         estimate D2E/DX2                !
 ! R11   R(6,8)                  1.5068         estimate D2E/DX2                !
 ! R12   R(7,36)                 1.1012         estimate D2E/DX2                !
 ! R13   R(8,9)                  1.4411         estimate D2E/DX2                !
 ! R14   R(8,37)                 1.1307         estimate D2E/DX2                !
 ! R15   R(8,38)                 1.1314         estimate D2E/DX2                !
 ! R16   R(9,10)                 1.3993         estimate D2E/DX2                !
 ! R17   R(9,22)                 1.4304         estimate D2E/DX2                !
 ! R18   R(10,11)                1.2382         estimate D2E/DX2                !
 ! R19   R(10,12)                1.5407         estimate D2E/DX2                !
 ! R20   R(12,13)                1.4387         estimate D2E/DX2                !
 ! R21   R(12,39)                1.1289         estimate D2E/DX2                !
 ! R22   R(12,40)                1.1295         estimate D2E/DX2                !
 ! R23   R(13,14)                1.3759         estimate D2E/DX2                !
 ! R24   R(13,21)                1.4188         estimate D2E/DX2                !
 ! R25   R(14,15)                1.254          estimate D2E/DX2                !
 ! R26   R(15,16)                1.4342         estimate D2E/DX2                !
 ! R27   R(16,17)                1.3938         estimate D2E/DX2                !
 ! R28   R(16,21)                1.4482         estimate D2E/DX2                !
 ! R29   R(17,18)                1.3918         estimate D2E/DX2                !
 ! R30   R(17,41)                1.0995         estimate D2E/DX2                !
 ! R31   R(18,19)                1.4041         estimate D2E/DX2                !
 ! R32   R(18,42)                1.1007         estimate D2E/DX2                !
 ! R33   R(19,20)                1.3916         estimate D2E/DX2                !
 ! R34   R(19,43)                1.1012         estimate D2E/DX2                !
 ! R35   R(20,21)                1.3948         estimate D2E/DX2                !
 ! R36   R(20,44)                1.0982         estimate D2E/DX2                !
 ! R37   R(22,23)                1.4209         estimate D2E/DX2                !
 ! R38   R(22,27)                1.3686         estimate D2E/DX2                !
 ! R39   R(23,24)                1.3912         estimate D2E/DX2                !
 ! R40   R(23,45)                1.0999         estimate D2E/DX2                !
 ! R41   R(24,25)                1.4026         estimate D2E/DX2                !
 ! R42   R(24,46)                1.1001         estimate D2E/DX2                !
 ! R43   R(25,26)                1.4181         estimate D2E/DX2                !
 ! R44   R(25,28)                1.4314         estimate D2E/DX2                !
 ! R45   R(26,27)                1.3379         estimate D2E/DX2                !
 ! R46   R(26,47)                1.1063         estimate D2E/DX2                !
 ! R47   R(28,29)                1.4114         estimate D2E/DX2                !
 ! R48   R(28,32)                1.4537         estimate D2E/DX2                !
 ! R49   R(29,30)                1.3927         estimate D2E/DX2                !
 ! R50   R(29,48)                1.0886         estimate D2E/DX2                !
 ! R51   R(30,31)                1.3346         estimate D2E/DX2                !
 ! R52   R(30,50)                0.9926         estimate D2E/DX2                !
 ! R53   R(31,32)                1.3558         estimate D2E/DX2                !
 ! R54   R(32,49)                1.0899         estimate D2E/DX2                !
 ! A1    A(1,2,3)              119.7095         estimate D2E/DX2                !
 ! A2    A(1,2,7)              119.604          estimate D2E/DX2                !
 ! A3    A(3,2,7)              120.6861         estimate D2E/DX2                !
 ! A4    A(2,3,4)              119.1644         estimate D2E/DX2                !
 ! A5    A(2,3,33)             120.436          estimate D2E/DX2                !
 ! A6    A(4,3,33)             120.3994         estimate D2E/DX2                !
 ! A7    A(3,4,5)              120.5631         estimate D2E/DX2                !
 ! A8    A(3,4,34)             119.6549         estimate D2E/DX2                !
 ! A9    A(5,4,34)             119.7818         estimate D2E/DX2                !
 ! A10   A(4,5,6)              120.2286         estimate D2E/DX2                !
 ! A11   A(4,5,35)             119.1438         estimate D2E/DX2                !
 ! A12   A(6,5,35)             120.6243         estimate D2E/DX2                !
 ! A13   A(5,6,7)              119.5591         estimate D2E/DX2                !
 ! A14   A(5,6,8)              123.1821         estimate D2E/DX2                !
 ! A15   A(7,6,8)              117.2474         estimate D2E/DX2                !
 ! A16   A(2,7,6)              119.7981         estimate D2E/DX2                !
 ! A17   A(2,7,36)             120.1373         estimate D2E/DX2                !
 ! A18   A(6,7,36)             120.0646         estimate D2E/DX2                !
 ! A19   A(6,8,9)              116.7601         estimate D2E/DX2                !
 ! A20   A(6,8,37)             107.736          estimate D2E/DX2                !
 ! A21   A(6,8,38)             108.0008         estimate D2E/DX2                !
 ! A22   A(9,8,37)             109.1337         estimate D2E/DX2                !
 ! A23   A(9,8,38)             107.9375         estimate D2E/DX2                !
 ! A24   A(37,8,38)            106.8557         estimate D2E/DX2                !
 ! A25   A(8,9,10)             123.1605         estimate D2E/DX2                !
 ! A26   A(8,9,22)             116.4929         estimate D2E/DX2                !
 ! A27   A(10,9,22)            120.345          estimate D2E/DX2                !
 ! A28   A(9,10,11)            121.2419         estimate D2E/DX2                !
 ! A29   A(9,10,12)            116.6106         estimate D2E/DX2                !
 ! A30   A(11,10,12)           122.1465         estimate D2E/DX2                !
 ! A31   A(10,12,13)           115.1125         estimate D2E/DX2                !
 ! A32   A(10,12,39)           109.3025         estimate D2E/DX2                !
 ! A33   A(10,12,40)           107.5604         estimate D2E/DX2                !
 ! A34   A(13,12,39)           106.7655         estimate D2E/DX2                !
 ! A35   A(13,12,40)           108.2739         estimate D2E/DX2                !
 ! A36   A(39,12,40)           109.7649         estimate D2E/DX2                !
 ! A37   A(12,13,14)           123.7775         estimate D2E/DX2                !
 ! A38   A(12,13,21)           124.1584         estimate D2E/DX2                !
 ! A39   A(14,13,21)           108.1107         estimate D2E/DX2                !
 ! A40   A(13,14,15)           112.3236         estimate D2E/DX2                !
 ! A41   A(14,15,16)           109.4481         estimate D2E/DX2                !
 ! A42   A(15,16,17)           133.451          estimate D2E/DX2                !
 ! A43   A(15,16,21)           106.0892         estimate D2E/DX2                !
 ! A44   A(17,16,21)           120.4529         estimate D2E/DX2                !
 ! A45   A(16,17,18)           117.4555         estimate D2E/DX2                !
 ! A46   A(16,17,41)           121.0138         estimate D2E/DX2                !
 ! A47   A(18,17,41)           121.5306         estimate D2E/DX2                !
 ! A48   A(17,18,19)           121.8641         estimate D2E/DX2                !
 ! A49   A(17,18,42)           119.2222         estimate D2E/DX2                !
 ! A50   A(19,18,42)           118.9137         estimate D2E/DX2                !
 ! A51   A(18,19,20)           122.0623         estimate D2E/DX2                !
 ! A52   A(18,19,43)           118.8918         estimate D2E/DX2                !
 ! A53   A(20,19,43)           119.0456         estimate D2E/DX2                !
 ! A54   A(19,20,21)           116.9488         estimate D2E/DX2                !
 ! A55   A(19,20,44)           121.4735         estimate D2E/DX2                !
 ! A56   A(21,20,44)           121.5775         estimate D2E/DX2                !
 ! A57   A(13,21,16)           103.8321         estimate D2E/DX2                !
 ! A58   A(13,21,20)           134.8702         estimate D2E/DX2                !
 ! A59   A(16,21,20)           121.2147         estimate D2E/DX2                !
 ! A60   A(9,22,23)            119.283          estimate D2E/DX2                !
 ! A61   A(9,22,27)            118.7562         estimate D2E/DX2                !
 ! A62   A(23,22,27)           121.9498         estimate D2E/DX2                !
 ! A63   A(22,23,24)           118.9591         estimate D2E/DX2                !
 ! A64   A(22,23,45)           120.4095         estimate D2E/DX2                !
 ! A65   A(24,23,45)           120.6314         estimate D2E/DX2                !
 ! A66   A(23,24,25)           119.9103         estimate D2E/DX2                !
 ! A67   A(23,24,46)           119.8328         estimate D2E/DX2                !
 ! A68   A(25,24,46)           120.2559         estimate D2E/DX2                !
 ! A69   A(24,25,26)           116.9226         estimate D2E/DX2                !
 ! A70   A(24,25,28)           121.8022         estimate D2E/DX2                !
 ! A71   A(26,25,28)           121.2744         estimate D2E/DX2                !
 ! A72   A(25,26,27)           124.7208         estimate D2E/DX2                !
 ! A73   A(25,26,47)           120.2653         estimate D2E/DX2                !
 ! A74   A(27,26,47)           115.0128         estimate D2E/DX2                !
 ! A75   A(22,27,26)           117.5336         estimate D2E/DX2                !
 ! A76   A(25,28,29)           127.9635         estimate D2E/DX2                !
 ! A77   A(25,28,32)           127.8648         estimate D2E/DX2                !
 ! A78   A(29,28,32)           104.1716         estimate D2E/DX2                !
 ! A79   A(28,29,30)           106.3366         estimate D2E/DX2                !
 ! A80   A(28,29,48)           131.1642         estimate D2E/DX2                !
 ! A81   A(30,29,48)           122.4992         estimate D2E/DX2                !
 ! A82   A(29,30,31)           112.5238         estimate D2E/DX2                !
 ! A83   A(29,30,50)           127.1119         estimate D2E/DX2                !
 ! A84   A(31,30,50)           120.3629         estimate D2E/DX2                !
 ! A85   A(30,31,32)           106.8263         estimate D2E/DX2                !
 ! A86   A(28,32,31)           110.1417         estimate D2E/DX2                !
 ! A87   A(28,32,49)           127.7182         estimate D2E/DX2                !
 ! A88   A(31,32,49)           122.1396         estimate D2E/DX2                !
 ! D1    D(1,2,3,4)           -179.9434         estimate D2E/DX2                !
 ! D2    D(1,2,3,33)            -0.1214         estimate D2E/DX2                !
 ! D3    D(7,2,3,4)             -0.1605         estimate D2E/DX2                !
 ! D4    D(7,2,3,33)           179.6614         estimate D2E/DX2                !
 ! D5    D(1,2,7,6)            179.8045         estimate D2E/DX2                !
 ! D6    D(1,2,7,36)            -0.091          estimate D2E/DX2                !
 ! D7    D(3,2,7,6)              0.0214         estimate D2E/DX2                !
 ! D8    D(3,2,7,36)          -179.8741         estimate D2E/DX2                !
 ! D9    D(2,3,4,5)              0.1024         estimate D2E/DX2                !
 ! D10   D(2,3,4,34)           179.9214         estimate D2E/DX2                !
 ! D11   D(33,3,4,5)          -179.7197         estimate D2E/DX2                !
 ! D12   D(33,3,4,34)            0.0994         estimate D2E/DX2                !
 ! D13   D(3,4,5,6)              0.095          estimate D2E/DX2                !
 ! D14   D(3,4,5,35)           179.4402         estimate D2E/DX2                !
 ! D15   D(34,4,5,6)          -179.7238         estimate D2E/DX2                !
 ! D16   D(34,4,5,35)           -0.3786         estimate D2E/DX2                !
 ! D17   D(4,5,6,7)             -0.2343         estimate D2E/DX2                !
 ! D18   D(4,5,6,8)           -178.9686         estimate D2E/DX2                !
 ! D19   D(35,5,6,7)          -179.5697         estimate D2E/DX2                !
 ! D20   D(35,5,6,8)             1.6959         estimate D2E/DX2                !
 ! D21   D(5,6,7,2)              0.176          estimate D2E/DX2                !
 ! D22   D(5,6,7,36)          -179.9284         estimate D2E/DX2                !
 ! D23   D(8,6,7,2)            178.9845         estimate D2E/DX2                !
 ! D24   D(8,6,7,36)            -1.1198         estimate D2E/DX2                !
 ! D25   D(5,6,8,9)            -24.6638         estimate D2E/DX2                !
 ! D26   D(5,6,8,37)            98.4762         estimate D2E/DX2                !
 ! D27   D(5,6,8,38)          -146.4348         estimate D2E/DX2                !
 ! D28   D(7,6,8,9)            156.5745         estimate D2E/DX2                !
 ! D29   D(7,6,8,37)           -80.2855         estimate D2E/DX2                !
 ! D30   D(7,6,8,38)            34.8035         estimate D2E/DX2                !
 ! D31   D(6,8,9,10)            85.6036         estimate D2E/DX2                !
 ! D32   D(6,8,9,22)           -94.8468         estimate D2E/DX2                !
 ! D33   D(37,8,9,10)          -36.8129         estimate D2E/DX2                !
 ! D34   D(37,8,9,22)          142.7367         estimate D2E/DX2                !
 ! D35   D(38,8,9,10)         -152.5923         estimate D2E/DX2                !
 ! D36   D(38,8,9,22)           26.9573         estimate D2E/DX2                !
 ! D37   D(8,9,10,11)         -171.0965         estimate D2E/DX2                !
 ! D38   D(8,9,10,12)            8.5482         estimate D2E/DX2                !
 ! D39   D(22,9,10,11)           9.3706         estimate D2E/DX2                !
 ! D40   D(22,9,10,12)        -170.9847         estimate D2E/DX2                !
 ! D41   D(8,9,22,23)           53.562          estimate D2E/DX2                !
 ! D42   D(8,9,22,27)         -125.2532         estimate D2E/DX2                !
 ! D43   D(10,9,22,23)        -126.8749         estimate D2E/DX2                !
 ! D44   D(10,9,22,27)          54.3099         estimate D2E/DX2                !
 ! D45   D(9,10,12,13)        -171.4842         estimate D2E/DX2                !
 ! D46   D(9,10,12,39)         -51.3716         estimate D2E/DX2                !
 ! D47   D(9,10,12,40)          67.7492         estimate D2E/DX2                !
 ! D48   D(11,10,12,13)          8.1571         estimate D2E/DX2                !
 ! D49   D(11,10,12,39)        128.2697         estimate D2E/DX2                !
 ! D50   D(11,10,12,40)       -112.6095         estimate D2E/DX2                !
 ! D51   D(10,12,13,14)        -73.8776         estimate D2E/DX2                !
 ! D52   D(10,12,13,21)         81.0542         estimate D2E/DX2                !
 ! D53   D(39,12,13,14)        164.6243         estimate D2E/DX2                !
 ! D54   D(39,12,13,21)        -40.4439         estimate D2E/DX2                !
 ! D55   D(40,12,13,14)         46.4984         estimate D2E/DX2                !
 ! D56   D(40,12,13,21)       -158.5698         estimate D2E/DX2                !
 ! D57   D(12,13,14,15)        163.0835         estimate D2E/DX2                !
 ! D58   D(21,13,14,15)          4.73           estimate D2E/DX2                !
 ! D59   D(12,13,21,16)       -162.2112         estimate D2E/DX2                !
 ! D60   D(12,13,21,20)         21.2268         estimate D2E/DX2                !
 ! D61   D(14,13,21,16)         -3.9598         estimate D2E/DX2                !
 ! D62   D(14,13,21,20)        179.4782         estimate D2E/DX2                !
 ! D63   D(13,14,15,16)         -3.2861         estimate D2E/DX2                !
 ! D64   D(14,15,16,17)        179.6135         estimate D2E/DX2                !
 ! D65   D(14,15,16,21)          0.6008         estimate D2E/DX2                !
 ! D66   D(15,16,17,18)       -179.2538         estimate D2E/DX2                !
 ! D67   D(15,16,17,41)          0.8554         estimate D2E/DX2                !
 ! D68   D(21,16,17,18)         -0.3543         estimate D2E/DX2                !
 ! D69   D(21,16,17,41)        179.7549         estimate D2E/DX2                !
 ! D70   D(15,16,21,13)          2.1196         estimate D2E/DX2                !
 ! D71   D(15,16,21,20)        179.2711         estimate D2E/DX2                !
 ! D72   D(17,16,21,13)       -177.049          estimate D2E/DX2                !
 ! D73   D(17,16,21,20)          0.1026         estimate D2E/DX2                !
 ! D74   D(16,17,18,19)          0.2378         estimate D2E/DX2                !
 ! D75   D(16,17,18,42)       -179.6887         estimate D2E/DX2                !
 ! D76   D(41,17,18,19)       -179.872          estimate D2E/DX2                !
 ! D77   D(41,17,18,42)          0.2015         estimate D2E/DX2                !
 ! D78   D(17,18,19,20)          0.1477         estimate D2E/DX2                !
 ! D79   D(17,18,19,43)       -179.6373         estimate D2E/DX2                !
 ! D80   D(42,18,19,20)       -179.9256         estimate D2E/DX2                !
 ! D81   D(42,18,19,43)          0.2895         estimate D2E/DX2                !
 ! D82   D(18,19,20,21)         -0.3976         estimate D2E/DX2                !
 ! D83   D(18,19,20,44)        179.7887         estimate D2E/DX2                !
 ! D84   D(43,19,20,21)        179.3871         estimate D2E/DX2                !
 ! D85   D(43,19,20,44)         -0.4266         estimate D2E/DX2                !
 ! D86   D(19,20,21,13)        176.3686         estimate D2E/DX2                !
 ! D87   D(19,20,21,16)          0.2727         estimate D2E/DX2                !
 ! D88   D(44,20,21,13)         -3.8179         estimate D2E/DX2                !
 ! D89   D(44,20,21,16)       -179.9138         estimate D2E/DX2                !
 ! D90   D(9,22,23,24)        -178.7956         estimate D2E/DX2                !
 ! D91   D(9,22,23,45)           1.2646         estimate D2E/DX2                !
 ! D92   D(27,22,23,24)         -0.0198         estimate D2E/DX2                !
 ! D93   D(27,22,23,45)       -179.9596         estimate D2E/DX2                !
 ! D94   D(9,22,27,26)         179.3097         estimate D2E/DX2                !
 ! D95   D(23,22,27,26)          0.5276         estimate D2E/DX2                !
 ! D96   D(22,23,24,25)         -0.2892         estimate D2E/DX2                !
 ! D97   D(22,23,24,46)       -179.9297         estimate D2E/DX2                !
 ! D98   D(45,23,24,25)        179.6505         estimate D2E/DX2                !
 ! D99   D(45,23,24,46)          0.01           estimate D2E/DX2                !
 ! D100  D(23,24,25,26)          0.0907         estimate D2E/DX2                !
 ! D101  D(23,24,25,28)        179.7508         estimate D2E/DX2                !
 ! D102  D(46,24,25,26)        179.7297         estimate D2E/DX2                !
 ! D103  D(46,24,25,28)         -0.6102         estimate D2E/DX2                !
 ! D104  D(24,25,26,27)          0.4609         estimate D2E/DX2                !
 ! D105  D(24,25,26,47)       -179.9477         estimate D2E/DX2                !
 ! D106  D(28,25,26,27)       -179.2011         estimate D2E/DX2                !
 ! D107  D(28,25,26,47)          0.3902         estimate D2E/DX2                !
 ! D108  D(24,25,28,29)         -6.14           estimate D2E/DX2                !
 ! D109  D(24,25,28,32)        173.9751         estimate D2E/DX2                !
 ! D110  D(26,25,28,29)        173.5054         estimate D2E/DX2                !
 ! D111  D(26,25,28,32)         -6.3795         estimate D2E/DX2                !
 ! D112  D(25,26,27,22)         -0.7625         estimate D2E/DX2                !
 ! D113  D(47,26,27,22)        179.627          estimate D2E/DX2                !
 ! D114  D(25,28,29,30)       -179.8956         estimate D2E/DX2                !
 ! D115  D(25,28,29,48)          0.0136         estimate D2E/DX2                !
 ! D116  D(32,28,29,30)          0.0107         estimate D2E/DX2                !
 ! D117  D(32,28,29,48)        179.9198         estimate D2E/DX2                !
 ! D118  D(25,28,32,31)        179.88           estimate D2E/DX2                !
 ! D119  D(25,28,32,49)         -0.3946         estimate D2E/DX2                !
 ! D120  D(29,28,32,31)         -0.0264         estimate D2E/DX2                !
 ! D121  D(29,28,32,49)        179.699          estimate D2E/DX2                !
 ! D122  D(28,29,30,31)          0.0085         estimate D2E/DX2                !
 ! D123  D(28,29,30,50)        179.5682         estimate D2E/DX2                !
 ! D124  D(48,29,30,31)       -179.9105         estimate D2E/DX2                !
 ! D125  D(48,29,30,50)         -0.3507         estimate D2E/DX2                !
 ! D126  D(29,30,31,32)         -0.0252         estimate D2E/DX2                !
 ! D127  D(50,30,31,32)       -179.6184         estimate D2E/DX2                !
 ! D128  D(30,31,32,28)          0.0318         estimate D2E/DX2                !
 ! D129  D(30,31,32,49)       -179.7117         estimate D2E/DX2                !
 --------------------------------------------------------------------------------
 Trust Radius=3.00D-01 FncErr=1.00D-07 GrdErr=1.00D-07
 Number of steps in this run=    281 maximum allowed number of steps=    300.
 GradGradGradGradGradGradGradGradGradGradGradGradGradGradGradGradGradGrad

 Leave Link  103 at Sat Aug 27 11:51:21 2022, MaxMem=  209715200 cpu:       0.1
 (Enter /opt/gaussian/l202.exe)
                          Input orientation:                          
 ---------------------------------------------------------------------
 Center     Atomic      Atomic             Coordinates (Angstroms)
 Number     Number       Type             X           Y           Z
 ---------------------------------------------------------------------
      1         17           0       22.821200  -15.660000   -2.736800
      2          6           0       22.617800  -14.016100   -2.356900
      3          6           0       23.118900  -13.516100   -1.149800
      4          6           0       22.944800  -12.167300   -0.849400
      5          6           0       22.277700  -11.322900   -1.737700
      6          6           0       21.774200  -11.823900   -2.940600
      7          6           0       21.947800  -13.179100   -3.251600
      8          6           0       21.063800  -10.968300   -3.957300
      9          7           0       20.432000   -9.769000   -3.468200
     10          6           0       21.110600   -8.555200   -3.312800
     11          8           0       20.582400   -7.592900   -2.739900
     12          6           0       22.540900   -8.486500   -3.881300
     13          7           0       23.277500   -7.298900   -3.539300
     14          7           0       23.037300   -6.063200   -4.094800
     15          7           0       23.545300   -5.132900   -3.424800
     16          6           0       24.152800   -5.672200   -2.242900
     17          6           0       24.848100   -5.103000   -1.177400
     18          6           0       25.319000   -5.960300   -0.187300
     19          6           0       25.113300   -7.347900   -0.249000
     20          6           0       24.430500   -7.947300   -1.303000
     21          6           0       23.945700   -7.104300   -2.302900
     22          6           0       19.041500   -9.865800   -3.147000
     23          6           0       18.603600  -10.880000   -2.253400
     24          6           0       17.246500  -10.984000   -1.965400
     25          6           0       16.336900  -10.090900   -2.550500
     26          6           0       16.871500   -9.111100   -3.425300
     27          7           0       18.168000   -8.989600   -3.732200
     28          6           0       14.931900  -10.164400   -2.286800
     29          6           0       14.237100  -11.147200   -1.549600
     30          7           0       12.893400  -10.782200   -1.579400
     31          7           0       12.683900   -9.659100   -2.269200
     32          6           0       13.893400   -9.243800   -2.719700
     33          1           0       23.641400  -14.180600   -0.445200
     34          1           0       23.334600  -11.765700    0.098500
     35          1           0       22.145000  -10.261900   -1.472300
     36          1           0       21.555300  -13.582600   -4.198100
     37          1           0       21.812300  -10.692500   -4.758700
     38          1           0       20.269700  -11.602600   -4.454400
     39          1           0       23.138500   -9.362900   -3.495000
     40          1           0       22.463400   -8.543400   -5.006700
     41          1           0       25.014100   -4.017400   -1.124600
     42          1           0       25.867500   -5.541200    0.670100
     43          1           0       25.502000   -7.980100    0.564600
     44          1           0       24.278100   -9.034100   -1.343200
     45          1           0       19.327900  -11.570400   -1.796800
     46          1           0       16.891800  -11.763200   -1.274600
     47          1           0       16.203900   -8.378200   -3.916300
     48          1           0       14.589900  -12.037900   -1.032700
     49          1           0       14.010900   -8.337800   -3.314100
     50          1           0       12.132600  -11.263600   -1.161400
 ---------------------------------------------------------------------
                    Distance matrix (angstroms):
                    1          2          3          4          5
     1  Cl   0.000000
     2  C    1.699442   0.000000
     3  C    2.683934   1.399354   0.000000
     4  C    3.971965   2.407810   1.392771   0.000000
     5  C    4.483752   2.784314   2.421440   1.395389   0.000000
     6  C    3.981634   2.420353   2.806906   2.421022   1.396954
     7  C    2.680058   1.396409   2.429528   2.790755   2.417893
     8  C    5.156561   3.776941   4.312398   3.825546   2.554588
     9  N    6.398992   4.904138   5.160927   4.350186   2.969149
    10  C    7.330492   5.745157   5.772553   4.741297   3.391641
    11  O    8.371997   6.748855   6.636757   5.484529   4.217979
    12  C    7.269632   5.736391   5.752569   4.785796   3.565033
    13  N    8.411909   6.852303   6.662465   5.572035   4.520834
    14  N    9.694815   8.151374   8.014075   6.913842   5.813549
    15  N   10.574379   8.995105   8.696866   7.515056   6.539818
    16  C   10.088273   8.484686   7.986901   6.751846   5.975085
    17  C   10.862334   9.263304   8.589013   7.323556   6.753373
    18  C   10.335528   8.769239   7.928238   6.678477   6.356943
    19  C    8.974067   7.425339   6.544904   5.318786   5.104653
    20  C    8.008206   6.420819   5.723224   4.496827   4.027181
    21  C    8.640184   7.038410   6.566918   5.361756   4.571462
    22  C    6.930162   5.535266   5.825692   5.080514   3.818672
    23  C    6.392983   5.095060   5.343678   4.740715   3.736458
    24  C    7.316920   6.180434   6.446845   5.925899   5.047739
    25  C    8.549604   7.409074   7.725897   7.132287   6.121403
    26  C    8.874742   7.630234   7.975709   7.270529   6.080054
    27  N    8.193737   6.852581   7.188143   6.420758   5.129518
    28  C    9.625236   8.597300   8.919284   8.383573   7.456837
    29  C    9.770444   8.894855   9.200973   8.795165   8.044719
    30  N   11.121768  10.277479  10.593376  10.172612   9.401197
    31  N   11.789584  10.847742  11.181178  10.658000   9.751498
    32  C   10.994250   9.950961  10.287224   9.693953   8.693875
    33  H    2.848295   2.174722   1.100467   2.168411   3.420041
    34  H    4.844386   3.406918   2.160713   1.100791   2.164426
    35  H    5.585310   3.885881   3.412082   2.158294   1.101711
    36  H    2.837867   2.169527   3.426573   3.891989   3.417846
    37  H    5.457290   4.178970   4.764880   4.328997   3.120968
    38  H    5.091443   3.967123   4.764431   4.524497   3.389802
    39  H    6.350513   4.818576   4.769635   3.860230   2.769599
    40  H    7.478400   6.082411   6.327172   5.536022   4.294935
    41  H   11.956510  10.355425   9.685955   8.413002   7.825222
    42  H   11.103019   9.568031   8.629361   7.399747   7.218879
    43  H    8.778770   7.299799   6.266229   5.106007   5.183725
    44  H    6.925838   5.348318   4.633516   3.440708   3.065263
    45  H    5.459998   4.137463   4.309993   3.786268   2.960755
    46  H    7.244368   6.247720   6.470317   6.081357   5.423674
    47  H    9.909818   8.680769   9.048136   8.318827   7.092856
    48  H    9.153025   8.373408   8.656941   8.357912   7.753097
    49  H   11.470365  10.355581  10.698348  10.027681   8.929493
    50  H   11.664321  10.906186  11.214842  10.854386  10.161628
                    6          7          8          9         10
     6  C    0.000000
     7  C    1.401223   0.000000
     8  C    1.506784   2.483366   0.000000
     9  N    2.510473   3.738094   1.441080   0.000000
    10  C    3.356084   4.699479   2.498124   1.399270   0.000000
    11  O    4.400231   5.773369   3.620378   2.299664   1.238237
    12  C    3.551195   4.771665   2.889106   2.502582   1.540672
    13  N    4.805619   6.035530   4.305774   3.768729   2.514965
    14  N    6.009431   7.248036   5.289009   4.573092   3.245576
    15  N    6.938352   8.205080   6.363434   5.584617   4.201481
    16  C    6.632340   7.888793   6.366299   5.668287   4.325662
    17  C    7.597910   8.828218   7.513356   6.820650   5.517837
    18  C    7.384313   8.536158   7.576258   7.010939   5.849178
    19  C    6.199103   7.282780   6.577023   6.175722   5.183247
    20  C    4.976514   6.110039   5.244656   4.898437   3.928177
    21  C    5.234185   6.464892   5.096360   4.561210   3.341078
    22  C    3.368146   4.408569   2.441678   1.430395   2.454860
    23  C    3.378742   4.179227   2.993937   2.460306   3.579396
    24  C    4.707071   5.345559   4.305774   3.725861   4.758763
    25  C    5.720113   6.442881   5.009242   4.208995   5.072247
    26  C    5.624116   6.507505   4.616015   3.621027   4.276874
    27  N    4.654521   5.663018   3.514482   2.408912   3.003913
    28  C    7.070959   7.696889   6.406015   5.639428   6.466725
    29  C    7.694198   8.153546   7.241054   6.630026   7.554624
    30  N    9.044701   9.514386   8.511432   7.837387   8.688301
    31  N    9.368601   9.958682   8.647914   7.841093   8.562533
    32  C    8.295343   8.980137   7.477980   6.602225   7.274195
    33  H    3.907364   3.427414   5.412739   6.237066   6.802441
    34  H    3.416777   3.891540   4.716131   5.013307   5.185601
    35  H    2.175601   3.422697   2.800575   2.675993   2.714820
    36  H    2.173074   1.101241   2.670978   4.042042   5.124087
    37  H    2.141729   2.910823   1.130734   2.103205   2.674147
    38  H    2.145713   2.597710   1.131388   2.088306   3.361103
    39  H    2.867960   4.005046   2.663721   2.736929   2.190423
    40  H    3.937696   4.983566   2.990027   2.827660   2.167834
    41  H    8.645013   9.892577   8.481985   7.718096   6.373159
    42  H    8.322534   9.438289   8.598941   8.033958   6.897520
    43  H    6.399822   7.363784   7.005322   6.720754   5.886371
    44  H    4.074823   5.123799   4.572349   4.455131   3.760549
    45  H    2.712365   3.401211   2.836130   2.694004   3.816766
    46  H    5.159173   5.610387   5.023378   4.617546   5.678362
    47  H    6.622166   7.515508   5.507171   4.473472   4.946842
    48  H    7.436400   7.769462   7.183920   6.723816   7.736122
    49  H    8.518288   9.297122   7.554908   6.580472   7.103028
    50  H    9.820384  10.216468   9.363258   8.742722   9.621249
                   11         12         13         14         15
    11  O    0.000000
    12  C    2.436604   0.000000
    13  N    2.826489   1.438728   0.000000
    14  N    3.194099   2.482817   1.375947   0.000000
    15  N    3.911453   3.530417   2.185494   1.253963   0.000000
    16  C    4.084587   3.633574   2.256758   2.196988   1.434151
    17  C    5.180464   4.907374   3.587106   3.565418   2.597882
    18  C    5.622858   5.267368   4.146743   4.526069   3.783122
    19  C    5.176260   4.594263   3.768108   4.555262   4.177386
    20  C    4.122882   3.241752   2.598243   3.644858   3.634070
    21  C    3.426585   2.524933   1.418818   2.262738   2.303345
    22  C    2.776000   3.832423   4.968558   5.596830   6.539245
    23  C    3.867474   4.886843   6.026870   6.800736   7.669533
    24  C    4.819506   6.159452   7.240862   7.891893   8.720098
    25  C    4.929518   6.544826   7.546186   7.968851   8.792451
    26  C    4.067614   5.721902   6.658371   6.910500   7.769536
    27  N    2.960533   4.404270   5.385412   5.692572   6.624499
    28  C    6.224633   7.953280   8.912288   9.262085  10.040005
    29  C    7.369715   9.026031  10.024827  10.477052  11.239696
    30  N    8.404708  10.180532  11.126730  11.467123  12.197666
    31  N    8.177839  10.056555  10.927399  11.111085  11.823363
    32  C    6.889746   8.757972   9.618509   9.778447  10.514554
    33  H    7.617146   6.740969   7.554050   8.920577   9.526181
    34  H    5.748337   5.217463   5.761003   7.084537   7.513459
    35  H    3.342468   3.018619   3.786082   5.030188   5.663898
    36  H    6.240944   5.200193   6.548655   7.664749   8.715247
    37  H    3.898170   2.483370   3.892335   4.834440   5.974256
    38  H    4.372069   3.898317   5.329738   6.202731   7.324387
    39  H    3.199488   1.128907   2.069149   3.355298   4.250096
    40  H    3.095156   1.129499   2.089211   2.704129   3.912087
    41  H    5.918898   5.804220   4.428860   4.112800   2.948327
    42  H    6.615879   6.360527   5.245632   5.566578   4.725201
    43  H    5.939033   5.365686   4.717460   5.608856   5.277361
    44  H    4.205476   3.124049   2.972369   4.235225   4.482122
    45  H    4.275946   4.917209   6.073002   7.026358   7.866273
    46  H    5.758388   7.031641   8.113939   8.843681   9.636042
    47  H    4.601291   6.338022   7.165391   7.217094   8.041747
    48  H    7.653928   9.162170  10.208602  10.790369  11.558562
    49  H    6.638463   8.550130   9.327374   9.341263  10.059246
    50  H    9.346915  11.110484  12.065739  12.432276  13.151357
                   16         17         18         19         20
    16  C    0.000000
    17  C    1.393815   0.000000
    18  C    2.380864   1.391764   0.000000
    19  C    2.775999   2.443734   1.404120   0.000000
    20  C    2.477218   2.877535   2.445892   1.391550   0.000000
    21  C    1.448241   2.467038   2.769558   2.375108   1.394805
    22  C    6.673010   7.764032   7.963652   7.183661   6.010183
    23  C    7.610185   8.574689   8.577227   7.672649   6.592174
    24  C    8.717179   9.643206   9.672872   8.834806   7.827527
    25  C    8.983753   9.960174  10.164875   9.478721   8.465083
    26  C    8.138884   9.205654   9.579793   9.006943   7.937069
    27  N    7.002927   8.139803   8.536965   7.941351   6.797522
    28  C   10.257036  11.188367  11.400623  10.758541   9.803407
    29  C   11.348013  12.217373  12.311308  11.593876  10.686701
    30  N   12.382505  13.241215  13.400903  12.762850  11.883507
    31  N   12.142147  13.035254  13.328960  12.802845  11.909929
    32  C   10.873774  11.812297  12.154783  11.644095  10.710669
    33  H    8.711264   9.186679   8.393699   6.992194   6.341335
    34  H    6.578932   6.950552   6.141840   4.775090   4.212526
    35  H    5.068573   5.831635   5.498115   4.335743   3.257230
    36  H    8.552441   9.584924   9.399543   8.193060   6.957369
    37  H    6.083634   7.299610   7.455760   6.513090   5.131565
    38  H    7.425553   8.599144   8.691325   7.697293   6.372189
    39  H    4.027136   5.142057   5.222370   4.300765   2.911709
    40  H    4.328562   5.673331   6.168750   5.575563   4.235825
    41  H    2.175039   1.099487   2.178613   3.445105   3.977000
    42  H    3.382739   2.155099   1.100741   2.162805   3.427449
    43  H    3.876700   3.426347   2.162969   1.101231   2.153397
    44  H    3.482461   3.975668   3.444971   2.176718   1.098169
    45  H    7.633310   8.525463   8.364030   7.327758   6.277517
    46  H    9.526805  10.376436  10.289488   9.388279   8.449491
    47  H    8.561992   9.641094  10.140845   9.689583   8.642451
    48  H   11.551440  12.383232  12.359835  11.547824  10.660370
    49  H   10.540922  11.509749  11.970903  11.560191  10.619090
    50  H   13.301075  14.129302  14.246228  13.589104  12.737984
                   21         22         23         24         25
    21  C    0.000000
    22  C    5.691183   0.000000
    23  C    6.541895   1.420873   0.000000
    24  C    7.748888   2.422514   1.391215   0.000000
    25  C    8.177709   2.778731   2.418445   1.402620   0.000000
    26  C    7.438503   2.314287   2.739074   2.404098   1.418126
    27  N    6.243322   1.368644   2.439305   2.819286   2.441762
    28  C    9.519089   4.209266   3.740933   2.476371   1.431421
    29  C   10.543691   5.222637   4.430920   3.042370   2.554747
    30  N   11.670636   6.410639   5.750672   4.374837   3.643985
    31  N   11.547999   6.421241   6.044311   4.760774   3.689172
    32  C   10.285909   5.203115   5.008051   3.852343   2.591698
    33  H    7.322409   6.861217   6.288321   7.309173   8.632129
    34  H    5.279092   5.707328   5.357076   6.475778   7.667461
    35  H    3.728653   3.548694   3.678815   4.975930   5.909804
    36  H    7.160598   4.608536   4.449544   5.504855   6.491398
    37  H    4.843297   3.310339   4.075223   5.360413   5.934482
    38  H    6.194888   2.496847   2.853496   3.964533   4.623525
    39  H    2.678423   4.142393   4.940494   6.299469   6.905348
    40  H    3.402757   4.112983   5.285680   6.513223   6.779504
    41  H    3.472581   8.600339   9.458540  10.467859  10.687113
    42  H    3.869797   8.936817   9.477019  10.530507  11.041031
    43  H    3.378114   7.685694   7.996153   9.142078   9.907491
    44  H    2.180743   5.600661   6.036204   7.323431   8.101670
    45  H    6.444087   2.193337   1.099885   2.168990   3.420974
    46  H    8.515883   3.424503   2.160637   1.100077   2.175413
    47  H    8.010078   3.294958   3.844841   3.418072   2.194639
    48  H   10.652925   5.385631   4.352083   3.006353   3.024324
    49  H   10.062023   5.260194   5.355442   4.392092   3.011100
    50  H   12.575855   7.323206   6.573694   5.184261   4.580498
                   26         27         28         29         30
    26  C    0.000000
    27  N    1.337857   0.000000
    28  C    2.483480   3.733856   0.000000
    29  C    3.821520   4.987079   1.411420   0.000000
    30  N    4.693101   5.972384   2.244454   1.392711   0.000000
    31  N    4.378683   5.715239   2.304158   2.268192   1.334567
    32  C    3.063423   4.400225   1.453750   2.260574   2.160314
    33  H    8.967295   8.228545   9.766102   9.942941  11.329388
    34  H    7.825326   7.005337   8.880269   9.266244  10.620795
    35  H    5.740065   4.747886   7.259596   7.957676   9.266838
    36  H    6.521466   5.725951   7.694582   8.154862   9.472504
    37  H    5.356331   4.151445   7.330013   8.239462   9.469043
    38  H    4.337555   3.430231   5.937930   6.711000   7.959176
    39  H    6.272444   4.990139   8.333693   9.284569  10.518841
    40  H    5.838874   4.502655   8.170005   9.295339  10.408819
    41  H    9.876281   8.853894  11.865373  12.928975  13.888151
    42  H   10.509258   9.515987  12.235382  13.100401  14.172353
    43  H    9.575176   8.559739  11.163721  11.891103  13.092948
    44  H    7.694075   6.560688   9.461470  10.263015  11.520549
    45  H    3.838498   3.428071   4.641309   5.114338   6.486240
    46  H    3.414609   3.919355   2.724320   2.739072   4.128252
    47  H    1.106306   2.065282   2.731989   4.139678   4.711659
    48  H    4.415472   5.420538   2.280292   1.088577   2.180315
    49  H    2.965365   4.228609   2.289116   3.325260   3.198919
    50  H    5.675885   6.943064   3.211051   2.143168   0.992616
                   31         32         33         34         35
    31  N    0.000000
    32  C    1.355845   0.000000
    33  H   11.993237  11.161042   0.000000
    34  H   11.112208  10.170471   2.494289   0.000000
    35  H    9.513718   8.407225   4.318606   2.478704   0.000000
    36  H    9.890210   8.928357   4.335167   4.992775   4.336448
    37  H    9.518047   8.304531   5.841124   5.202071   3.331146
    38  H    8.129985   7.016432   5.838504   5.490821   3.769237
    39  H   10.530384   9.278316   5.724021   4.327256   2.426223
    40  H   10.216522   8.897518   7.346631   6.099613   3.942918
    41  H   13.607818  12.390705  10.277963   8.022023   6.880873
    42  H   14.121044  12.983800   8.991032   6.744384   6.382154
    43  H   13.234544  12.130258   6.551926   4.386985   4.541478
    44  H   11.647900  10.477630   5.262913   3.229602   2.464604
    45  H    6.929572   5.983193   5.219794   4.436660   3.123063
    46  H    4.808626   4.174457   7.217259   6.587494   5.467092
    47  H    4.091949   2.742175  10.051507   8.856673   6.694634
    48  H    3.289446   3.337376   9.320192   8.821762   7.773478
    49  H    2.144430   1.089933  11.623916  10.503700   8.559087
    50  H    2.026221   3.099727  11.894297  11.283805  10.067185
                   36         37         38         39         40
    36  H    0.000000
    37  H    2.955165   0.000000
    38  H    2.374628   1.816727   0.000000
    39  H    4.561441   2.263533   3.763870   0.000000
    40  H    5.183823   2.259218   3.804742   1.847316   0.000000
    41  H   10.625571   8.247131   9.546316   6.140932   6.485480
    42  H   10.342077   8.511898   9.712695   6.277013   7.268229
    43  H    8.345523   7.022003   8.104926   4.896797   6.371011
    44  H    6.021042   4.527262   5.687181   2.457039   4.117664
    45  H    3.844021   3.964316   2.819727   4.719917   5.412721
    46  H    5.797008   6.123453   4.641888   7.050736   7.438979
    47  H    7.470119   6.125339   5.216995   7.016823   6.355911
    48  H    7.805296   8.237490   6.645122   9.289624   9.486633
    49  H    9.230783   8.276069   7.150649   9.186764   8.622756
    50  H   10.167919  10.342307   8.784712  11.410004  11.353909
                   41         42         43         44         45
    41  H    0.000000
    42  H    2.504238   0.000000
    43  H    4.335255   2.468391   0.000000
    44  H    5.075112   4.333580   2.499710   0.000000
    45  H    9.478003   9.230559   7.522365   5.580596   0.000000
    46  H   11.224601  11.093166   9.582800   7.874650   2.498889
    47  H   10.219089  11.066562  10.329163   8.499633   4.943865
    48  H   13.152977  13.125963  11.751214  10.147928   4.821934
    49  H   12.022070  12.816934  12.133328  10.477818   6.404872
    50  H   14.779777  14.991589  13.874484  12.349773   7.229813
                   46         47         48         49         50
    46  H    0.000000
    47  H    4.348564   0.000000
    48  H    2.330819   4.930877   0.000000
    49  H    4.918588   2.274539   4.385290   0.000000
    50  H    4.786690   5.700043   2.579618   4.089307   0.000000
 Stoichiometry    C23H18ClN7O
 Framework group  C1[X(C23H18ClN7O)]
 Deg. of freedom   144
 Full point group                 C1      NOp   1
 Largest Abelian subgroup         C1      NOp   1
 Largest concise Abelian subgroup C1      NOp   1
                         Standard orientation:                         
 ---------------------------------------------------------------------
 Center     Atomic      Atomic             Coordinates (Angstroms)
 Number     Number       Type             X           Y           Z
 ---------------------------------------------------------------------
      1         17           0       -0.445127    6.231267   -0.420978
      2          6           0       -0.739936    4.606668   -0.018649
      3          6           0       -1.408003    4.297124    1.171334
      4          6           0       -1.642578    2.961849    1.490442
      5          6           0       -1.216234    1.943042    0.637581
      6          6           0       -0.545736    2.252936   -0.548117
      7          6           0       -0.308444    3.593978   -0.877851
      8          6           0       -0.076520    1.208312   -1.527400
      9          7           0        0.163068   -0.112168   -1.002384
     10          6           0       -0.842817   -1.075001   -0.864153
     11          8           0       -0.636840   -2.137020   -0.261724
     12          6           0       -2.210076   -0.739371   -1.489953
     13          7           0       -3.270681   -1.656609   -1.167884
     14          7           0       -3.378035   -2.920011   -1.702226
     15          7           0       -4.157536   -3.650314   -1.045371
     16          6           0       -4.625848   -2.934821    0.105950
     17          6           0       -5.494519   -3.257408    1.147136
     18          6           0       -5.733176   -2.280831    2.109606
     19          6           0       -5.132801   -1.013227    2.044157
     20          6           0       -4.267772   -0.657891    1.013685
     21          6           0       -4.011325   -1.624990    0.041865
     22          6           0        1.509421   -0.414412   -0.625540
     23          6           0        2.188993    0.448057    0.276241
     24          6           0        3.506693    0.161675    0.618487
     25          6           0        4.139836   -0.967620    0.078891
     26          6           0        3.377028   -1.768865   -0.808358
     27          7           0        2.112924   -1.517111   -1.166859
     28          6           0        5.495421   -1.297515    0.399081
     29          6           0        6.417366   -0.542426    1.155365
     30          7           0        7.598207   -1.280299    1.183665
     31          7           0        7.498964   -2.429772    0.512897
     32          6           0        6.238348   -2.487266    0.017057
     33          1           0       -1.741351    5.098272    1.848142
     34          1           0       -2.166246    2.709124    2.425130
     35          1           0       -1.405887    0.894497    0.917497
     36          1           0        0.218305    3.847771   -1.811047
     37          1           0       -0.842989    1.144176   -2.356237
     38          1           0        0.884717    1.576187   -1.997220
     39          1           0       -2.542338    0.279853   -1.136097
     40          1           0       -2.078356   -0.730035   -2.611707
     41          1           0       -5.969242   -4.247573    1.202659
     42          1           0       -6.410404   -2.506326    2.947548
     43          1           0       -5.351488   -0.279417    2.835617
     44          1           0       -3.806172    0.337604    0.970185
     45          1           0        1.679166    1.327235    0.696798
     46          1           0        4.046118    0.819115    1.316315
     47          1           0        3.821582   -2.673054   -1.265226
     48          1           0        6.318633    0.422461    1.649576
     49          1           0        5.885619   -3.332603   -0.573654
     50          1           0        8.449922   -1.030664    1.628131
 ---------------------------------------------------------------------
 Rotational constants (GHZ):      0.1302739      0.0739800      0.0519475
 Leave Link  202 at Sat Aug 27 11:51:21 2022, MaxMem=  209715200 cpu:       0.0
 (Enter /opt/gaussian/l301.exe)
 Standard basis: 6-31G (6D, 7F)
 Ernie: Thresh=  0.10000D-02 Tol=  0.10000D-05 Strict=F.
 There are   328 symmetry adapted basis functions of A   symmetry.
 Integral buffers will be    131072 words long.
 Raffenetti 1 integral format.
 Two-electron integral symmetry is turned on.
   328 basis functions,   800 primitive gaussians,   328 cartesian basis functions
   115 alpha electrons      115 beta electrons
       nuclear repulsion energy      3044.3345225357 Hartrees.
 IExCor=    0 DFT=F Ex=HF Corr=None ExCW=0 ScaHFX=  1.000000
 ScaDFX=  1.000000  1.000000  1.000000  1.000000 ScalE2=  1.000000  1.000000
 IRadAn=      0 IRanWt=     -1 IRanGd=            0 ICorTp=0
 NAtoms=   50 NActive=   50 NUniq=   50 SFac= 1.00D+00 NAtFMM=   60 NAOKFM=F Big=F
 Leave Link  301 at Sat Aug 27 11:51:21 2022, MaxMem=  209715200 cpu:       0.2
 (Enter /opt/gaussian/l302.exe)
 NPDir=0 NMtPBC=     1 NCelOv=     1 NCel=       1 NClECP=     1 NCelD=      1
         NCelK=      1 NCelE2=     1 NClLst=     1 CellRange=     0.0.
 One-electron integrals computed using PRISM.
 NBasis=   328 RedAO= T  NBF=   328
 NBsUse=   328 1.00D-06 NBFU=   328
 Leave Link  302 at Sat Aug 27 11:51:22 2022, MaxMem=  209715200 cpu:       2.0
 (Enter /opt/gaussian/l303.exe)
 DipDrv:  MaxL=1.
 Leave Link  303 at Sat Aug 27 11:51:22 2022, MaxMem=  209715200 cpu:       0.4
 (Enter /opt/gaussian/l401.exe)
 Harris functional with IExCor=  205 diagonalized for initial guess.
 ExpMin= 1.43D-01 ExpMax= 2.52D+04 ExpMxC= 3.78D+03 IAcc=1 IRadAn=         1 AccDes= 0.00D+00
 HarFok:  IExCor=  205 AccDes= 0.00D+00 IRadAn=         1 IDoV= 1
 ScaDFX=  1.000000  1.000000  1.000000  1.000000
 FoFCou: FMM=F IPFlag=           0 FMFlag=      100000 FMFlg1=           0
         NFxFlg=           0 DoJE=T BraDBF=F KetDBF=T FulRan=T
         Omega=  0.000000  0.000000  1.000000  0.000000  0.000000 ICntrl=     500 IOpCl=  0
         NMat0=    1 NMatS0=    1 NMatT0=    0 NMatD0=    1 NMtDS0=    0 NMtDT0=    0
         I1Cent=           4 NGrid=           0.
 Petite list used in FoFCou.
 Harris En= -1797.25390217748    
 Initial guess orbital symmetries:
       Occupied  (A) (A) (A) (A) (A) (A) (A) (A) (A) (A) (A) (A)
                 (A) (A) (A) (A) (A) (A) (A) (A) (A) (A) (A) (A)
                 (A) (A) (A) (A) (A) (A) (A) (A) (A) (A) (A) (A)
                 (A) (A) (A) (A) (A) (A) (A) (A) (A) (A) (A) (A)
                 (A) (A) (A) (A) (A) (A) (A) (A) (A) (A) (A) (A)
                 (A) (A) (A) (A) (A) (A) (A) (A) (A) (A) (A) (A)
                 (A) (A) (A) (A) (A) (A) (A) (A) (A) (A) (A) (A)
                 (A) (A) (A) (A) (A) (A) (A) (A) (A) (A) (A) (A)
                 (A) (A) (A) (A) (A) (A) (A) (A) (A) (A) (A) (A)
                 (A) (A) (A) (A) (A) (A) (A)
       Virtual   (A) (A) (A) (A) (A) (A) (A) (A) (A) (A) (A) (A)
                 (A) (A) (A) (A) (A) (A) (A) (A) (A) (A) (A) (A)
                 (A) (A) (A) (A) (A) (A) (A) (A) (A) (A) (A) (A)
                 (A) (A) (A) (A) (A) (A) (A) (A) (A) (A) (A) (A)
                 (A) (A) (A) (A) (A) (A) (A) (A) (A) (A) (A) (A)
                 (A) (A) (A) (A) (A) (A) (A) (A) (A) (A) (A) (A)
                 (A) (A) (A) (A) (A) (A) (A) (A) (A) (A) (A) (A)
                 (A) (A) (A) (A) (A) (A) (A) (A) (A) (A) (A) (A)
                 (A) (A) (A) (A) (A) (A) (A) (A) (A) (A) (A) (A)
                 (A) (A) (A) (A) (A) (A) (A) (A) (A) (A) (A) (A)
                 (A) (A) (A) (A) (A) (A) (A) (A) (A) (A) (A) (A)
                 (A) (A) (A) (A) (A) (A) (A) (A) (A) (A) (A) (A)
                 (A) (A) (A) (A) (A) (A) (A) (A) (A) (A) (A) (A)
                 (A) (A) (A) (A) (A) (A) (A) (A) (A) (A) (A) (A)
                 (A) (A) (A) (A) (A) (A) (A) (A) (A) (A) (A) (A)
                 (A) (A) (A) (A) (A) (A) (A) (A) (A) (A) (A) (A)
                 (A) (A) (A) (A) (A) (A) (A) (A) (A) (A) (A) (A)
                 (A) (A) (A) (A) (A) (A) (A) (A) (A)
 The electronic state of the initial guess is 1-A.
 Leave Link  401 at Sat Aug 27 11:51:22 2022, MaxMem=  209715200 cpu:       4.4
 (Enter /opt/gaussian/l502.exe)
 Closed shell SCF:
 Requested convergence on RMS density matrix=1.00D-08 within 128 cycles.
 Requested convergence on MAX density matrix=1.00D-06.
 Requested convergence on             energy=1.00D-06.
 No special actions if energy rises.
 Using DIIS extrapolation, IDIIS=  1040.
 Integral symmetry usage will be decided dynamically.
 IEnd=      346051 IEndB=      346051 NGot=   209715200 MDV=   209493702
 LenX=   209493702 LenY=   209385677
 Fock matrices will be formed incrementally for  20 cycles.
 Integral accuracy reduced to 1.0D-05 until final iterations.

 Cycle   1  Pass 0  IDiag  1:
 FoFCou: FMM=F IPFlag=           0 FMFlag=      100000 FMFlg1=           0
         NFxFlg=           0 DoJE=F BraDBF=F KetDBF=F FulRan=T
         Omega=  0.000000  0.000000  1.000000  0.000000  0.000000 ICntrl=       0 IOpCl=  0
         NMat0=    1 NMatS0=    1 NMatT0=    0 NMatD0=    1 NMtDS0=    0 NMtDT0=    0
         I1Cent=           0 NGrid=           0.
 Symmetry not used in FoFCou.
 E= -1795.35737229226    
 DIIS: error= 4.06D-02 at cycle   1 NSaved=   1.
 NSaved= 1 IEnMin= 1 EnMin= -1795.35737229226     IErMin= 1 ErrMin= 4.06D-02
 ErrMax= 4.06D-02 EMaxC= 1.00D-01 BMatC= 1.04D+00 BMatP= 1.04D+00
 IDIUse=3 WtCom= 5.94D-01 WtEn= 4.06D-01
 Coeff-Com:  0.100D+01
 Coeff-En:   0.100D+01
 Coeff:      0.100D+01
 Gap=     0.566 Goal=   None    Shift=    0.000
 GapD=    0.566 DampG=2.000 DampE=0.500 DampFc=1.0000 IDamp=-1.
 RMSDP=5.83D-03 MaxDP=1.72D-01              OVMax= 1.62D-01

 Cycle   2  Pass 0  IDiag  1:
 RMSU=  4.09D-03    CP:  9.72D-01
 E= -1796.03580996935     Delta-E=       -0.678437677087 Rises=F Damp=F
 DIIS: error= 1.94D-02 at cycle   2 NSaved=   2.
 NSaved= 2 IEnMin= 2 EnMin= -1796.03580996935     IErMin= 2 ErrMin= 1.94D-02
 ErrMax= 1.94D-02 EMaxC= 1.00D-01 BMatC= 1.91D-01 BMatP= 1.04D+00
 IDIUse=3 WtCom= 8.06D-01 WtEn= 1.94D-01
 Coeff-Com:  0.245D+00 0.755D+00
 Coeff-En:   0.000D+00 0.100D+01
 Coeff:      0.198D+00 0.802D+00
 Gap=     0.441 Goal=   None    Shift=    0.000
 RMSDP=2.52D-03 MaxDP=9.11D-02 DE=-6.78D-01 OVMax= 9.82D-02

 Cycle   3  Pass 0  IDiag  1:
 RMSU=  1.59D-03    CP:  9.71D-01  8.04D-01
 E= -1796.18651425564     Delta-E=       -0.150704286293 Rises=F Damp=F
 DIIS: error= 1.01D-02 at cycle   3 NSaved=   3.
 NSaved= 3 IEnMin= 3 EnMin= -1796.18651425564     IErMin= 3 ErrMin= 1.01D-02
 ErrMax= 1.01D-02 EMaxC= 1.00D-01 BMatC= 3.40D-02 BMatP= 1.91D-01
 IDIUse=3 WtCom= 8.99D-01 WtEn= 1.01D-01
 Coeff-Com:  0.456D-02 0.282D+00 0.713D+00
 Coeff-En:   0.000D+00 0.000D+00 0.100D+01
 Coeff:      0.410D-02 0.254D+00 0.742D+00
 Gap=     0.388 Goal=   None    Shift=    0.000
 RMSDP=8.59D-04 MaxDP=3.37D-02 DE=-1.51D-01 OVMax= 3.78D-02

 Cycle   4  Pass 0  IDiag  1:
 RMSU=  3.69D-04    CP:  9.71D-01  8.98D-01  8.18D-01
 E= -1796.21713395781     Delta-E=       -0.030619702172 Rises=F Damp=F
 DIIS: error= 3.27D-03 at cycle   4 NSaved=   4.
 NSaved= 4 IEnMin= 4 EnMin= -1796.21713395781     IErMin= 4 ErrMin= 3.27D-03
 ErrMax= 3.27D-03 EMaxC= 1.00D-01 BMatC= 2.92D-03 BMatP= 3.40D-02
 IDIUse=3 WtCom= 9.67D-01 WtEn= 3.27D-02
 Coeff-Com: -0.135D-01 0.262D-01 0.265D+00 0.722D+00
 Coeff-En:   0.000D+00 0.000D+00 0.000D+00 0.100D+01
 Coeff:     -0.131D-01 0.253D-01 0.257D+00 0.731D+00
 Gap=     0.385 Goal=   None    Shift=    0.000
 RMSDP=2.69D-04 MaxDP=1.05D-02 DE=-3.06D-02 OVMax= 8.62D-03

 Cycle   5  Pass 0  IDiag  1:
 RMSU=  1.20D-04    CP:  9.70D-01  8.94D-01  8.95D-01  7.91D-01
 E= -1796.22001850112     Delta-E=       -0.002884543306 Rises=F Damp=F
 DIIS: error= 8.62D-04 at cycle   5 NSaved=   5.
 NSaved= 5 IEnMin= 5 EnMin= -1796.22001850112     IErMin= 5 ErrMin= 8.62D-04
 ErrMax= 8.62D-04 EMaxC= 1.00D-01 BMatC= 1.15D-04 BMatP= 2.92D-03
 IDIUse=3 WtCom= 9.91D-01 WtEn= 8.62D-03
 Coeff-Com: -0.130D-02-0.164D-01-0.157D-01 0.700D-01 0.963D+00
 Coeff-En:   0.000D+00 0.000D+00 0.000D+00 0.000D+00 0.100D+01
 Coeff:     -0.129D-02-0.163D-01-0.155D-01 0.694D-01 0.964D+00
 Gap=     0.386 Goal=   None    Shift=    0.000
 RMSDP=8.40D-05 MaxDP=2.22D-03 DE=-2.88D-03 OVMax= 5.47D-03

 Cycle   6  Pass 0  IDiag  1:
 RMSU=  4.31D-05    CP:  9.70D-01  8.94D-01  9.11D-01  8.57D-01  1.18D+00
 E= -1796.22031987042     Delta-E=       -0.000301369301 Rises=F Damp=F
 DIIS: error= 4.26D-04 at cycle   6 NSaved=   6.
 NSaved= 6 IEnMin= 6 EnMin= -1796.22031987042     IErMin= 6 ErrMin= 4.26D-04
 ErrMax= 4.26D-04 EMaxC= 1.00D-01 BMatC= 3.02D-05 BMatP= 1.15D-04
 IDIUse=3 WtCom= 9.96D-01 WtEn= 4.26D-03
 Coeff-Com:  0.249D-02-0.895D-02-0.518D-01-0.148D+00 0.147D+00 0.106D+01
 Coeff-En:   0.000D+00 0.000D+00 0.000D+00 0.000D+00 0.000D+00 0.100D+01
 Coeff:      0.248D-02-0.891D-02-0.516D-01-0.147D+00 0.146D+00 0.106D+01
 Gap=     0.386 Goal=   None    Shift=    0.000
 RMSDP=5.72D-05 MaxDP=2.32D-03 DE=-3.01D-04 OVMax= 3.04D-03

 Cycle   7  Pass 0  IDiag  1:
 RMSU=  1.76D-05    CP:  9.70D-01  8.93D-01  9.21D-01  8.71D-01  1.43D+00
                    CP:  1.21D+00
 E= -1796.22041833922     Delta-E=       -0.000098468804 Rises=F Damp=F
 DIIS: error= 1.41D-04 at cycle   7 NSaved=   7.
 NSaved= 7 IEnMin= 7 EnMin= -1796.22041833922     IErMin= 7 ErrMin= 1.41D-04
 ErrMax= 1.41D-04 EMaxC= 1.00D-01 BMatC= 4.10D-06 BMatP= 3.02D-05
 IDIUse=3 WtCom= 9.99D-01 WtEn= 1.41D-03
 Coeff-Com:  0.530D-04 0.221D-02 0.675D-02-0.685D-02-0.127D+00-0.467D-01
 Coeff-Com:  0.117D+01
 Coeff-En:   0.000D+00 0.000D+00 0.000D+00 0.000D+00 0.000D+00 0.000D+00
 Coeff-En:   0.100D+01
 Coeff:      0.530D-04 0.221D-02 0.674D-02-0.684D-02-0.126D+00-0.467D-01
 Coeff:      0.117D+01
 Gap=     0.386 Goal=   None    Shift=    0.000
 RMSDP=2.14D-05 MaxDP=7.58D-04 DE=-9.85D-05 OVMax= 1.60D-03

 Cycle   8  Pass 0  IDiag  1:
 RMSU=  7.41D-06    CP:  9.70D-01  8.92D-01  9.23D-01  8.71D-01  1.49D+00
                    CP:  1.39D+00  1.33D+00
 E= -1796.22043393092     Delta-E=       -0.000015591693 Rises=F Damp=F
 DIIS: error= 8.81D-05 at cycle   8 NSaved=   8.
 NSaved= 8 IEnMin= 8 EnMin= -1796.22043393092     IErMin= 8 ErrMin= 8.81D-05
 ErrMax= 8.81D-05 EMaxC= 1.00D-01 BMatC= 8.64D-07 BMatP= 4.10D-06
 IDIUse=1 WtCom= 1.00D+00 WtEn= 0.00D+00
 Coeff-Com: -0.548D-03 0.246D-02 0.142D-01 0.313D-01-0.550D-01-0.257D+00
 Coeff-Com:  0.246D+00 0.102D+01
 Coeff:     -0.548D-03 0.246D-02 0.142D-01 0.313D-01-0.550D-01-0.257D+00
 Coeff:      0.246D+00 0.102D+01
 Gap=     0.386 Goal=   None    Shift=    0.000
 RMSDP=9.62D-06 MaxDP=3.23D-04 DE=-1.56D-05 OVMax= 6.69D-04

 Initial convergence to 1.0D-05 achieved.  Increase integral accuracy.
 Cycle   9  Pass 1  IDiag  1:
 E= -1796.22044903731     Delta-E=       -0.000015106400 Rises=F Damp=F
 DIIS: error= 7.41D-05 at cycle   1 NSaved=   1.
 NSaved= 1 IEnMin= 1 EnMin= -1796.22044903731     IErMin= 1 ErrMin= 7.41D-05
 ErrMax= 7.41D-05 EMaxC= 1.00D-01 BMatC= 1.65D-06 BMatP= 1.65D-06
 IDIUse=1 WtCom= 1.00D+00 WtEn= 0.00D+00
 Coeff-Com:  0.100D+01
 Coeff:      0.100D+01
 Gap=     0.386 Goal=   None    Shift=    0.000
 RMSDP=9.62D-06 MaxDP=3.23D-04 DE=-1.51D-05 OVMax= 1.97D-04

 Cycle  10  Pass 1  IDiag  1:
 RMSU=  3.44D-05    CP:  1.00D+00
 E= -1796.22045078847     Delta-E=       -0.000001751154 Rises=F Damp=F
 DIIS: error= 1.89D-05 at cycle   2 NSaved=   2.
 NSaved= 2 IEnMin= 2 EnMin= -1796.22045078847     IErMin= 2 ErrMin= 1.89D-05
 ErrMax= 1.89D-05 EMaxC= 1.00D-01 BMatC= 4.25D-08 BMatP= 1.65D-06
 IDIUse=1 WtCom= 1.00D+00 WtEn= 0.00D+00
 Coeff-Com: -0.277D-01 0.103D+01
 Coeff:     -0.277D-01 0.103D+01
 Gap=     0.386 Goal=   None    Shift=    0.000
 RMSDP=3.01D-06 MaxDP=5.48D-05 DE=-1.75D-06 OVMax= 1.20D-04

 Cycle  11  Pass 1  IDiag  1:
 RMSU=  1.10D-06    CP:  1.00D+00  1.05D+00
 E= -1796.22045090217     Delta-E=       -0.000000113699 Rises=F Damp=F
 DIIS: error= 8.95D-06 at cycle   3 NSaved=   3.
 NSaved= 3 IEnMin= 3 EnMin= -1796.22045090217     IErMin= 3 ErrMin= 8.95D-06
 ErrMax= 8.95D-06 EMaxC= 1.00D-01 BMatC= 2.01D-08 BMatP= 4.25D-08
 IDIUse=1 WtCom= 1.00D+00 WtEn= 0.00D+00
 Coeff-Com: -0.260D-01 0.332D+00 0.694D+00
 Coeff:     -0.260D-01 0.332D+00 0.694D+00
 Gap=     0.386 Goal=   None    Shift=    0.000
 RMSDP=7.05D-07 MaxDP=1.86D-05 DE=-1.14D-07 OVMax= 5.44D-05

 Cycle  12  Pass 1  IDiag  1:
 RMSU=  4.87D-07    CP:  1.00D+00  1.06D+00  9.83D-01
 E= -1796.22045094354     Delta-E=       -0.000000041372 Rises=F Damp=F
 DIIS: error= 9.03D-06 at cycle   4 NSaved=   4.
 NSaved= 4 IEnMin= 4 EnMin= -1796.22045094354     IErMin= 3 ErrMin= 8.95D-06
 ErrMax= 9.03D-06 EMaxC= 1.00D-01 BMatC= 5.96D-09 BMatP= 2.01D-08
 IDIUse=1 WtCom= 1.00D+00 WtEn= 0.00D+00
 Coeff-Com:  0.241D-01-0.619D+00-0.299D+00 0.189D+01
 Coeff:      0.241D-01-0.619D+00-0.299D+00 0.189D+01
 Gap=     0.386 Goal=   None    Shift=    0.000
 RMSDP=1.12D-06 MaxDP=2.25D-05 DE=-4.14D-08 OVMax= 1.27D-04

 Cycle  13  Pass 1  IDiag  1:
 RMSU=  3.20D-07    CP:  1.00D+00  1.06D+00  1.50D+00  1.91D+00
 E= -1796.22045098195     Delta-E=       -0.000000038406 Rises=F Damp=F
 DIIS: error= 1.65D-06 at cycle   5 NSaved=   5.
 NSaved= 5 IEnMin= 5 EnMin= -1796.22045098195     IErMin= 5 ErrMin= 1.65D-06
 ErrMax= 1.65D-06 EMaxC= 1.00D-01 BMatC= 5.14D-10 BMatP= 5.96D-09
 IDIUse=1 WtCom= 1.00D+00 WtEn= 0.00D+00
 Coeff-Com:  0.940D-02-0.206D+00-0.151D+00 0.527D+00 0.819D+00
 Coeff:      0.940D-02-0.206D+00-0.151D+00 0.527D+00 0.819D+00
 Gap=     0.386 Goal=   None    Shift=    0.000
 RMSDP=2.02D-07 MaxDP=4.57D-06 DE=-3.84D-08 OVMax= 2.34D-05

 Cycle  14  Pass 1  IDiag  1:
 RMSU=  8.18D-08    CP:  1.00D+00  1.06D+00  1.55D+00  2.08D+00  1.16D+00
 E= -1796.22045098364     Delta-E=       -0.000000001690 Rises=F Damp=F
 DIIS: error= 7.79D-07 at cycle   6 NSaved=   6.
 NSaved= 6 IEnMin= 6 EnMin= -1796.22045098364     IErMin= 6 ErrMin= 7.79D-07
 ErrMax= 7.79D-07 EMaxC= 1.00D-01 BMatC= 7.52D-11 BMatP= 5.14D-10
 IDIUse=1 WtCom= 1.00D+00 WtEn= 0.00D+00
 Coeff-Com: -0.371D-02 0.968D-01 0.462D-01-0.307D+00 0.339D-01 0.113D+01
 Coeff:     -0.371D-02 0.968D-01 0.462D-01-0.307D+00 0.339D-01 0.113D+01
 Gap=     0.386 Goal=   None    Shift=    0.000
 RMSDP=9.35D-08 MaxDP=1.73D-06 DE=-1.69D-09 OVMax= 1.01D-05

 Cycle  15  Pass 1  IDiag  1:
 RMSU=  3.60D-08    CP:  1.00D+00  1.06D+00  1.57D+00  2.13D+00  1.30D+00
                    CP:  1.19D+00
 E= -1796.22045098395     Delta-E=       -0.000000000317 Rises=F Damp=F
 DIIS: error= 2.32D-07 at cycle   7 NSaved=   7.
 NSaved= 7 IEnMin= 7 EnMin= -1796.22045098395     IErMin= 7 ErrMin= 2.32D-07
 ErrMax= 2.32D-07 EMaxC= 1.00D-01 BMatC= 1.14D-11 BMatP= 7.52D-11
 IDIUse=1 WtCom= 1.00D+00 WtEn= 0.00D+00
 Coeff-Com: -0.154D-02 0.348D-01 0.241D-01-0.956D-01-0.112D+00 0.963D-01
 Coeff-Com:  0.105D+01
 Coeff:     -0.154D-02 0.348D-01 0.241D-01-0.956D-01-0.112D+00 0.963D-01
 Coeff:      0.105D+01
 Gap=     0.386 Goal=   None    Shift=    0.000
 RMSDP=3.31D-08 MaxDP=1.01D-06 DE=-3.17D-10 OVMax= 3.38D-06

 Cycle  16  Pass 1  IDiag  1:
 RMSU=  1.36D-08    CP:  1.00D+00  1.06D+00  1.57D+00  2.14D+00  1.32D+00
                    CP:  1.33D+00  1.29D+00
 E= -1796.22045098398     Delta-E=       -0.000000000031 Rises=F Damp=F
 DIIS: error= 7.69D-08 at cycle   8 NSaved=   8.
 NSaved= 8 IEnMin= 8 EnMin= -1796.22045098398     IErMin= 8 ErrMin= 7.69D-08
 ErrMax= 7.69D-08 EMaxC= 1.00D-01 BMatC= 2.56D-12 BMatP= 1.14D-11
 IDIUse=1 WtCom= 1.00D+00 WtEn= 0.00D+00
 Coeff-Com:  0.367D-03-0.110D-01-0.262D-02 0.395D-01-0.403D-01-0.215D+00
 Coeff-Com:  0.294D+00 0.936D+00
 Coeff:      0.367D-03-0.110D-01-0.262D-02 0.395D-01-0.403D-01-0.215D+00
 Coeff:      0.294D+00 0.936D+00
 Gap=     0.386 Goal=   None    Shift=    0.000
 RMSDP=1.38D-08 MaxDP=3.13D-07 DE=-3.09D-11 OVMax= 1.26D-06

 Cycle  17  Pass 1  IDiag  1:
 RMSU=  5.88D-09    CP:  1.00D+00  1.06D+00  1.57D+00  2.14D+00  1.32D+00
                    CP:  1.36D+00  1.48D+00  1.03D+00
 E= -1796.22045098398     Delta-E=        0.000000000004 Rises=F Damp=F
 DIIS: error= 6.15D-08 at cycle   9 NSaved=   9.
 NSaved= 9 IEnMin= 8 EnMin= -1796.22045098398     IErMin= 9 ErrMin= 6.15D-08
 ErrMax= 6.15D-08 EMaxC= 1.00D-01 BMatC= 2.50D-13 BMatP= 2.56D-12
 IDIUse=1 WtCom= 1.00D+00 WtEn= 0.00D+00
 Coeff-Com:  0.174D-03-0.420D-02-0.226D-02 0.123D-01 0.547D-02-0.280D-01
 Coeff-Com: -0.493D-01 0.743D-01 0.992D+00
 Coeff:      0.174D-03-0.420D-02-0.226D-02 0.123D-01 0.547D-02-0.280D-01
 Coeff:     -0.493D-01 0.743D-01 0.992D+00
 Gap=     0.386 Goal=   None    Shift=    0.000
 RMSDP=4.10D-09 MaxDP=1.37D-07 DE= 3.64D-12 OVMax= 4.65D-07

 SCF Done:  E(RHF) =  -1796.22045098     A.U. after   17 cycles
             Convg  =    0.4098D-08             -V/T =  2.0003
 KE= 1.795639009800D+03 PE=-1.030191702616D+04 EE= 3.665723042839D+03
 Leave Link  502 at Sat Aug 27 11:52:40 2022, MaxMem=  209715200 cpu:     618.2
 (Enter /opt/gaussian/l601.exe)
 Copying SCF densities to generalized density rwf, IOpCl= 0 IROHF=0.

 **********************************************************************

            Population analysis using the SCF density.

 **********************************************************************

 Orbital symmetries:
       Occupied  (A) (A) (A) (A) (A) (A) (A) (A) (A) (A) (A) (A)
                 (A) (A) (A) (A) (A) (A) (A) (A) (A) (A) (A) (A)
                 (A) (A) (A) (A) (A) (A) (A) (A) (A) (A) (A) (A)
                 (A) (A) (A) (A) (A) (A) (A) (A) (A) (A) (A) (A)
                 (A) (A) (A) (A) (A) (A) (A) (A) (A) (A) (A) (A)
                 (A) (A) (A) (A) (A) (A) (A) (A) (A) (A) (A) (A)
                 (A) (A) (A) (A) (A) (A) (A) (A) (A) (A) (A) (A)
                 (A) (A) (A) (A) (A) (A) (A) (A) (A) (A) (A) (A)
                 (A) (A) (A) (A) (A) (A) (A) (A) (A) (A) (A) (A)
                 (A) (A) (A) (A) (A) (A) (A)
       Virtual   (A) (A) (A) (A) (A) (A) (A) (A) (A) (A) (A) (A)
                 (A) (A) (A) (A) (A) (A) (A) (A) (A) (A) (A) (A)
                 (A) (A) (A) (A) (A) (A) (A) (A) (A) (A) (A) (A)
                 (A) (A) (A) (A) (A) (A) (A) (A) (A) (A) (A) (A)
                 (A) (A) (A) (A) (A) (A) (A) (A) (A) (A) (A) (A)
                 (A) (A) (A) (A) (A) (A) (A) (A) (A) (A) (A) (A)
                 (A) (A) (A) (A) (A) (A) (A) (A) (A) (A) (A) (A)
                 (A) (A) (A) (A) (A) (A) (A) (A) (A) (A) (A) (A)
                 (A) (A) (A) (A) (A) (A) (A) (A) (A) (A) (A) (A)
                 (A) (A) (A) (A) (A) (A) (A) (A) (A) (A) (A) (A)
                 (A) (A) (A) (A) (A) (A) (A) (A) (A) (A) (A) (A)
                 (A) (A) (A) (A) (A) (A) (A) (A) (A) (A) (A) (A)
                 (A) (A) (A) (A) (A) (A) (A) (A) (A) (A) (A) (A)
                 (A) (A) (A) (A) (A) (A) (A) (A) (A) (A) (A) (A)
                 (A) (A) (A) (A) (A) (A) (A) (A) (A) (A) (A) (A)
                 (A) (A) (A) (A) (A) (A) (A) (A) (A) (A) (A) (A)
                 (A) (A) (A) (A) (A) (A) (A) (A) (A) (A) (A) (A)
                 (A) (A) (A) (A) (A) (A) (A) (A) (A)
 The electronic state is 1-A.
 Alpha  occ. eigenvalues -- -104.84005 -20.55334 -15.67264 -15.66074 -15.65820
[...]
     2  C    0.000000   0.000000  -0.022337   0.003531  -0.000418  -0.017641
     3  C    0.000000   0.000000   0.371464  -0.026486   0.003081   0.002763
     4  C    0.000000   0.000000  -0.018659   0.377960  -0.021824  -0.000112
     5  C    0.000000   0.000000   0.002744  -0.022415   0.372242   0.002403
     6  C    0.000000   0.000000  -0.000193   0.002381  -0.021771  -0.026657
     7  C    0.000000   0.000000   0.003103   0.000097   0.003353   0.371733
     8  C    0.000000   0.000000   0.000001  -0.000123  -0.000766  -0.001097
     9  N    0.000000   0.000000   0.000000   0.000008  -0.002028   0.000069
    10  C    0.000000   0.000000   0.000000   0.000000   0.000299  -0.000007
    11  O    0.000000   0.000000   0.000000   0.000000   0.000045   0.000000
    12  C    0.000000   0.000000   0.000000   0.000000   0.000019   0.000016
    13  N    0.000000   0.000000   0.000000   0.000000   0.000001   0.000001
    14  N    0.000000   0.000000   0.000000   0.000000   0.000000   0.000000
    15  N    0.000000   0.000000   0.000000   0.000000   0.000000   0.000000
    16  C    0.000000   0.000000   0.000000   0.000000   0.000000   0.000000
    17  C    0.000000   0.000000   0.000000   0.000000   0.000000   0.000000
    18  C    0.000000   0.000000   0.000000   0.000000   0.000000   0.000000
    19  C    0.000000   0.000000   0.000000   0.000000   0.000000   0.000000
    20  C    0.000000   0.000000   0.000000   0.000000  -0.000002   0.000000
    21  C    0.000000   0.000000   0.000000   0.000000   0.000000   0.000000
    22  C    0.000000   0.000027   0.000000  -0.000001   0.001181  -0.000001
    23  C   -0.000001  -0.000130   0.000000   0.000000   0.000074   0.000000
    24  C   -0.000116   0.002227   0.000000   0.000000  -0.000016   0.000000
    25  C    0.012222  -0.018378   0.000000   0.000000   0.000001   0.000000
    26  C   -0.000132  -0.002347   0.000000   0.000000   0.000114   0.000000
    27  N   -0.000002   0.000050   0.000000  -0.000002   0.002328   0.000000
    28  C   -0.039386   0.433637   0.000000   0.000000   0.000000   0.000000
    29  C   -0.170789  -0.016470   0.000000   0.000000   0.000000   0.000000
    30  N    0.218621  -0.274685   0.000000   0.000000   0.000000   0.000000
    31  N    6.808059   0.466440   0.000000   0.000000   0.000000   0.000000
    32  C    0.466440   4.935738   0.000000   0.000000   0.000000   0.000000
    33  H    0.000000   0.000000   0.423342  -0.000860  -0.000075  -0.000087
    34  H    0.000000   0.000000  -0.000860   0.448096  -0.000171   0.000004
    35  H    0.000000   0.000000  -0.000075  -0.000171   0.418556  -0.000091
    36  H    0.000000   0.000000  -0.000087   0.000004  -0.000091   0.428229
    37  H    0.000000   0.000000   0.000000   0.000002  -0.000055   0.000643
    38  H    0.000000   0.000000   0.000000   0.000002   0.000028   0.000201
    39  H    0.000000   0.000000   0.000000   0.000000   0.000021   0.000042
    40  H    0.000000   0.000000   0.000000   0.000000  -0.000001   0.000009
    41  H    0.000000   0.000000   0.000000   0.000000   0.000000   0.000000
    42  H    0.000000   0.000000   0.000000   0.000000   0.000000   0.000000
    43  H    0.000000   0.000000   0.000000   0.000000   0.000000   0.000000
    44  H    0.000000   0.000000   0.000000   0.000001   0.000012   0.000000
    45  H    0.000000   0.000000   0.000000   0.000000  -0.000002   0.000000
    46  H    0.000008   0.000102   0.000000   0.000000   0.000000   0.000000
    47  H    0.000000   0.001419   0.000000   0.000000  -0.000023   0.000000
    48  H    0.001584   0.002745   0.000000   0.000000   0.000000   0.000000
    49  H   -0.028610   0.386757   0.000000   0.000000   0.000000   0.000000
    50  H   -0.024805   0.003721   0.000000   0.000000   0.000000   0.000000
             37         38         39         40         41         42
     1  Cl  -0.000006   0.000002   0.000002   0.000000   0.000000   0.000000
     2  C    0.000738  -0.000107  -0.000068  -0.000007   0.000000   0.000000
     3  C   -0.000040   0.000019  -0.000072   0.000000   0.000000   0.000000
     4  C   -0.000030  -0.000008  -0.000114   0.000001   0.000000   0.000000
     5  C    0.002185  -0.002655   0.000537   0.000044   0.000000   0.000000
     6  C   -0.079806  -0.042874   0.006249   0.000002   0.000000   0.000000
     7  C    0.003743  -0.000566   0.001856  -0.000039   0.000000   0.000000
     8  C    0.433009   0.411041  -0.003752  -0.003071   0.000000   0.000000
     9  N   -0.052493  -0.039300   0.003754   0.004176   0.000000   0.000000
    10  C   -0.003705   0.001452  -0.048391  -0.041608   0.000000   0.000000
    11  O    0.000074  -0.000053   0.001336   0.001297   0.000000   0.000000
    12  C   -0.001244   0.000248   0.398154   0.392157   0.000001   0.000000
    13  N   -0.000050  -0.000005  -0.042271  -0.037623  -0.000109  -0.000006
    14  N   -0.000025   0.000000   0.001463   0.008239  -0.000085   0.000002
    15  N    0.000000   0.000000  -0.000151   0.000013   0.001104  -0.000065
    16  C    0.000000   0.000000   0.000093  -0.000181  -0.020201   0.002812
    17  C    0.000000   0.000000  -0.000005  -0.000003   0.361685  -0.020116
    18  C    0.000000   0.000000  -0.000001   0.000000  -0.020670   0.374988
    19  C    0.000000   0.000000  -0.000021   0.000001   0.002069  -0.026374
    20  C    0.000000   0.000000  -0.000361   0.000038   0.000015   0.002636
    21  C   -0.000009   0.000000   0.001069   0.003774   0.003181   0.000364
    22  C    0.003847   0.002726  -0.000132  -0.000084   0.000000   0.000000
    23  C    0.000174   0.001227  -0.000009   0.000019   0.000000   0.000000
    24  C    0.000001  -0.000085   0.000000   0.000000   0.000000   0.000000
    25  C    0.000000   0.000076   0.000000   0.000000   0.000000   0.000000
    26  C    0.000011  -0.000224   0.000000   0.000000   0.000000   0.000000
    27  N    0.000780   0.001099   0.000009  -0.000002   0.000000   0.000000
    28  C    0.000000   0.000000   0.000000   0.000000   0.000000   0.000000
    29  C    0.000000   0.000000   0.000000   0.000000   0.000000   0.000000
    30  N    0.000000   0.000000   0.000000   0.000000   0.000000   0.000000
    31  N    0.000000   0.000000   0.000000   0.000000   0.000000   0.000000
    32  C    0.000000   0.000000   0.000000   0.000000   0.000000   0.000000
    33  H    0.000000   0.000000   0.000000   0.000000   0.000000   0.000000
    34  H    0.000002   0.000002   0.000000   0.000000   0.000000   0.000000
    35  H   -0.000055   0.000028   0.000021  -0.000001   0.000000   0.000000
    36  H    0.000643   0.000201   0.000042   0.000009   0.000000   0.000000
    37  H    0.529142  -0.022449  -0.001488   0.001725   0.000000   0.000000
    38  H   -0.022449   0.428968   0.000161   0.000036   0.000000   0.000000
    39  H   -0.001488   0.000161   0.452875  -0.015787   0.000000   0.000000
    40  H    0.001725   0.000036  -0.015787   0.434915   0.000000   0.000000
    41  H    0.000000   0.000000   0.000000   0.000000   0.432308  -0.000108
    42  H    0.000000   0.000000   0.000000   0.000000  -0.000108   0.461981
    43  H    0.000000   0.000000   0.000000   0.000000  -0.000088  -0.000282
    44  H   -0.000001   0.000000   0.000374   0.000016   0.000008  -0.000097
    45  H    0.000003   0.000001  -0.000003  -0.000010   0.000000   0.000000
    46  H    0.000000   0.000000   0.000000   0.000000   0.000000   0.000000
    47  H   -0.000001  -0.000073   0.000000   0.000000   0.000000   0.000000
    48  H    0.000000   0.000000   0.000000   0.000000   0.000000   0.000000
    49  H    0.000000   0.000000   0.000000   0.000000   0.000000   0.000000
    50  H    0.000000   0.000000   0.000000   0.000000   0.000000   0.000000
             43         44         45         46         47         48
     1  Cl   0.000000   0.000000   0.000000   0.000000   0.000000   0.000000
     2  C    0.000000  -0.000012   0.000000   0.000000   0.000000   0.000000
     3  C    0.000000   0.000003   0.000000   0.000000   0.000000   0.000000
     4  C    0.000000   0.000181   0.000000   0.000000   0.000000   0.000000
     5  C    0.000000   0.000490   0.000002   0.000000   0.000012   0.000000
     6  C    0.000000   0.000086  -0.000005   0.000000   0.000009   0.000000
     7  C    0.000000  -0.000015   0.000000   0.000000   0.000000   0.000000
     8  C    0.000000  -0.000011  -0.000038   0.000001   0.000016   0.000000
     9  N    0.000000  -0.000009  -0.002397  -0.000113   0.000036   0.000000
    10  C    0.000000   0.000066  -0.000949   0.000008   0.000002   0.000000
    11  O    0.000000   0.000274   0.008115  -0.000003   0.000000   0.000000
    12  C    0.000001   0.000081   0.000090   0.000000   0.000000   0.000000
    13  N   -0.000101  -0.003047  -0.000017   0.000000   0.000000   0.000000
    14  N    0.000001  -0.000003  -0.000001   0.000000   0.000000   0.000000
    15  N   -0.000004  -0.000100   0.000000   0.000000   0.000000   0.000000
    16  C    0.000462   0.000862   0.000000   0.000000   0.000000   0.000000
    17  C    0.002355   0.000146   0.000000   0.000000   0.000000   0.000000
    18  C   -0.024431   0.002048   0.000000   0.000000   0.000000   0.000000
    19  C    0.373897  -0.015644   0.000000   0.000000   0.000000   0.000000
    20  C   -0.022892   0.370566   0.000000   0.000000   0.000000   0.000000
    21  C    0.002823  -0.031940   0.000002   0.000000   0.000000   0.000000
    22  C    0.000000   0.000000  -0.011244   0.001724   0.004094   0.000002
    23  C    0.000000   0.000000   0.357981  -0.016569  -0.000844   0.000019
    24  C    0.000000   0.000000  -0.016752   0.374076   0.002149   0.000818
    25  C    0.000000   0.000000   0.001539  -0.032137  -0.059639   0.001344
    26  C    0.000000   0.000000   0.000084   0.002329   0.403820   0.000073
    27  N    0.000000   0.000000   0.002532   0.000080  -0.037041   0.000000
    28  C    0.000000   0.000000  -0.000083   0.000270   0.005580  -0.012010
    29  C    0.000000   0.000000  -0.000003   0.001865   0.000082   0.371276
    30  N    0.000000   0.000000   0.000000  -0.000004   0.000005  -0.032155
    31  N    0.000000   0.000000   0.000000   0.000008   0.000000   0.001584
    32  C    0.000000   0.000000   0.000000   0.000102   0.001419   0.002745
    33  H    0.000000   0.000000   0.000000   0.000000   0.000000   0.000000
    34  H    0.000000   0.000001   0.000000   0.000000   0.000000   0.000000
    35  H    0.000000   0.000012  -0.000002   0.000000  -0.000023   0.000000
    36  H    0.000000   0.000000   0.000000   0.000000   0.000000   0.000000
    37  H    0.000000  -0.000001   0.000003   0.000000  -0.000001   0.000000
    38  H    0.000000   0.000000   0.000001   0.000000  -0.000073   0.000000
    39  H    0.000000   0.000374  -0.000003   0.000000   0.000000   0.000000
    40  H    0.000000   0.000016  -0.000010   0.000000   0.000000   0.000000
    41  H   -0.000088   0.000008   0.000000   0.000000   0.000000   0.000000
    42  H   -0.000282  -0.000097   0.000000   0.000000   0.000000   0.000000
    43  H    0.463493  -0.000193   0.000000   0.000000   0.000000   0.000000
    44  H   -0.000193   0.449295   0.000000   0.000000   0.000000   0.000000
    45  H    0.000000   0.000000   0.381222  -0.000140   0.000007   0.000000
    46  H    0.000000   0.000000  -0.000140   0.443932  -0.000103   0.000646
    47  H    0.000000   0.000000   0.000007  -0.000103   0.454698   0.000002
    48  H    0.000000   0.000000   0.000000   0.000646   0.000002   0.405236
    49  H    0.000000   0.000000   0.000000   0.000000   0.000957  -0.000069
    50  H    0.000000   0.000000   0.000000   0.000002   0.000000   0.000594
             49         50
     1  Cl   0.000000   0.000000
     2  C    0.000000   0.000000
     3  C    0.000000   0.000000
     4  C    0.000000   0.000000
     5  C    0.000000   0.000000
     6  C    0.000000   0.000000
     7  C    0.000000   0.000000
     8  C    0.000000   0.000000
     9  N    0.000000   0.000000
    10  C    0.000000   0.000000
    11  O    0.000000   0.000000
    12  C    0.000000   0.000000
    13  N    0.000000   0.000000
    14  N    0.000000   0.000000
    15  N    0.000000   0.000000
    16  C    0.000000   0.000000
    17  C    0.000000   0.000000
    18  C    0.000000   0.000000
    19  C    0.000000   0.000000
    20  C    0.000000   0.000000
    21  C    0.000000   0.000000
    22  C    0.000002   0.000000
    23  C   -0.000003   0.000000
    24  C    0.000058  -0.000001
    25  C    0.002456   0.000029
    26  C    0.000958   0.000001
    27  N   -0.000023   0.000000
    28  C   -0.031536   0.003157
    29  C    0.002314  -0.022211
    30  N    0.003973   0.336970
    31  N   -0.028610  -0.024805
    32  C    0.386757   0.003721
    33  H    0.000000   0.000000
    34  H    0.000000   0.000000
    35  H    0.000000   0.000000
    36  H    0.000000   0.000000
    37  H    0.000000   0.000000
    38  H    0.000000   0.000000
    39  H    0.000000   0.000000
    40  H    0.000000   0.000000
    41  H    0.000000   0.000000
    42  H    0.000000   0.000000
    43  H    0.000000   0.000000
    44  H    0.000000   0.000000
    45  H    0.000000   0.000000
    46  H    0.000000   0.000002
    47  H    0.000957   0.000000
    48  H   -0.000069   0.000594
    49  H    0.428776  -0.000055
    50  H   -0.000055   0.292184
 Mulliken atomic charges:
              1
     1  Cl   0.097861
     2  C   -0.314670
     3  C   -0.150797
     4  C   -0.200572
     5  C   -0.169649
     6  C   -0.040834
     7  C   -0.168656
     8  C   -0.075168
     9  N   -0.988441
    10  C    0.802181
    11  O   -0.580431
    12  C   -0.131792
    13  N   -0.883669
    14  N    0.097329
    15  N   -0.334625
    16  C   -0.019416
    17  C   -0.078717
    18  C   -0.233593
    19  C   -0.205167
    20  C   -0.068151
    21  C    0.485987
    22  C    0.587071
    23  C   -0.153760
    24  C   -0.164496
    25  C   -0.025078
    26  C    0.074689
    27  N   -0.633039
    28  C   -0.300927
    29  C    0.228384
    30  N   -0.682995
    31  N   -0.243094
    32  C    0.079146
    33  H    0.240056
    34  H    0.218043
    35  H    0.245885
    36  H    0.238116
    37  H    0.185326
    38  H    0.261112
    39  H    0.244635
    40  H    0.251955
    41  H    0.240889
    42  H    0.204266
    43  H    0.204960
    44  H    0.226563
    45  H    0.280065
    46  H    0.224026
    47  H    0.224836
    48  H    0.259896
    49  H    0.234044
    50  H    0.410414
 Sum of Mulliken atomic charges =   0.00000
 Mulliken charges with hydrogens summed into heavy atoms:
              1
     1  Cl   0.097861
     2  C   -0.314670
     3  C    0.089260
     4  C    0.017471
     5  C    0.076237
     6  C   -0.040834
     7  C    0.069460
     8  C    0.371270
     9  N   -0.988441
    10  C    0.802181
    11  O   -0.580431
    12  C    0.364798
    13  N   -0.883669
    14  N    0.097329
    15  N   -0.334625
    16  C   -0.019416
    17  C    0.162172
    18  C   -0.029326
    19  C   -0.000207
    20  C    0.158412
    21  C    0.485987
    22  C    0.587071
    23  C    0.126305
    24  C    0.059529
    25  C   -0.025078
    26  C    0.299525
    27  N   -0.633039
    28  C   -0.300927
    29  C    0.488280
    30  N   -0.272581
    31  N   -0.243094
    32  C    0.313190
 Sum of Mulliken charges with hydrogens summed into heavy atoms =   0.00000
 Electronic spatial extent (au):  <R**2>=          19559.3869
 Charge=              0.0000 electrons
 Dipole moment (field-independent basis, Debye):
    X=              3.4119    Y=              0.0766    Z=              3.9591  Tot=              5.2270
 Quadrupole moment (field-independent basis, Debye-Ang):
   XX=           -199.7391   YY=           -206.5857   ZZ=           -186.3774
   XY=            -20.7049   XZ=             -8.2755   YZ=            -12.7242
 Traceless Quadrupole moment (field-independent basis, Debye-Ang):
   XX=             -2.1717   YY=             -9.0183   ZZ=             11.1900
   XY=            -20.7049   XZ=             -8.2755   YZ=            -12.7242
 Octapole moment (field-independent basis, Debye-Ang**2):
  XXX=             -5.7894  YYY=            -72.4288  ZZZ=             40.2994  XYY=            120.7161
  XXY=           -205.2637  XXZ=            151.5202  XZZ=              7.5929  YZZ=             43.4405
  YYZ=             70.1538  XYZ=             10.2215
 Hexadecapole moment (field-independent basis, Debye-Ang**3):
 XXXX=         -18704.2937 YYYY=          -8229.5789 ZZZZ=          -1486.7860 XXXY=          -1222.6844
 XXXZ=            417.2130 YYYX=             45.5974 YYYZ=            -48.6353 ZZZX=           -110.4126
 ZZZY=            -83.7848 XXYY=          -3788.9148 XXZZ=          -3158.2973 YYZZ=          -1520.6170
 XXYZ=           -567.7037 YYXZ=           -176.3150 ZZXY=           -155.3344
 N-N= 3.060382892909D+03 E-N=-1.033628920588D+04  KE= 1.797710576396D+03
 No NMR shielding tensors so no spin-rotation constants.
 Leave Link  601 at Sat Aug 27 12:46:35 2022, MaxMem=  209715200 cpu:       1.4
 (Enter /opt/gaussian/l9999.exe)
 1\1\GINC-LQCAPF-6\FOpt\RHF\6-31G\C23H18Cl1N7O1\LQCAPF-6\27-Aug-2022\0\
 \#p opt hf/6-31G\\Mol40.out\\0,1\Cl,24.8452770056,-14.2562493225,-4.31
 16177225\C,23.4972273114,-13.435140482,-3.4260360466\C,23.2578163032,-
 13.7654655893,-2.109544092\C,22.2210490043,-13.1223442206,-1.447201503
 4\C,21.4464606494,-12.1732228485,-2.0968214697\C,21.7017159559,-11.847
 4503297,-3.4252914914\C,22.7429968159,-12.4890596752,-4.0897846301\C,2
 0.8528820777,-10.846287105,-4.1869278982\N,20.3473095812,-9.7184933511
 ,-3.3854638913\C,21.1799339943,-8.7053769802,-2.9742161427\O,20.828458
 2987,-7.8225769365,-2.2060106826\C,22.6021350013,-8.7149486056,-3.5206
 598527\N,23.3489687022,-7.577904308,-3.0820843925\N,23.4804096907,-6.4
 985820986,-3.9047381411\N,24.1333979712,-5.5898994365,-3.3092134269\C,
 24.4601117106,-6.0322876418,-2.036849478\C,25.1686940552,-5.4070260397
 ,-1.0117680537\C,25.3381364581,-6.1105721368,0.1554593619\C,24.8098451
 504,-7.4125182002,0.3043079863\C,24.108330986,-8.035171935,-0.70039831
 15\C,23.9451997737,-7.3133702237,-1.8855294953\C,18.9751218829,-9.7508
 609715,-3.0101540446\C,18.2176447196,-8.6102363009,-2.7424225135\C,16.
 8815790607,-8.7738303282,-2.4377971036\C,16.3013565308,-10.0435760243,
 -2.3876527836\C,17.1404055855,-11.1097008445,-2.6729983723\N,18.427520
 9923,-10.9547336163,-2.9742723416\C,14.8879432502,-10.2486595301,-2.05
 65592533\C,14.1103840496,-9.5331248045,-1.1816218409\N,12.8792291175,-
 10.0870186109,-1.2066747984\N,12.8093589787,-11.1327162841,-2.05628022
 45\C,14.0099490227,-11.2424171468,-2.5734230745\H,23.8595264832,-14.50
 00422203,-1.6154104898\H,22.0153738115,-13.3690954591,-0.4239847045\H,
 20.636652394,-11.7000186477,-1.5814329294\H,22.9650401471,-12.25686954
 51,-5.1129396205\H,21.4118541101,-10.4614337751,-5.0290626541\H,19.989
 42523,-11.3525076445,-4.5825385852\H,23.112900629,-9.6206494134,-3.226
 7255594\H,22.5821652844,-8.6768038396,-4.5997175326\H,25.558495173,-4.
 4180252141,-1.1442116773\H,25.875438082,-5.6719088753,0.9728566369\H,2
 4.959378797,-7.9260409054,1.2342615563\H,23.6999717492,-9.0174533852,-
 0.5716637324\H,18.6564515869,-7.6400693476,-2.7615339912\H,16.27962562
 9,-7.9045848811,-2.2575913677\H,16.7846881259,-12.1193832122,-2.647737
 3043\H,14.3496490309,-8.707205754,-0.5516695992\H,14.2189353362,-11.99
 5006279,-3.2984183575\H,12.0757787133,-9.8235796727,-0.6953343632\\Ver
 sion=EM64L-G09RevC.01\State=1-A\HF=-1796.2838374\RMSD=8.317e-09\RMSF=1
 .175e-05\Dipole=-1.2245265,-0.6508203,1.5185358\Quadrupole=3.6981904,-
 15.6757418,11.9775514,-13.943647,1.3452293,5.0031895\PG=C01 [X(C23H18C
 l1N7O1)]\\@


 YOU CAN LEAD A BOY TO COLLEGE....
 BUT YOU CANNOT MAKE HIM THINK....
           ELBERT HUBBARD
 Job cpu time:  0 days  7 hours 19 minutes  7.9 seconds.
 File lengths (MBytes):  RWF=     73 Int=      0 D2E=      0 Chk=     10 Scr=      1
 Normal termination of Gaussian 09 at Sat Aug 27 12:46:35 2022.
