 Entering Gaussian System, Link 0=g09
 Input=Mol01.gjf
 Output=Mol01.log
 Initial command:
 /opt/gaussian/l1.exe /home/scr/lqcapf-6/Gau-540359.inp -scrdir=/home/scr/lqcapf-6/
 Entering Link 1 = /opt/gaussian/l1.exe PID=    540361.
  
 Copyright (c) 1988,1990,1992,1993,1995,1998,2003,2009,2011,
            Gaussian, Inc.  All Rights Reserved.
  
 This is part of the Gaussian(R) 09 program.  It is based on
 the Gaussian(R) 03 system (copyright 2003, Gaussian, Inc.),
 the Gaussian(R) 98 system (copyright 1998, Gaussian, Inc.),
 the Gaussian(R) 94 system (copyright 1995, Gaussian, Inc.),
 the Gaussian 92(TM) system (copyright 1992, Gaussian, Inc.),
 the Gaussian 90(TM) system (copyright 1990, Gaussian, Inc.),
 the Gaussian 88(TM) system (copyright 1988, Gaussian, Inc.),
 the Gaussian 86(TM) system (copyright 1986, Carnegie Mellon
 University), and the Gaussian 82(TM) system (copyright 1983,
 Carnegie Mellon University). Gaussian is a federally registered
 trademark of Gaussian, Inc.
  
 This software contains proprietary and confidential information,
 including trade secrets, belonging to Gaussian, Inc.
  
 This software is provided under written license and may be
 used, copied, transmitted, or stored only in accord with that
 written license.
  
 The following legend is applicable only to US Government
 contracts under FAR:
  
                    RESTRICTED RIGHTS LEGEND
  
 Use, reproduction and disclosure by the US Government is
 subject to restrictions as set forth in subparagraphs (a)
 and (c) of the Commercial Computer Software - Restricted
 Rights clause in FAR 52.227-19.
  
 Gaussian, Inc.
 340 Quinnipiac St., Bldg. 40, Wallingford CT 06492
  
  
 ---------------------------------------------------------------
 Warning -- This program may not be used in any manner that
 competes with the business of Gaussian, Inc. or will provide
 assistance to any competitor of Gaussian, Inc.  The licensee
 of this program is prohibited from giving any competitor of
 Gaussian, Inc. access to this program.  By using this program,
 the user acknowledges that Gaussian, Inc. is engaged in the
 business of creating and licensing software in the field of
 computational chemistry and represents and warrants to the
 licensee that it is not a competitor of Gaussian, Inc. and that
 it will not use this program in any manner prohibited above.
 ---------------------------------------------------------------
  

 Cite this work as:
 Gaussian 09, Revision C.01,
 M. J. Frisch, G. W. Trucks, H. B. Schlegel, G. E. Scuseria, 
 M. A. Robb, J. R. Cheeseman, G. Scalmani, V. Barone, B. Mennucci, 
 G. A. Petersson, H. Nakatsuji, M. Caricato, X. Li, H. P. Hratchian, 
 A. F. Izmaylov, J. Bloino, G. Zheng, J. L. Sonnenberg, M. Hada, 
 M. Ehara, K. Toyota, R. Fukuda, J. Hasegawa, M. Ishida, T. Nakajima, 
 Y. Honda, O. Kitao, H. Nakai, T. Vreven, J. A. Montgomery, Jr., 
 J. E. Peralta, F. Ogliaro, M. Bearpark, J. J. Heyd, E. Brothers, 
 K. N. Kudin, V. N. Staroverov, T. Keith, R. Kobayashi, J. Normand, 
 K. Raghavachari, A. Rendell, J. C. Burant, S. S. Iyengar, J. Tomasi, 
 M. Cossi, N. Rega, J. M. Millam, M. Klene, J. E. Knox, J. B. Cross, 
 V. Bakken, C. Adamo, J. Jaramillo, R. Gomperts, R. E. Stratmann, 
 O. Yazyev, A. J. Austin, R. Cammi, C. Pomelli, J. W. Ochterski, 
 R. L. Martin, K. Morokuma, V. G. Zakrzewski, G. A. Voth, 
 P. Salvador, J. J. Dannenberg, S. Dapprich, A. D. Daniels, 
 O. Farkas, J. B. Foresman, J. V. Ortiz, J. Cioslowski, 
 and D. J. Fox, Gaussian, Inc., Wallingford CT, 2010.
 
 ******************************************
 Gaussian 09:  EM64L-G09RevC.01 23-Sep-2011
                10-Sep-2022 
 ******************************************
 %nprocshared=8
 Will use up to    8 processors via shared memory.
 %mem=1600MB
 ---------------------------------------
 #p b3lyp/cc-pvdz pop=(chelpg,readradii)
 ---------------------------------------
 1/38=1/1;
 2/12=2,17=6,18=5,40=1/2;
 3/5=16,11=2,16=1,25=1,30=1,74=-5/1,2,3;
 4//1;
 5/5=2,38=5/2;
 6/7=2,8=2,9=2,10=2,15=8,20=103,28=1/1,2;
 99/5=1,9=1/99;
 Leave Link    1 at Sat Sep 10 06:52:47 2022, MaxMem=  209715200 cpu:       0.2
 (Enter /opt/gaussian/l101.exe)
 ---------
 Mol01.log
 ---------
 Charge =  0 Multiplicity = 1
 Symbolic Z-Matrix:
 O                     1.20835  -1.48886  -0.17729 
 C                     1.34402  -0.41357  -0.73171 
 C                     2.72133   0.03605  -1.26178 
 N                     3.73595  -0.96305  -1.04499 
 N                     4.23219  -1.65488  -2.11625 
 N                     5.12582  -2.49062  -1.71296 
 C                     5.2443   -2.37398  -0.34125 
 C                     6.08003  -3.04643   0.56767 
 C                     5.97982  -2.6977    1.90726 
 C                     5.06755  -1.7034    2.3442 
 C                     4.23144  -1.0321    1.46093 
 C                     4.33963  -1.38727   0.1063 
 N                     0.30243   0.479    -0.9319 
 C                     0.51512   1.80683  -1.52092 
 C                     1.03191   2.85865  -0.55861 
 C                     1.58648   4.10694  -1.00198 
 C                     1.95565   4.92788   0.02974 
 S                     1.63642   4.1966    1.57218 
 C                     0.99802   2.77051   0.81149 
 C                    -1.02847   0.11897  -0.51662 
 C                    -2.09575   0.22299  -1.41661 
 C                    -3.40316  -0.08921  -1.04163 
 C                    -3.6604   -0.5436    0.26284 
 C                    -2.58567  -0.67129   1.16085 
 C                    -1.28804  -0.34386   0.78045 
 N                    -4.94419  -0.89007   0.72635 
 C                    -6.15216  -0.83042   0.06098 
 O                    -6.27567  -0.44627  -1.09605 
 C                    -7.32347  -1.27981   0.88089 
 C                    -8.45423  -1.97627   0.13738 
 C                    -8.64903  -0.57625   0.62577 
 H                     2.68483   0.19154  -2.34916 
 H                     3.01808   0.9875   -0.79193 
 H                     6.77612  -3.80999   0.21732 
 H                     6.61102  -3.19663   2.64547 
 H                     5.01859  -1.46332   3.40873 
 H                     3.52247  -0.27944   1.80718 
 H                     1.19327   1.73362  -2.38479 
 H                    -0.44815   2.14074  -1.93175 
 H                     1.70644   4.37703  -2.05254 
 H                     2.40515   5.91731  -0.02455 
 H                     0.61844   1.9531    1.41935 
 H                    -1.91086   0.54498  -2.44365 
 H                    -4.22452   0.00083  -1.74705 
 H                    -2.7678   -1.03352   2.17678 
 H                    -0.47052  -0.47059   1.48853 
 H                    -4.97891  -1.22499   1.68176 
 H                    -7.12068  -1.60888   1.90355 
 H                    -8.29641  -2.11442  -0.93389 
 H                    -8.96101  -2.79239   0.65644 
 H                    -9.29354  -0.40274   1.48994 
 H                    -8.62094   0.22094  -0.11937 
 
 NAtoms=     52 NQM=        0 NQMF=       0 NMMI=     52 NMMIF=      0
                NMic=       0 NMicF=      0.
                    Isotopes and Nuclear Properties:
 (Nuclear quadrupole moments (NQMom) in fm**2, nuclear magnetic moments (NMagM)
  in nuclear magnetons)

  Atom         1           2           3           4           5           6           7           8           9          10
 IAtWgt=          16          12          12          14          14          14          12          12          12          12
 AtmWgt=  15.9949146  12.0000000  12.0000000  14.0030740  14.0030740  14.0030740  12.0000000  12.0000000  12.0000000  12.0000000
 NucSpn=           0           0           0           2           2           2           0           0           0           0
 AtZEff=   0.0000000   0.0000000   0.0000000   0.0000000   0.0000000   0.0000000   0.0000000   0.0000000   0.0000000   0.0000000
 NQMom=    0.0000000   0.0000000   0.0000000   2.0440000   2.0440000   2.0440000   0.0000000   0.0000000   0.0000000   0.0000000
 NMagM=    0.0000000   0.0000000   0.0000000   0.4037610   0.4037610   0.4037610   0.0000000   0.0000000   0.0000000   0.0000000

  Atom        11          12          13          14          15          16          17          18          19          20
 IAtWgt=          12          12          14          12          12          12          12          32          12          12
 AtmWgt=  12.0000000  12.0000000  14.0030740  12.0000000  12.0000000  12.0000000  12.0000000  31.9720718  12.0000000  12.0000000
 NucSpn=           0           0           2           0           0           0           0           0           0           0
 AtZEff=   0.0000000   0.0000000   0.0000000   0.0000000   0.0000000   0.0000000   0.0000000   0.0000000   0.0000000   0.0000000
 NQMom=    0.0000000   0.0000000   2.0440000   0.0000000   0.0000000   0.0000000   0.0000000   0.0000000   0.0000000   0.0000000
 NMagM=    0.0000000   0.0000000   0.4037610   0.0000000   0.0000000   0.0000000   0.0000000   0.0000000   0.0000000   0.0000000

  Atom        21          22          23          24          25          26          27          28          29          30
 IAtWgt=          12          12          12          12          12          14          12          16          12          12
 AtmWgt=  12.0000000  12.0000000  12.0000000  12.0000000  12.0000000  14.0030740  12.0000000  15.9949146  12.0000000  12.0000000
 NucSpn=           0           0           0           0           0           2           0           0           0           0
 AtZEff=   0.0000000   0.0000000   0.0000000   0.0000000   0.0000000   0.0000000   0.0000000   0.0000000   0.0000000   0.0000000
 NQMom=    0.0000000   0.0000000   0.0000000   0.0000000   0.0000000   2.0440000   0.0000000   0.0000000   0.0000000   0.0000000
 NMagM=    0.0000000   0.0000000   0.0000000   0.0000000   0.0000000   0.4037610   0.0000000   0.0000000   0.0000000   0.0000000

  Atom        31          32          33          34          35          36          37          38          39          40
 IAtWgt=          12           1           1           1           1           1           1           1           1           1
 AtmWgt=  12.0000000   1.0078250   1.0078250   1.0078250   1.0078250   1.0078250   1.0078250   1.0078250   1.0078250   1.0078250
 NucSpn=           0           1           1           1           1           1           1           1           1           1
 AtZEff=   0.0000000   0.0000000   0.0000000   0.0000000   0.0000000   0.0000000   0.0000000   0.0000000   0.0000000   0.0000000
 NQMom=    0.0000000   0.0000000   0.0000000   0.0000000   0.0000000   0.0000000   0.0000000   0.0000000   0.0000000   0.0000000
 NMagM=    0.0000000   2.7928460   2.7928460   2.7928460   2.7928460   2.7928460   2.7928460   2.7928460   2.7928460   2.7928460

  Atom        41          42          43          44          45          46          47          48          49          50
 IAtWgt=           1           1           1           1           1           1           1           1           1           1
 AtmWgt=   1.0078250   1.0078250   1.0078250   1.0078250   1.0078250   1.0078250   1.0078250   1.0078250   1.0078250   1.0078250
 NucSpn=           1           1           1           1           1           1           1           1           1           1
 AtZEff=   0.0000000   0.0000000   0.0000000   0.0000000   0.0000000   0.0000000   0.0000000   0.0000000   0.0000000   0.0000000
 NQMom=    0.0000000   0.0000000   0.0000000   0.0000000   0.0000000   0.0000000   0.0000000   0.0000000   0.0000000   0.0000000
 NMagM=    2.7928460   2.7928460   2.7928460   2.7928460   2.7928460   2.7928460   2.7928460   2.7928460   2.7928460   2.7928460

  Atom        51          52
 IAtWgt=           1           1
 AtmWgt=   1.0078250   1.0078250
 NucSpn=           1           1
 AtZEff=   0.0000000   0.0000000
 NQMom=    0.0000000   0.0000000
 NMagM=    2.7928460   2.7928460
 Leave Link  101 at Sat Sep 10 06:52:47 2022, MaxMem=  209715200 cpu:       0.7
 (Enter /opt/gaussian/l202.exe)
 Stoichiometry    C23H21N5O2S
 Framework group  C1[X(C23H21N5O2S)]
 Deg. of freedom   150
 Full point group                 C1      NOp   1
 Largest Abelian subgroup         C1      NOp   1
 Largest concise Abelian subgroup C1      NOp   1
                         Standard orientation:                         
 ---------------------------------------------------------------------
 Center     Atomic      Atomic             Coordinates (Angstroms)
 Number     Number       Type             X           Y           Z
 ---------------------------------------------------------------------
      1          8           0        1.208349   -1.488859   -0.177291
      2          6           0        1.344019   -0.413569   -0.731711
      3          6           0        2.721329    0.036051   -1.261781
      4          7           0        3.735949   -0.963049   -1.044991
      5          7           0        4.232189   -1.654879   -2.116251
      6          7           0        5.125819   -2.490619   -1.712961
      7          6           0        5.244299   -2.373979   -0.341251
      8          6           0        6.080029   -3.046429    0.567669
      9          6           0        5.979819   -2.697699    1.907259
     10          6           0        5.067549   -1.703399    2.344199
     11          6           0        4.231439   -1.032099    1.460929
     12          6           0        4.339629   -1.387269    0.106299
     13          7           0        0.302429    0.479001   -0.931901
     14          6           0        0.515119    1.806831   -1.520921
     15          6           0        1.031909    2.858651   -0.558611
     16          6           0        1.586479    4.106941   -1.001981
     17          6           0        1.955649    4.927881    0.029739
     18         16           0        1.636419    4.196601    1.572179
     19          6           0        0.998019    2.770511    0.811489
     20          6           0       -1.028471    0.118971   -0.516621
     21          6           0       -2.095751    0.222991   -1.416611
     22          6           0       -3.403161   -0.089209   -1.041631
     23          6           0       -3.660401   -0.543599    0.262839
     24          6           0       -2.585671   -0.671289    1.160849
     25          6           0       -1.288041   -0.343859    0.780449
     26          7           0       -4.944191   -0.890069    0.726349
     27          6           0       -6.152161   -0.830419    0.060979
     28          8           0       -6.275671   -0.446269   -1.096051
     29          6           0       -7.323471   -1.279809    0.880889
     30          6           0       -8.454231   -1.976269    0.137379
     31          6           0       -8.649031   -0.576249    0.625769
     32          1           0        2.684829    0.191541   -2.349161
     33          1           0        3.018079    0.987501   -0.791931
     34          1           0        6.776119   -3.809989    0.217319
     35          1           0        6.611019   -3.196629    2.645469
     36          1           0        5.018589   -1.463319    3.408729
     37          1           0        3.522469   -0.279439    1.807179
     38          1           0        1.193269    1.733621   -2.384791
     39          1           0       -0.448151    2.140741   -1.931751
     40          1           0        1.706439    4.377031   -2.052541
     41          1           0        2.405149    5.917311   -0.024551
     42          1           0        0.618439    1.953101    1.419349
     43          1           0       -1.910861    0.544981   -2.443651
     44          1           0       -4.224521    0.000831   -1.747051
     45          1           0       -2.767801   -1.033519    2.176779
     46          1           0       -0.470521   -0.470589    1.488529
     47          1           0       -4.978911   -1.224989    1.681759
     48          1           0       -7.120681   -1.608879    1.903549
     49          1           0       -8.296411   -2.114419   -0.933891
     50          1           0       -8.961011   -2.792389    0.656439
     51          1           0       -9.293541   -0.402739    1.489939
     52          1           0       -8.620941    0.220941   -0.119371
 ---------------------------------------------------------------------
 Rotational constants (GHZ):      0.1926782      0.0590624      0.0506710
 Leave Link  202 at Sat Sep 10 06:52:47 2022, MaxMem=  209715200 cpu:       0.0
 (Enter /opt/gaussian/l301.exe)
 Standard basis: CC-pVDZ (5D, 7F)
 Ernie: Thresh=  0.10000D-02 Tol=  0.10000D-05 Strict=F.
 Ernie:  70 primitive shells out of 815 were deleted.
 There are   543 symmetry adapted basis functions of A   symmetry.
 Integral buffers will be    131072 words long.
 Raffenetti 2 integral format.
 Two-electron integral symmetry is turned on.
   543 basis functions,  1208 primitive gaussians,   574 cartesian basis functions
   113 alpha electrons      113 beta electrons
       nuclear repulsion energy      2936.5103189450 Hartrees.
 IExCor=  402 DFT=T Ex+Corr=B3LYP ExCW=0 ScaHFX=  0.200000
 ScaDFX=  0.800000  0.720000  1.000000  0.810000 ScalE2=  1.000000  1.000000
 IRadAn=      0 IRanWt=     -1 IRanGd=            0 ICorTp=0
 NAtoms=   52 NActive=   52 NUniq=   52 SFac= 1.00D+00 NAtFMM=   60 NAOKFM=F Big=F
 Leave Link  301 at Sat Sep 10 06:52:47 2022, MaxMem=  209715200 cpu:       0.3
 (Enter /opt/gaussian/l302.exe)
 NPDir=0 NMtPBC=     1 NCelOv=     1 NCel=       1 NClECP=     1 NCelD=      1
         NCelK=      1 NCelE2=     1 NClLst=     1 CellRange=     0.0.
 One-electron integrals computed using PRISM.
 NBasis=   543 RedAO= T  NBF=   543
 NBsUse=   543 1.00D-06 NBFU=   543
 Precomputing XC quadrature grid using
 IXCGrd= 2 IRadAn=           0 IRanWt=          -1 IRanGd=           0 AccXCQ= 0.00D+00.
 NRdTot=    3367 NPtTot=      430784 NUsed=      455042 NTot=      455074
 NSgBfM=   555   555   555   556   556 NAtAll=    52    52.
 Leave Link  302 at Sat Sep 10 06:52:48 2022, MaxMem=  209715200 cpu:       8.2
 (Enter /opt/gaussian/l303.exe)
 DipDrv:  MaxL=1.
 Leave Link  303 at Sat Sep 10 06:52:48 2022, MaxMem=  209715200 cpu:       1.1
 (Enter /opt/gaussian/l401.exe)
 Harris functional with IExCor=  402 diagonalized for initial guess.
 ExpMin= 1.22D-01 ExpMax= 1.11D+05 ExpMxC= 1.07D+03 IAcc=2 IRadAn=         4 AccDes= 0.00D+00
 HarFok:  IExCor=  402 AccDes= 0.00D+00 IRadAn=         4 IDoV= 1
 ScaDFX=  1.000000  1.000000  1.000000  1.000000
 FoFCou: FMM=F IPFlag=           0 FMFlag=      100000 FMFlg1=           0
         NFxFlg=           0 DoJE=T BraDBF=F KetDBF=T FulRan=T
         Omega=  0.000000  0.000000  1.000000  0.000000  0.000000 ICntrl=     500 IOpCl=  0
         NMat0=    1 NMatS0=    1 NMatT0=    0 NMatD0=    1 NMtDS0=    0 NMtDT0=    0
         I1Cent=           4 NGrid=           0.
 Petite list used in FoFCou.
 Harris En= -1711.33958457098    
 Initial guess orbital symmetries:
       Occupied  (A) (A) (A) (A) (A) (A) (A) (A) (A) (A) (A) (A)
                 (A) (A) (A) (A) (A) (A) (A) (A) (A) (A) (A) (A)
                 (A) (A) (A) (A) (A) (A) (A) (A) (A) (A) (A) (A)
                 (A) (A) (A) (A) (A) (A) (A) (A) (A) (A) (A) (A)
                 (A) (A) (A) (A) (A) (A) (A) (A) (A) (A) (A) (A)
                 (A) (A) (A) (A) (A) (A) (A) (A) (A) (A) (A) (A)
                 (A) (A) (A) (A) (A) (A) (A) (A) (A) (A) (A) (A)
                 (A) (A) (A) (A) (A) (A) (A) (A) (A) (A) (A) (A)
                 (A) (A) (A) (A) (A) (A) (A) (A) (A) (A) (A) (A)
                 (A) (A) (A) (A) (A)
       Virtual   (A) (A) (A) (A) (A) (A) (A) (A) (A) (A) (A) (A)
                 (A) (A) (A) (A) (A) (A) (A) (A) (A) (A) (A) (A)
                 (A) (A) (A) (A) (A) (A) (A) (A) (A) (A) (A) (A)
                 (A) (A) (A) (A) (A) (A) (A) (A) (A) (A) (A) (A)
                 (A) (A) (A) (A) (A) (A) (A) (A) (A) (A) (A) (A)
                 (A) (A) (A) (A) (A) (A) (A) (A) (A) (A) (A) (A)
                 (A) (A) (A) (A) (A) (A) (A) (A) (A) (A) (A) (A)
                 (A) (A) (A) (A) (A) (A) (A) (A) (A) (A) (A) (A)
                 (A) (A) (A) (A) (A) (A) (A) (A) (A) (A) (A) (A)
                 (A) (A) (A) (A) (A) (A) (A) (A) (A) (A) (A) (A)
                 (A) (A) (A) (A) (A) (A) (A) (A) (A) (A) (A) (A)
                 (A) (A) (A) (A) (A) (A) (A) (A) (A) (A) (A) (A)
                 (A) (A) (A) (A) (A) (A) (A) (A) (A) (A) (A) (A)
                 (A) (A) (A) (A) (A) (A) (A) (A) (A) (A) (A) (A)
                 (A) (A) (A) (A) (A) (A) (A) (A) (A) (A) (A) (A)
                 (A) (A) (A) (A) (A) (A) (A) (A) (A) (A) (A) (A)
                 (A) (A) (A) (A) (A) (A) (A) (A) (A) (A) (A) (A)
                 (A) (A) (A) (A) (A) (A) (A) (A) (A) (A) (A) (A)
                 (A) (A) (A) (A) (A) (A) (A) (A) (A) (A) (A) (A)
                 (A) (A) (A) (A) (A) (A) (A) (A) (A) (A) (A) (A)
                 (A) (A) (A) (A) (A) (A) (A) (A) (A) (A) (A) (A)
                 (A) (A) (A) (A) (A) (A) (A) (A) (A) (A) (A) (A)
                 (A) (A) (A) (A) (A) (A) (A) (A) (A) (A) (A) (A)
                 (A) (A) (A) (A) (A) (A) (A) (A) (A) (A) (A) (A)
                 (A) (A) (A) (A) (A) (A) (A) (A) (A) (A) (A) (A)
                 (A) (A) (A) (A) (A) (A) (A) (A) (A) (A) (A) (A)
                 (A) (A) (A) (A) (A) (A) (A) (A) (A) (A) (A) (A)
                 (A) (A) (A) (A) (A) (A) (A) (A) (A) (A) (A) (A)
                 (A) (A) (A) (A) (A) (A) (A) (A) (A) (A) (A) (A)
                 (A) (A) (A) (A) (A) (A) (A) (A) (A) (A) (A) (A)
                 (A) (A) (A) (A) (A) (A) (A) (A) (A) (A) (A) (A)
                 (A) (A) (A) (A) (A) (A) (A) (A) (A) (A) (A) (A)
                 (A) (A) (A) (A) (A) (A) (A) (A) (A) (A) (A) (A)
                 (A) (A) (A) (A) (A) (A) (A) (A) (A) (A) (A) (A)
                 (A) (A) (A) (A) (A) (A) (A) (A) (A) (A) (A) (A)
                 (A) (A) (A) (A) (A) (A) (A) (A) (A) (A)
 The electronic state of the initial guess is 1-A.
 Leave Link  401 at Sat Sep 10 06:52:52 2022, MaxMem=  209715200 cpu:      25.3
 (Enter /opt/gaussian/l502.exe)
 Closed shell SCF:
 Requested convergence on RMS density matrix=1.00D-08 within 128 cycles.
 Requested convergence on MAX density matrix=1.00D-06.
 Requested convergence on             energy=1.00D-06.
 No special actions if energy rises.
 Using DIIS extrapolation, IDIIS=  1040.
 Integral symmetry usage will be decided dynamically.
       454561 words used for storage of precomputed grid.
 IEnd=     1470069 IEndB=     1470069 NGot=   209715200 MDV=   208591822
 LenX=   208591822 LenY=   208261772
 Fock matrices will be formed incrementally for  20 cycles.
 Integral accuracy reduced to 1.0D-05 until final iterations.

 Cycle   1  Pass 0  IDiag  1:
 FoFCou: FMM=F IPFlag=           0 FMFlag=      100000 FMFlg1=           0
         NFxFlg=           0 DoJE=F BraDBF=F KetDBF=F FulRan=T
         Omega=  0.000000  0.000000  1.000000  0.000000  0.000000 ICntrl=       0 IOpCl=  0
         NMat0=    1 NMatS0=    1 NMatT0=    0 NMatD0=    1 NMtDS0=    0 NMtDT0=    0
         I1Cent=           0 NGrid=           0.
 Symmetry not used in FoFCou.
 E= -1710.81054430671    
 DIIS: error= 2.61D-02 at cycle   1 NSaved=   1.
 NSaved= 1 IEnMin= 1 EnMin= -1710.81054430671     IErMin= 1 ErrMin= 2.61D-02
 ErrMax= 2.61D-02 EMaxC= 1.00D-01 BMatC= 6.88D-01 BMatP= 6.88D-01
 IDIUse=3 WtCom= 7.39D-01 WtEn= 2.61D-01
 Coeff-Com:  0.100D+01
 Coeff-En:   0.100D+01
 Coeff:      0.100D+01
 Gap=     0.305 Goal=   None    Shift=    0.000
 GapD=    0.305 DampG=1.000 DampE=0.500 DampFc=0.5000 IDamp=-1.
 Damping current iteration by 5.00D-01
 RMSDP=4.32D-03 MaxDP=2.02D-01              OVMax= 3.13D-01

 Cycle   2  Pass 0  IDiag  1:
 RMSU=  1.52D-03    CP:  9.82D-01
 E= -1710.96890572630     Delta-E=       -0.158361419592 Rises=F Damp=T
 DIIS: error= 1.13D-02 at cycle   2 NSaved=   2.
 NSaved= 2 IEnMin= 2 EnMin= -1710.96890572630     IErMin= 2 ErrMin= 1.13D-02
 ErrMax= 1.13D-02 EMaxC= 1.00D-01 BMatC= 1.40D-01 BMatP= 6.88D-01
 IDIUse=3 WtCom= 8.87D-01 WtEn= 1.13D-01
 Coeff-Com:  0.261D+00 0.739D+00
 Coeff-En:   0.389D+00 0.611D+00
 Coeff:      0.275D+00 0.725D+00
 Gap=     0.292 Goal=   None    Shift=    0.000
 RMSDP=1.39D-03 MaxDP=6.22D-02 DE=-1.58D-01 OVMax= 2.99D-01

 Cycle   3  Pass 0  IDiag  1:
 RMSU=  8.72D-04    CP:  9.71D-01  7.15D-01
 E= -1711.45467195970     Delta-E=       -0.485766233401 Rises=F Damp=F
 DIIS: error= 1.09D-02 at cycle   3 NSaved=   3.
 NSaved= 3 IEnMin= 3 EnMin= -1711.45467195970     IErMin= 3 ErrMin= 1.09D-02
 ErrMax= 1.09D-02 EMaxC= 1.00D-01 BMatC= 9.07D-02 BMatP= 1.40D-01
 IDIUse=3 WtCom= 8.91D-01 WtEn= 1.09D-01
 Coeff-Com:  0.975D-01 0.440D+00 0.462D+00
 Coeff-En:   0.000D+00 0.000D+00 0.100D+01
 Coeff:      0.869D-01 0.392D+00 0.521D+00
 Gap=     0.191 Goal=   None    Shift=    0.000
 RMSDP=7.21D-04 MaxDP=4.52D-02 DE=-4.86D-01 OVMax= 8.35D-02

 Cycle   4  Pass 0  IDiag  1:
 RMSU=  3.84D-04    CP:  9.75D-01  7.92D-01  6.43D-01
 E= -1711.52069245685     Delta-E=       -0.066020497149 Rises=F Damp=F
 DIIS: error= 4.66D-03 at cycle   4 NSaved=   4.
 NSaved= 4 IEnMin= 4 EnMin= -1711.52069245685     IErMin= 4 ErrMin= 4.66D-03
 ErrMax= 4.66D-03 EMaxC= 1.00D-01 BMatC= 2.00D-02 BMatP= 9.07D-02
 IDIUse=3 WtCom= 9.53D-01 WtEn= 4.66D-02
 Coeff-Com:  0.248D-01 0.114D+00 0.328D+00 0.534D+00
 Coeff-En:   0.000D+00 0.000D+00 0.204D+00 0.796D+00
 Coeff:      0.236D-01 0.109D+00 0.322D+00 0.546D+00
 Gap=     0.181 Goal=   None    Shift=    0.000
 RMSDP=3.18D-04 MaxDP=1.91D-02 DE=-6.60D-02 OVMax= 3.87D-02

 Cycle   5  Pass 0  IDiag  1:
 RMSU=  1.34D-04    CP:  9.74D-01  7.67D-01  7.14D-01  5.71D-01
 E= -1711.53642517996     Delta-E=       -0.015732723104 Rises=F Damp=F
 DIIS: error= 2.62D-03 at cycle   5 NSaved=   5.
 NSaved= 5 IEnMin= 5 EnMin= -1711.53642517996     IErMin= 5 ErrMin= 2.62D-03
 ErrMax= 2.62D-03 EMaxC= 1.00D-01 BMatC= 2.11D-03 BMatP= 2.00D-02
 IDIUse=3 WtCom= 9.74D-01 WtEn= 2.62D-02
 Coeff-Com:  0.593D-02 0.217D-01 0.152D+00 0.350D+00 0.470D+00
 Coeff-En:   0.000D+00 0.000D+00 0.000D+00 0.764D-01 0.924D+00
 Coeff:      0.577D-02 0.211D-01 0.148D+00 0.343D+00 0.482D+00
 Gap=     0.182 Goal=   None    Shift=    0.000
 RMSDP=1.19D-04 MaxDP=6.77D-03 DE=-1.57D-02 OVMax= 1.78D-02

 Cycle   6  Pass 0  IDiag  1:
 RMSU=  3.58D-05    CP:  9.73D-01  7.65D-01  7.29D-01  6.59D-01  5.04D-01
 E= -1711.53850850799     Delta-E=       -0.002083328038 Rises=F Damp=F
 DIIS: error= 7.25D-04 at cycle   6 NSaved=   6.
 NSaved= 6 IEnMin= 6 EnMin= -1711.53850850799     IErMin= 6 ErrMin= 7.25D-04
 ErrMax= 7.25D-04 EMaxC= 1.00D-01 BMatC= 2.31D-04 BMatP= 2.11D-03
 IDIUse=3 WtCom= 9.93D-01 WtEn= 7.25D-03
 Coeff-Com:  0.664D-03-0.314D-02 0.488D-01 0.141D+00 0.298D+00 0.515D+00
 Coeff-En:   0.000D+00 0.000D+00 0.000D+00 0.000D+00 0.674D-01 0.933D+00
 Coeff:      0.659D-03-0.312D-02 0.485D-01 0.140D+00 0.296D+00 0.518D+00
 Gap=     0.182 Goal=   None    Shift=    0.000
 RMSDP=3.32D-05 MaxDP=2.04D-03 DE=-2.08D-03 OVMax= 4.11D-03

 Cycle   7  Pass 0  IDiag  1:
 RMSU=  1.50D-05    CP:  9.73D-01  7.66D-01  7.30D-01  6.52D-01  5.70D-01
                    CP:  5.70D-01
 E= -1711.53872027145     Delta-E=       -0.000211763450 Rises=F Damp=F
 DIIS: error= 2.37D-04 at cycle   7 NSaved=   7.
 NSaved= 7 IEnMin= 7 EnMin= -1711.53872027145     IErMin= 7 ErrMin= 2.37D-04
 ErrMax= 2.37D-04 EMaxC= 1.00D-01 BMatC= 2.76D-05 BMatP= 2.31D-04
 IDIUse=3 WtCom= 9.98D-01 WtEn= 2.37D-03
 Coeff-Com:  0.224D-04-0.395D-02 0.146D-01 0.490D-01 0.131D+00 0.323D+00
 Coeff-Com:  0.485D+00
 Coeff-En:   0.000D+00 0.000D+00 0.000D+00 0.000D+00 0.000D+00 0.637D-01
 Coeff-En:   0.936D+00
 Coeff:      0.223D-04-0.394D-02 0.145D-01 0.489D-01 0.131D+00 0.323D+00
 Coeff:      0.487D+00
 Gap=     0.182 Goal=   None    Shift=    0.000
 RMSDP=1.13D-05 MaxDP=9.19D-04 DE=-2.12D-04 OVMax= 1.19D-03

 Cycle   8  Pass 0  IDiag  1:
 RMSU=  4.36D-06    CP:  9.73D-01  7.66D-01  7.30D-01  6.53D-01  5.75D-01
                    CP:  6.36D-01  5.88D-01
 E= -1711.53874604121     Delta-E=       -0.000025769767 Rises=F Damp=F
 DIIS: error= 6.81D-05 at cycle   8 NSaved=   8.
 NSaved= 8 IEnMin= 8 EnMin= -1711.53874604121     IErMin= 8 ErrMin= 6.81D-05
 ErrMax= 6.81D-05 EMaxC= 1.00D-01 BMatC= 2.86D-06 BMatP= 2.76D-05
 IDIUse=1 WtCom= 1.00D+00 WtEn= 0.00D+00
 Coeff-Com:  0.321D-04-0.236D-02 0.529D-02 0.191D-01 0.576D-01 0.161D+00
 Coeff-Com:  0.308D+00 0.451D+00
 Coeff:      0.321D-04-0.236D-02 0.529D-02 0.191D-01 0.576D-01 0.161D+00
 Coeff:      0.308D+00 0.451D+00
 Gap=     0.182 Goal=   None    Shift=    0.000
 RMSDP=3.34D-06 MaxDP=2.54D-04 DE=-2.58D-05 OVMax= 4.42D-04

 Initial convergence to 1.0D-05 achieved.  Increase integral accuracy.
 Cycle   9  Pass 1  IDiag  1:
 E= -1711.53868944561     Delta-E=        0.000056595604 Rises=F Damp=F
 DIIS: error= 1.80D-04 at cycle   1 NSaved=   1.
 NSaved= 1 IEnMin= 1 EnMin= -1711.53868944561     IErMin= 1 ErrMin= 1.80D-04
 ErrMax= 1.80D-04 EMaxC= 1.00D-01 BMatC= 8.81D-06 BMatP= 8.81D-06
 IDIUse=3 WtCom= 9.98D-01 WtEn= 1.80D-03
 Coeff-Com:  0.100D+01
 Coeff-En:   0.100D+01
 Coeff:      0.100D+01
 Gap=     0.182 Goal=   None    Shift=    0.000
 RMSDP=3.34D-06 MaxDP=2.54D-04 DE= 5.66D-05 OVMax= 6.05D-04

 Cycle  10  Pass 1  IDiag  1:
 RMSU=  7.73D-05    CP:  1.00D+00
 E= -1711.53869758945     Delta-E=       -0.000008143839 Rises=F Damp=F
 DIIS: error= 5.11D-05 at cycle   2 NSaved=   2.
 NSaved= 2 IEnMin= 2 EnMin= -1711.53869758945     IErMin= 2 ErrMin= 5.11D-05
 ErrMax= 5.11D-05 EMaxC= 1.00D-01 BMatC= 7.99D-07 BMatP= 8.81D-06
 IDIUse=1 WtCom= 1.00D+00 WtEn= 0.00D+00
 Coeff-Com:  0.108D+00 0.892D+00
 Coeff:      0.108D+00 0.892D+00
 Gap=     0.182 Goal=   None    Shift=    0.000
 RMSDP=4.04D-06 MaxDP=4.22D-04 DE=-8.14D-06 OVMax= 4.44D-04

 Cycle  11  Pass 1  IDiag  1:
 RMSU=  2.77D-06    CP:  1.00D+00  1.01D+00
 E= -1711.53869605933     Delta-E=        0.000001530117 Rises=F Damp=F
 DIIS: error= 9.90D-05 at cycle   3 NSaved=   3.
 NSaved= 3 IEnMin= 2 EnMin= -1711.53869758945     IErMin= 2 ErrMin= 5.11D-05
 ErrMax= 9.90D-05 EMaxC= 1.00D-01 BMatC= 2.61D-06 BMatP= 7.99D-07
 IDIUse=1 WtCom= 1.00D+00 WtEn= 0.00D+00
 Coeff-Com: -0.417D-02 0.647D+00 0.357D+00
 Coeff:     -0.417D-02 0.647D+00 0.357D+00
 Gap=     0.182 Goal=   None    Shift=    0.000
 RMSDP=2.62D-06 MaxDP=3.00D-04 DE= 1.53D-06 OVMax= 3.17D-04

 Cycle  12  Pass 1  IDiag  1:
 RMSU=  3.96D-07    CP:  1.00D+00  1.01D+00  3.50D-01
 E= -1711.53869827224     Delta-E=       -0.000002212908 Rises=F Damp=F
 DIIS: error= 7.56D-06 at cycle   4 NSaved=   4.
 NSaved= 4 IEnMin= 4 EnMin= -1711.53869827224     IErMin= 4 ErrMin= 7.56D-06
 ErrMax= 7.56D-06 EMaxC= 1.00D-01 BMatC= 2.18D-08 BMatP= 7.99D-07
 IDIUse=1 WtCom= 1.00D+00 WtEn= 0.00D+00
 Coeff-Com: -0.402D-02 0.385D+00 0.219D+00 0.399D+00
 Coeff:     -0.402D-02 0.385D+00 0.219D+00 0.399D+00
 Gap=     0.182 Goal=   None    Shift=    0.000
 RMSDP=2.76D-07 MaxDP=2.09D-05 DE=-2.21D-06 OVMax= 3.20D-05

 Cycle  13  Pass 1  IDiag  1:
 RMSU=  1.22D-07    CP:  1.00D+00  1.01D+00  3.62D-01  6.26D-01
 E= -1711.53869829290     Delta-E=       -0.000000020664 Rises=F Damp=F
 DIIS: error= 1.13D-06 at cycle   5 NSaved=   5.
 NSaved= 5 IEnMin= 5 EnMin= -1711.53869829290     IErMin= 5 ErrMin= 1.13D-06
 ErrMax= 1.13D-06 EMaxC= 1.00D-01 BMatC= 4.01D-10 BMatP= 2.18D-08
 IDIUse=1 WtCom= 1.00D+00 WtEn= 0.00D+00
 Coeff-Com: -0.174D-02 0.155D+00 0.886D-01 0.191D+00 0.567D+00
 Coeff:     -0.174D-02 0.155D+00 0.886D-01 0.191D+00 0.567D+00
 Gap=     0.182 Goal=   None    Shift=    0.000
 RMSDP=5.17D-08 MaxDP=3.91D-06 DE=-2.07D-08 OVMax= 8.20D-06

 Cycle  14  Pass 1  IDiag  1:
 RMSU=  3.46D-08    CP:  1.00D+00  1.01D+00  3.63D-01  6.36D-01  9.14D-01
 E= -1711.53869829318     Delta-E=       -0.000000000276 Rises=F Damp=F
 DIIS: error= 6.38D-07 at cycle   6 NSaved=   6.
 NSaved= 6 IEnMin= 6 EnMin= -1711.53869829318     IErMin= 6 ErrMin= 6.38D-07
 ErrMax= 6.38D-07 EMaxC= 1.00D-01 BMatC= 9.86D-11 BMatP= 4.01D-10
 IDIUse=1 WtCom= 1.00D+00 WtEn= 0.00D+00
 Coeff-Com: -0.507D-03 0.413D-01 0.237D-01 0.609D-01 0.351D+00 0.524D+00
 Coeff:     -0.507D-03 0.413D-01 0.237D-01 0.609D-01 0.351D+00 0.524D+00
 Gap=     0.182 Goal=   None    Shift=    0.000
 RMSDP=2.72D-08 MaxDP=1.82D-06 DE=-2.76D-10 OVMax= 5.00D-06

 Cycle  15  Pass 1  IDiag  1:
 RMSU=  1.20D-08    CP:  1.00D+00  1.01D+00  3.63D-01  6.43D-01  9.44D-01
                    CP:  5.88D-01
 E= -1711.53869829333     Delta-E=       -0.000000000157 Rises=F Damp=F
 DIIS: error= 1.72D-07 at cycle   7 NSaved=   7.
 NSaved= 7 IEnMin= 7 EnMin= -1711.53869829333     IErMin= 7 ErrMin= 1.72D-07
 ErrMax= 1.72D-07 EMaxC= 1.00D-01 BMatC= 1.64D-11 BMatP= 9.86D-11
 IDIUse=1 WtCom= 1.00D+00 WtEn= 0.00D+00
 Coeff-Com: -0.311D-04 0.480D-03 0.241D-03 0.651D-02 0.125D+00 0.337D+00
 Coeff-Com:  0.531D+00
 Coeff:     -0.311D-04 0.480D-03 0.241D-03 0.651D-02 0.125D+00 0.337D+00
 Coeff:      0.531D+00
 Gap=     0.182 Goal=   None    Shift=    0.000
 RMSDP=9.65D-09 MaxDP=6.26D-07 DE=-1.57D-10 OVMax= 9.93D-07

 SCF Done:  E(RB3LYP) =  -1711.53869829     A.U. after   15 cycles
             Convg  =    0.9647D-08             -V/T =  2.0057
 KE= 1.701808999624D+03 PE=-9.873362964202D+03 EE= 3.523504947340D+03
 Leave Link  502 at Sat Sep 10 07:04:55 2022, MaxMem=  209715200 cpu:    5059.6
 (Enter /opt/gaussian/l601.exe)
 Copying SCF densities to generalized density rwf, IOpCl= 0 IROHF=0.

 **********************************************************************

            Population analysis using the SCF density.

 **********************************************************************

 Orbital symmetries:
       Occupied  (A) (A) (A) (A) (A) (A) (A) (A) (A) (A) (A) (A)
                 (A) (A) (A) (A) (A) (A) (A) (A) (A) (A) (A) (A)
                 (A) (A) (A) (A) (A) (A) (A) (A) (A) (A) (A) (A)
                 (A) (A) (A) (A) (A) (A) (A) (A) (A) (A) (A) (A)
                 (A) (A) (A) (A) (A) (A) (A) (A) (A) (A) (A) (A)
                 (A) (A) (A) (A) (A) (A) (A) (A) (A) (A) (A) (A)
                 (A) (A) (A) (A) (A) (A) (A) (A) (A) (A) (A) (A)
                 (A) (A) (A) (A) (A) (A) (A) (A) (A) (A) (A) (A)
                 (A) (A) (A) (A) (A) (A) (A) (A) (A) (A) (A) (A)
                 (A) (A) (A) (A) (A)
       Virtual   (A) (A) (A) (A) (A) (A) (A) (A) (A) (A) (A) (A)
                 (A) (A) (A) (A) (A) (A) (A) (A) (A) (A) (A) (A)
                 (A) (A) (A) (A) (A) (A) (A) (A) (A) (A) (A) (A)
                 (A) (A) (A) (A) (A) (A) (A) (A) (A) (A) (A) (A)
                 (A) (A) (A) (A) (A) (A) (A) (A) (A) (A) (A) (A)
                 (A) (A) (A) (A) (A) (A) (A) (A) (A) (A) (A) (A)
                 (A) (A) (A) (A) (A) (A) (A) (A) (A) (A) (A) (A)
                 (A) (A) (A) (A) (A) (A) (A) (A) (A) (A) (A) (A)
                 (A) (A) (A) (A) (A) (A) (A) (A) (A) (A) (A) (A)
                 (A) (A) (A) (A) (A) (A) (A) (A) (A) (A) (A) (A)
                 (A) (A) (A) (A) (A) (A) (A) (A) (A) (A) (A) (A)
                 (A) (A) (A) (A) (A) (A) (A) (A) (A) (A) (A) (A)
                 (A) (A) (A) (A) (A) (A) (A) (A) (A) (A) (A) (A)
                 (A) (A) (A) (A) (A) (A) (A) (A) (A) (A) (A) (A)
                 (A) (A) (A) (A) (A) (A) (A) (A) (A) (A) (A) (A)
                 (A) (A) (A) (A) (A) (A) (A) (A) (A) (A) (A) (A)
                 (A) (A) (A) (A) (A) (A) (A) (A) (A) (A) (A) (A)
                 (A) (A) (A) (A) (A) (A) (A) (A) (A) (A) (A) (A)
                 (A) (A) (A) (A) (A) (A) (A) (A) (A) (A) (A) (A)
                 (A) (A) (A) (A) (A) (A) (A) (A) (A) (A) (A) (A)
                 (A) (A) (A) (A) (A) (A) (A) (A) (A) (A) (A) (A)
                 (A) (A) (A) (A) (A) (A) (A) (A) (A) (A) (A) (A)
                 (A) (A) (A) (A) (A) (A) (A) (A) (A) (A) (A) (A)
                 (A) (A) (A) (A) (A) (A) (A) (A) (A) (A) (A) (A)
                 (A) (A) (A) (A) (A) (A) (A) (A) (A) (A) (A) (A)
                 (A) (A) (A) (A) (A) (A) (A) (A) (A) (A) (A) (A)
                 (A) (A) (A) (A) (A) (A) (A) (A) (A) (A) (A) (A)
                 (A) (A) (A) (A) (A) (A) (A) (A) (A) (A) (A) (A)
                 (A) (A) (A) (A) (A) (A) (A) (A) (A) (A) (A) (A)
                 (A) (A) (A) (A) (A) (A) (A) (A) (A) (A) (A) (A)
                 (A) (A) (A) (A) (A) (A) (A) (A) (A) (A) (A) (A)
                 (A) (A) (A) (A) (A) (A) (A) (A) (A) (A) (A) (A)
                 (A) (A) (A) (A) (A) (A) (A) (A) (A) (A) (A) (A)
                 (A) (A) (A) (A) (A) (A) (A) (A) (A) (A) (A) (A)
                 (A) (A) (A) (A) (A) (A) (A) (A) (A) (A) (A) (A)
                 (A) (A) (A) (A) (A) (A) (A) (A) (A) (A)
 The electronic state is 1-A.
 Alpha  occ. eigenvalues --  -88.92079 -19.12133 -19.11810 -14.40812 -14.38640
 Alpha  occ. eigenvalues --  -14.38127 -14.38099 -14.34423 -10.30307 -10.30079
 Alpha  occ. eigenvalues --  -10.25556 -10.25364 -10.24621 -10.23639 -10.22920
 Alpha  occ. eigenvalues --  -10.22863 -10.22616 -10.21677 -10.21509 -10.20880
 Alpha  occ. eigenvalues --  -10.20794 -10.20575 -10.20541 -10.20433 -10.20308
 Alpha  occ. eigenvalues --  -10.20292 -10.20188 -10.19833 -10.19631 -10.19422
 Alpha  occ. eigenvalues --  -10.19234  -7.98285  -5.94608  -5.94229  -5.93921
 Alpha  occ. eigenvalues --   -1.09083  -1.05364  -1.04822  -0.96119  -0.95183
 Alpha  occ. eigenvalues --   -0.92129  -0.89463  -0.87359  -0.86169  -0.85660
 Alpha  occ. eigenvalues --   -0.78597  -0.77810  -0.76897  -0.76148  -0.75499
 Alpha  occ. eigenvalues --   -0.74254  -0.73743  -0.70048  -0.68097  -0.64636
 Alpha  occ. eigenvalues --   -0.63585  -0.63182  -0.61949  -0.61057  -0.59594
 Alpha  occ. eigenvalues --   -0.58588  -0.57923  -0.56622  -0.55807  -0.54452
 Alpha  occ. eigenvalues --   -0.53377  -0.52862  -0.52507  -0.52078  -0.51349
 Alpha  occ. eigenvalues --   -0.50192  -0.48023  -0.47359  -0.46708  -0.46432
 Alpha  occ. eigenvalues --   -0.45857  -0.45026  -0.44435  -0.44308  -0.44049
 Alpha  occ. eigenvalues --   -0.43876  -0.43410  -0.42967  -0.42370  -0.41944
 Alpha  occ. eigenvalues --   -0.41164  -0.40233  -0.39771  -0.39341  -0.38804
 Alpha  occ. eigenvalues --   -0.38390  -0.38171  -0.37428  -0.37051  -0.36432
 Alpha  occ. eigenvalues --   -0.36138  -0.35759  -0.35317  -0.32717  -0.32569
 Alpha  occ. eigenvalues --   -0.31899  -0.30829  -0.30092  -0.27610  -0.27224
 Alpha  occ. eigenvalues --   -0.26430  -0.26355  -0.26252  -0.26105  -0.25203
 Alpha  occ. eigenvalues --   -0.24662  -0.23231  -0.22104
 Alpha virt. eigenvalues --   -0.03944  -0.03191  -0.02926  -0.01949   0.00701
 Alpha virt. eigenvalues --    0.01082   0.01972   0.02692   0.03080   0.03612
 Alpha virt. eigenvalues --    0.03864   0.04724   0.05918   0.06484   0.07031
 Alpha virt. eigenvalues --    0.07159   0.07809   0.08901   0.09110   0.09795
 Alpha virt. eigenvalues --    0.10530   0.10706   0.10890   0.11087   0.11631
 Alpha virt. eigenvalues --    0.13434   0.13725   0.14156   0.14653   0.14685
 Alpha virt. eigenvalues --    0.15105   0.15949   0.16344   0.16614   0.17571
 Alpha virt. eigenvalues --    0.17794   0.18468   0.19535   0.19946   0.20881
 Alpha virt. eigenvalues --    0.22091   0.22823   0.23244   0.24249   0.24516
 Alpha virt. eigenvalues --    0.25080   0.25656   0.26383   0.27655   0.27977
 Alpha virt. eigenvalues --    0.28794   0.29385   0.30340   0.30733   0.31067
 Alpha virt. eigenvalues --    0.32049   0.32602   0.34207   0.34867   0.35478
 Alpha virt. eigenvalues --    0.35813   0.36634   0.38737   0.40108   0.40385
 Alpha virt. eigenvalues --    0.40839   0.41748   0.42596   0.43191   0.43298
 Alpha virt. eigenvalues --    0.43764   0.44035   0.45168   0.45204   0.45590
 Alpha virt. eigenvalues --    0.45824   0.46216   0.46421   0.46960   0.47038
 Alpha virt. eigenvalues --    0.47288   0.47610   0.47888   0.48242   0.48419
 Alpha virt. eigenvalues --    0.49226   0.49408   0.49641   0.50033   0.50303
 Alpha virt. eigenvalues --    0.50407   0.50982   0.51534   0.51556   0.51908
 Alpha virt. eigenvalues --    0.52638   0.52954   0.53251   0.53482   0.54007
 Alpha virt. eigenvalues --    0.54291   0.54759   0.55276   0.55352   0.55637
 Alpha virt. eigenvalues --    0.55716   0.56651   0.57397   0.57667   0.58088
 Alpha virt. eigenvalues --    0.58650   0.58865   0.59804   0.60243   0.60691
 Alpha virt. eigenvalues --    0.60923   0.61142   0.61677   0.62060   0.62759
 Alpha virt. eigenvalues --    0.63349   0.63811   0.64245   0.64598   0.64705
 Alpha virt. eigenvalues --    0.64786   0.64982   0.65326   0.65719   0.65993
 Alpha virt. eigenvalues --    0.66479   0.66930   0.67047   0.67435   0.68430
 Alpha virt. eigenvalues --    0.69462   0.69897   0.70478   0.71135   0.71397
 Alpha virt. eigenvalues --    0.72088   0.72461   0.72776   0.73170   0.73988
 Alpha virt. eigenvalues --    0.74857   0.75571   0.76593   0.76812   0.77646
 Alpha virt. eigenvalues --    0.77822   0.78617   0.78919   0.80123   0.81161
 Alpha virt. eigenvalues --    0.82620   0.83039   0.83628   0.84487   0.84921
 Alpha virt. eigenvalues --    0.85825   0.86889   0.87405   0.87838   0.88726
 Alpha virt. eigenvalues --    0.88816   0.89833   0.90372   0.91397   0.91598
 Alpha virt. eigenvalues --    0.92866   0.93196   0.93820   0.94427   0.94837
 Alpha virt. eigenvalues --    0.95338   0.96527   0.96812   0.97249   0.98854
 Alpha virt. eigenvalues --    0.98987   0.99215   0.99987   1.00523   1.01017
 Alpha virt. eigenvalues --    1.01370   1.02194   1.02561   1.02722   1.04292
 Alpha virt. eigenvalues --    1.04952   1.05166   1.05803   1.06092   1.06841
 Alpha virt. eigenvalues --    1.07111   1.07456   1.08009   1.08913   1.09664
 Alpha virt. eigenvalues --    1.09906   1.11222   1.11526   1.12413   1.14499
 Alpha virt. eigenvalues --    1.14814   1.14932   1.16354   1.17627   1.18109
 Alpha virt. eigenvalues --    1.18587   1.19099   1.19779   1.21424   1.22533
 Alpha virt. eigenvalues --    1.23049   1.23256   1.24275   1.25131   1.26891
 Alpha virt. eigenvalues --    1.27339   1.28719   1.29025   1.30164   1.30656
 Alpha virt. eigenvalues --    1.31169   1.31592   1.31925   1.34234   1.35579
 Alpha virt. eigenvalues --    1.35694   1.36348   1.37996   1.38293   1.39033
 Alpha virt. eigenvalues --    1.41220   1.42694   1.42903   1.43817   1.45575
 Alpha virt. eigenvalues --    1.46088   1.46308   1.46568   1.47625   1.47740
 Alpha virt. eigenvalues --    1.48956   1.49765   1.50086   1.50351   1.51268
 Alpha virt. eigenvalues --    1.51808   1.51941   1.52677   1.53765   1.54329
 Alpha virt. eigenvalues --    1.54795   1.54951   1.55517   1.55607   1.56007
 Alpha virt. eigenvalues --    1.56744   1.57530   1.58056   1.58416   1.58551
 Alpha virt. eigenvalues --    1.59124   1.59852   1.60817   1.61551   1.62326
 Alpha virt. eigenvalues --    1.63436   1.63568   1.64325   1.64454   1.65127
 Alpha virt. eigenvalues --    1.65432   1.65893   1.66554   1.66710   1.67397
 Alpha virt. eigenvalues --    1.67567   1.68493   1.69010   1.69232   1.70003
 Alpha virt. eigenvalues --    1.70288   1.71076   1.71967   1.72707   1.72932
 Alpha virt. eigenvalues --    1.73633   1.73912   1.74613   1.75451   1.75742
 Alpha virt. eigenvalues --    1.75996   1.76928   1.77155   1.77415   1.77649
 Alpha virt. eigenvalues --    1.78190   1.78823   1.80123   1.80833   1.81118
 Alpha virt. eigenvalues --    1.81613   1.82205   1.83079   1.83574   1.83626
 Alpha virt. eigenvalues --    1.84021   1.84504   1.84819   1.85823   1.86941
 Alpha virt. eigenvalues --    1.87701   1.87909   1.89037   1.89755   1.89969
 Alpha virt. eigenvalues --    1.90215   1.91160   1.91545   1.92369   1.92986
 Alpha virt. eigenvalues --    1.94785   1.95086   1.96117   1.96568   1.97810
 Alpha virt. eigenvalues --    1.98690   1.98812   1.99669   2.00437   2.00619
 Alpha virt. eigenvalues --    2.01132   2.01806   2.02960   2.03663   2.03836
 Alpha virt. eigenvalues --    2.04934   2.06294   2.07156   2.07488   2.08179
 Alpha virt. eigenvalues --    2.09328   2.11031   2.11848   2.12688   2.12784
 Alpha virt. eigenvalues --    2.12918   2.13707   2.15180   2.16076   2.16760
 Alpha virt. eigenvalues --    2.17726   2.18266   2.20231   2.22510   2.23468
 Alpha virt. eigenvalues --    2.25115   2.25432   2.26825   2.27173   2.27938
 Alpha virt. eigenvalues --    2.29320   2.30673   2.33585   2.34139   2.35322
 Alpha virt. eigenvalues --    2.35813   2.36783   2.37436   2.38635   2.39572
 Alpha virt. eigenvalues --    2.39833   2.40726   2.42416   2.43514   2.44028
 Alpha virt. eigenvalues --    2.44794   2.45304   2.46826   2.47591   2.49779
 Alpha virt. eigenvalues --    2.51100   2.51941   2.52763   2.53379   2.54778
 Alpha virt. eigenvalues --    2.56454   2.59301   2.59926   2.61750   2.62319
 Alpha virt. eigenvalues --    2.63388   2.64415   2.66206   2.67345   2.68708
 Alpha virt. eigenvalues --    2.69457   2.70599   2.71491   2.72643   2.72844
 Alpha virt. eigenvalues --    2.73962   2.76808   2.76871   2.77815   2.77943
 Alpha virt. eigenvalues --    2.80311   2.82210   2.85783   2.89099   2.93623
 Alpha virt. eigenvalues --    2.96440   2.98086   3.02497   3.04119   3.07658
 Alpha virt. eigenvalues --    3.10288   3.10442   3.13943   3.15847   3.40462
 Alpha virt. eigenvalues --    3.47751   3.48216   3.50237   3.53933   3.55913
          Condensed to atoms (all electrons):
 Mulliken atomic charges:
              1
     1  O   -0.240083
     2  C    0.130120
     3  C    0.122558
     4  N   -0.226793
     5  N   -0.059587
     6  N   -0.182781
     7  C    0.010870
     8  C    0.044541
     9  C    0.037348
    10  C    0.039169
    11  C    0.029371
    12  C    0.214428
    13  N   -0.287988
    14  C    0.153149
    15  C   -0.029363
    16  C    0.049094
    17  C   -0.101277
    18  S    0.155865
    19  C   -0.136337
    20  C    0.078779
    21  C    0.055883
    22  C    0.044849
    23  C    0.062209
    24  C    0.017762
    25  C    0.076158
    26  N   -0.120551
    27  C    0.231745
    28  O   -0.272557
    29  C   -0.136939
    30  C    0.023198
    31  C    0.022292
    32  H    0.061349
    33  H    0.059341
    34  H   -0.022792
    35  H   -0.028173
    36  H   -0.027239
    37  H   -0.032814
    38  H    0.031021
    39  H    0.049880
    40  H   -0.027903
    41  H    0.018079
    42  H    0.007396
    43  H   -0.026229
    44  H   -0.001244
    45  H   -0.034367
    46  H   -0.023011
    47  H    0.080479
    48  H   -0.022219
    49  H    0.041555
    50  H    0.025824
    51  H    0.025281
    52  H    0.040655
 Sum of Mulliken atomic charges =   0.00000
 Mulliken charges with hydrogens summed into heavy atoms:
              1
     1  O   -0.240083
     2  C    0.130120
     3  C    0.243247
     4  N   -0.226793
     5  N   -0.059587
     6  N   -0.182781
     7  C    0.010870
     8  C    0.021749
     9  C    0.009175
    10  C    0.011930
    11  C   -0.003443
    12  C    0.214428
    13  N   -0.287988
    14  C    0.234050
    15  C   -0.029363
    16  C    0.021191
    17  C   -0.083198
    18  S    0.155865
    19  C   -0.128941
    20  C    0.078779
    21  C    0.029654
    22  C    0.043605
    23  C    0.062209
    24  C   -0.016605
    25  C    0.053147
    26  N   -0.040072
    27  C    0.231745
    28  O   -0.272557
    29  C   -0.159157
    30  C    0.090576
    31  C    0.088228
 Sum of Mulliken charges with hydrogens summed into heavy atoms =   0.00000
 Electronic spatial extent (au):  <R**2>=          20624.9401
 Charge=              0.0000 electrons
 Dipole moment (field-independent basis, Debye):
    X=             -3.1672    Y=              4.0906    Z=              4.2098  Tot=              6.6698
 Quadrupole moment (field-independent basis, Debye-Ang):
   XX=           -185.3250   YY=           -184.5424   ZZ=           -178.1105
   XY=             21.6472   XZ=             -5.3707   YZ=            -17.1295
 Traceless Quadrupole moment (field-independent basis, Debye-Ang):
   XX=             -2.6657   YY=             -1.8831   ZZ=              4.5488
   XY=             21.6472   XZ=             -5.3707   YZ=            -17.1295
 Octapole moment (field-independent basis, Debye-Ang**2):
  XXX=           -193.9197  YYY=             58.9883  ZZZ=             21.1175  XYY=             -1.5485
  XXY=            -42.7230  XXZ=            200.7037  XZZ=            -37.8842  YZZ=             15.5350
  YYZ=              5.6105  XYZ=            -25.6871
 Hexadecapole moment (field-independent basis, Debye-Ang**3):
 XXXX=         -20265.6613 YYYY=          -5082.0074 ZZZZ=          -1752.6584 XXXY=            404.1255
 XXXZ=           -412.1690 YYYX=            267.7211 YYYZ=            -69.8443 ZZZX=             82.8147
 ZZZY=            -90.5993 XXYY=          -4182.0771 XXZZ=          -3797.2019 YYZZ=          -1211.4512
 XXYZ=           -388.3795 YYXZ=             69.5088 ZZXY=            108.7184
 N-N= 2.936510318945D+03 E-N=-9.873363039827D+03  KE= 1.701808999624D+03
 No NMR shielding tensors so no spin-rotation constants.
 Leave Link  601 at Sat Sep 10 07:04:55 2022, MaxMem=  209715200 cpu:       3.8
 (Enter /opt/gaussian/l602.exe)
 Breneman (CHELPG) radii used.
 Read replacement radii for each type of atom:
 Rad(35) =   1.900000000000D+00
 Atom Element Radius
    1     8    1.70
    2     6    1.50
    3     6    1.50
    4     7    1.70
    5     7    1.70
    6     7    1.70
    7     6    1.50
    8     6    1.50
    9     6    1.50
   10     6    1.50
   11     6    1.50
   12     6    1.50
   13     7    1.70
   14     6    1.50
   15     6    1.50
   16     6    1.50
   17     6    1.50
   18    16    2.00
   19     6    1.50
   20     6    1.50
   21     6    1.50
   22     6    1.50
   23     6    1.50
   24     6    1.50
   25     6    1.50
   26     7    1.70
   27     6    1.50
   28     8    1.70
   29     6    1.50
   30     6    1.50
   31     6    1.50
   32     1    1.45
   33     1    1.45
   34     1    1.45
   35     1    1.45
   36     1    1.45
   37     1    1.45
   38     1    1.45
   39     1    1.45
   40     1    1.45
   41     1    1.45
   42     1    1.45
   43     1    1.45
   44     1    1.45
   45     1    1.45
   46     1    1.45
   47     1    1.45
   48     1    1.45
   49     1    1.45
   50     1    1.45
   51     1    1.45
   52     1    1.45
 Generate Potential Derived Charges using the Breneman model, NDens= 1.
 Grid spacing= 0.300 Box extension= 2.800
 NStep X,Y,Z=   74     52     40   Total possible points=      153920
 Number of Points to Fit=   29037

 **********************************************************************

            Electrostatic Properties Using The SCF Density

 **********************************************************************

       Atomic Center    1 is at   1.208349 -1.488859 -0.177291
       Atomic Center    2 is at   1.344019 -0.413569 -0.731711
       Atomic Center    3 is at   2.721329  0.036051 -1.261781
       Atomic Center    4 is at   3.735949 -0.963049 -1.044991
       Atomic Center    5 is at   4.232189 -1.654879 -2.116251
       Atomic Center    6 is at   5.125819 -2.490619 -1.712961
       Atomic Center    7 is at   5.244299 -2.373979 -0.341251
       Atomic Center    8 is at   6.080029 -3.046429  0.567669
       Atomic Center    9 is at   5.979819 -2.697699  1.907259
       Atomic Center   10 is at   5.067549 -1.703399  2.344199
       Atomic Center   11 is at   4.231439 -1.032099  1.460929
       Atomic Center   12 is at   4.339629 -1.387269  0.106299
       Atomic Center   13 is at   0.302429  0.479001 -0.931901
       Atomic Center   14 is at   0.515119  1.806831 -1.520921
       Atomic Center   15 is at   1.031909  2.858651 -0.558611
       Atomic Center   16 is at   1.586479  4.106941 -1.001981
       Atomic Center   17 is at   1.955649  4.927881  0.029739
       Atomic Center   18 is at   1.636419  4.196601  1.572179
       Atomic Center   19 is at   0.998019  2.770511  0.811489
       Atomic Center   20 is at  -1.028471  0.118971 -0.516621
       Atomic Center   21 is at  -2.095751  0.222991 -1.416611
       Atomic Center   22 is at  -3.403161 -0.089209 -1.041631
       Atomic Center   23 is at  -3.660401 -0.543599  0.262839
       Atomic Center   24 is at  -2.585671 -0.671289  1.160849
       Atomic Center   25 is at  -1.288041 -0.343859  0.780449
       Atomic Center   26 is at  -4.944191 -0.890069  0.726349
       Atomic Center   27 is at  -6.152161 -0.830419  0.060979
       Atomic Center   28 is at  -6.275671 -0.446269 -1.096051
       Atomic Center   29 is at  -7.323471 -1.279809  0.880889
       Atomic Center   30 is at  -8.454231 -1.976269  0.137379
       Atomic Center   31 is at  -8.649031 -0.576249  0.625769
       Atomic Center   32 is at   2.684829  0.191541 -2.349161
       Atomic Center   33 is at   3.018079  0.987501 -0.791931
       Atomic Center   34 is at   6.776119 -3.809989  0.217319
       Atomic Center   35 is at   6.611019 -3.196629  2.645469
       Atomic Center   36 is at   5.018589 -1.463319  3.408729
       Atomic Center   37 is at   3.522469 -0.279439  1.807179
       Atomic Center   38 is at   1.193269  1.733621 -2.384791
       Atomic Center   39 is at  -0.448151  2.140741 -1.931751
       Atomic Center   40 is at   1.706439  4.377031 -2.052541
       Atomic Center   41 is at   2.405149  5.917311 -0.024551
       Atomic Center   42 is at   0.618439  1.953101  1.419349
       Atomic Center   43 is at  -1.910861  0.544981 -2.443651
       Atomic Center   44 is at  -4.224521  0.000831 -1.747051
       Atomic Center   45 is at  -2.767801 -1.033519  2.176779
       Atomic Center   46 is at  -0.470521 -0.470589  1.488529
       Atomic Center   47 is at  -4.978911 -1.224989  1.681759
       Atomic Center   48 is at  -7.120681 -1.608879  1.903549
       Atomic Center   49 is at  -8.296411 -2.114419 -0.933891
       Atomic Center   50 is at  -8.961011 -2.792389  0.656439
       Atomic Center   51 is at  -9.293541 -0.402739  1.489939
       Atomic Center   52 is at  -8.620941  0.220941 -0.119371
   29037 points will be used for fitting atomic charges
 Fitting point charges to electrostatic potential
 Charges from ESP fit, RMS=   0.00407 RRMS=   0.22621:
 Charge=   0.00000 Dipole=    -3.0298     4.1980     4.1923 Tot=     6.6617
              1
     1  O   -0.520032
     2  C    0.633351
     3  C   -0.045957
     4  N    0.297058
     5  N   -0.215114
     6  N   -0.351538
     7  C    0.422878
     8  C   -0.269421
     9  C   -0.038764
    10  C   -0.118304
    11  C   -0.144103
    12  C   -0.071330
    13  N   -0.455810
    14  C    0.114238
    15  C    0.128603
    16  C   -0.154510
    17  C   -0.175016
    18  S    0.030709
    19  C   -0.243121
    20  C    0.272119
    21  C   -0.173767
    22  C   -0.175155
    23  C    0.336912
    24  C   -0.226943
    25  C   -0.169424
    26  N   -0.574974
    27  C    0.639738
    28  O   -0.455677
    29  C   -0.268129
    30  C   -0.119424
    31  C   -0.140904
    32  H    0.011671
    33  H   -0.005460
    34  H    0.130317
    35  H    0.082083
    36  H    0.096305
    37  H    0.111005
    38  H    0.085304
    39  H    0.006443
    40  H    0.096406
    41  H    0.169575
    42  H    0.162725
    43  H    0.133154
    44  H    0.124020
    45  H    0.126107
    46  H    0.145469
    47  H    0.290472
    48  H    0.133151
    49  H    0.077756
    50  H    0.085505
    51  H    0.091005
    52  H    0.078796
 Charges from ESP fit with hydrogens summed into heavy atoms:
              1
     1  O   -0.520032
     2  C    0.633351
     3  C   -0.039745
     4  N    0.297058
     5  N   -0.215114
     6  N   -0.351538
     7  C    0.422878
     8  C   -0.139103
     9  C    0.043319
    10  C   -0.021999
    11  C   -0.033098
    12  C   -0.071330
    13  N   -0.455810
    14  C    0.205984
    15  C    0.128603
    16  C   -0.058104
    17  C   -0.005441
    18  S    0.030709
    19  C   -0.080396
    20  C    0.272119
    21  C   -0.040613
    22  C   -0.051135
    23  C    0.336912
    24  C   -0.100836
    25  C   -0.023955
    26  N   -0.284502
    27  C    0.639738
    28  O   -0.455677
    29  C   -0.134977
    30  C    0.043837
    31  C    0.028898
    32  H    0.000000
    33  H    0.000000
    34  H    0.000000
    35  H    0.000000
    36  H    0.000000
    37  H    0.000000
    38  H    0.000000
    39  H    0.000000
    40  H    0.000000
    41  H    0.000000
    42  H    0.000000
    43  H    0.000000
    44  H    0.000000
    45  H    0.000000
    46  H    0.000000
    47  H    0.000000
    48  H    0.000000
    49  H    0.000000
    50  H    0.000000
    51  H    0.000000
    52  H    0.000000
 -----------------------------------------------------------------

              Electrostatic Properties (Atomic Units)

 -----------------------------------------------------------------
    Center     Electric         -------- Electric Field --------
               Potential          X             Y             Z
 -----------------------------------------------------------------
    1 Atom    -22.368638
    2 Atom    -14.639719
    3 Atom    -14.686145
    4 Atom    -18.296488
    5 Atom    -18.334100
    6 Atom    -18.372501
    7 Atom    -14.740053
    8 Atom    -14.750245
    9 Atom    -14.753473
   10 Atom    -14.747733
   11 Atom    -14.743519
   12 Atom    -14.717317
   13 Atom    -18.320423
   14 Atom    -14.683181
   15 Atom    -14.730026
   16 Atom    -14.737545
   17 Atom    -14.717793
   18 Atom    -59.175649
   19 Atom    -14.720760
   20 Atom    -14.707164
   21 Atom    -14.744118
   22 Atom    -14.752454
   23 Atom    -14.697276
   24 Atom    -14.742125
   25 Atom    -14.743899
   26 Atom    -18.320649
   27 Atom    -14.641155
   28 Atom    -22.371024
   29 Atom    -14.725934
   30 Atom    -14.733862
   31 Atom    -14.733608
   32 Atom     -1.058090
   33 Atom     -1.061325
   34 Atom     -1.091539
   35 Atom     -1.097103
   36 Atom     -1.093332
   37 Atom     -1.082613
   38 Atom     -1.069654
   39 Atom     -1.068304
   40 Atom     -1.067285
   41 Atom     -1.054044
   42 Atom     -1.055189
   43 Atom     -1.081926
   44 Atom     -1.096496
   45 Atom     -1.075867
   46 Atom     -1.085391
   47 Atom     -0.988490
   48 Atom     -1.077815
   49 Atom     -1.094416
   50 Atom     -1.089099
   51 Atom     -1.088775
   52 Atom     -1.094081
 -----------------------------------------------------------------
 Leave Link  602 at Sat Sep 10 07:05:10 2022, MaxMem=  209715200 cpu:     108.2
 (Enter /opt/gaussian/l9999.exe)
 1\1\GINC-LQCAPF-6\SP\RB3LYP\CC-pVDZ\C23H21N5O2S1\LQCAPF-6\10-Sep-2022\
 0\\#p b3lyp/cc-pvdz pop=(chelpg,readradii)\\Mol01.log\\0,1\O,0,1.20835
 ,-1.48886,-0.17729\C,0,1.34402,-0.41357,-0.73171\C,0,2.72133,0.03605,-
 1.26178\N,0,3.73595,-0.96305,-1.04499\N,0,4.23219,-1.65488,-2.11625\N,
 0,5.12582,-2.49062,-1.71296\C,0,5.2443,-2.37398,-0.34125\C,0,6.08003,-
 3.04643,0.56767\C,0,5.97982,-2.6977,1.90726\C,0,5.06755,-1.7034,2.3442
 \C,0,4.23144,-1.0321,1.46093\C,0,4.33963,-1.38727,0.1063\N,0,0.30243,0
 .479,-0.9319\C,0,0.51512,1.80683,-1.52092\C,0,1.03191,2.85865,-0.55861
 \C,0,1.58648,4.10694,-1.00198\C,0,1.95565,4.92788,0.02974\S,0,1.63642,
 4.1966,1.57218\C,0,0.99802,2.77051,0.81149\C,0,-1.02847,0.11897,-0.516
 62\C,0,-2.09575,0.22299,-1.41661\C,0,-3.40316,-0.08921,-1.04163\C,0,-3
 .6604,-0.5436,0.26284\C,0,-2.58567,-0.67129,1.16085\C,0,-1.28804,-0.34
 386,0.78045\N,0,-4.94419,-0.89007,0.72635\C,0,-6.15216,-0.83042,0.0609
 8\O,0,-6.27567,-0.44627,-1.09605\C,0,-7.32347,-1.27981,0.88089\C,0,-8.
 45423,-1.97627,0.13738\C,0,-8.64903,-0.57625,0.62577\H,0,2.68483,0.191
 54,-2.34916\H,0,3.01808,0.9875,-0.79193\H,0,6.77612,-3.80999,0.21732\H
 ,0,6.61102,-3.19663,2.64547\H,0,5.01859,-1.46332,3.40873\H,0,3.52247,-
 0.27944,1.80718\H,0,1.19327,1.73362,-2.38479\H,0,-0.44815,2.14074,-1.9
 3175\H,0,1.70644,4.37703,-2.05254\H,0,2.40515,5.91731,-0.02455\H,0,0.6
 1844,1.9531,1.41935\H,0,-1.91086,0.54498,-2.44365\H,0,-4.22452,0.00083
 ,-1.74705\H,0,-2.7678,-1.03352,2.17678\H,0,-0.47052,-0.47059,1.48853\H
 ,0,-4.97891,-1.22499,1.68176\H,0,-7.12068,-1.60888,1.90355\H,0,-8.2964
 1,-2.11442,-0.93389\H,0,-8.96101,-2.79239,0.65644\H,0,-9.29354,-0.4027
 4,1.48994\H,0,-8.62094,0.22094,-0.11937\\Version=EM64L-G09RevC.01\Stat
 e=1-A\HF=-1711.5386983\RMSD=9.647e-09\Dipole=-1.2460694,1.6093471,1.65
 62586\Quadrupole=-1.9818992,-1.4000151,3.3819143,16.0941292,-3.9929823
 ,-12.7353452\PG=C01 [X(C23H21N5O2S1)]\\@


 IF AT FIRST YOU DON'T SUCCEED, TRY, TRY AGAIN.
 THEN GIVE UP;
 THERE'S NO USE BEING A DAMN FOOL ABOUT IT.

                                 -- W. C. FIELDS
 Job cpu time:  0 days  1 hours 26 minutes 47.9 seconds.
 File lengths (MBytes):  RWF=    163 Int=      0 D2E=      0 Chk=     11 Scr=      1
 Normal termination of Gaussian 09 at Sat Sep 10 07:05:10 2022.
