 Entering Gaussian System, Link 0=g09
 Input=Mol08.gjf
 Output=Mol08.log
 Initial command:
 /opt/gaussian/l1.exe /home/scr/lqcapf-6/Gau-543095.inp -scrdir=/home/scr/lqcapf-6/
 Entering Link 1 = /opt/gaussian/l1.exe PID=    543097.
  
 Copyright (c) 1988,1990,1992,1993,1995,1998,2003,2009,2011,
            Gaussian, Inc.  All Rights Reserved.
  
 This is part of the Gaussian(R) 09 program.  It is based on
 the Gaussian(R) 03 system (copyright 2003, Gaussian, Inc.),
 the Gaussian(R) 98 system (copyright 1998, Gaussian, Inc.),
 the Gaussian(R) 94 system (copyright 1995, Gaussian, Inc.),
 the Gaussian 92(TM) system (copyright 1992, Gaussian, Inc.),
 the Gaussian 90(TM) system (copyright 1990, Gaussian, Inc.),
 the Gaussian 88(TM) system (copyright 1988, Gaussian, Inc.),
 the Gaussian 86(TM) system (copyright 1986, Carnegie Mellon
 University), and the Gaussian 82(TM) system (copyright 1983,
 Carnegie Mellon University). Gaussian is a federally registered
 trademark of Gaussian, Inc.
  
 This software contains proprietary and confidential information,
 including trade secrets, belonging to Gaussian, Inc.
  
 This software is provided under written license and may be
 used, copied, transmitted, or stored only in accord with that
 written license.
  
 The following legend is applicable only to US Government
 contracts under FAR:
  
                    RESTRICTED RIGHTS LEGEND
  
 Use, reproduction and disclosure by the US Government is
 subject to restrictions as set forth in subparagraphs (a)
 and (c) of the Commercial Computer Software - Restricted
 Rights clause in FAR 52.227-19.
  
 Gaussian, Inc.
 340 Quinnipiac St., Bldg. 40, Wallingford CT 06492
  
  
 ---------------------------------------------------------------
 Warning -- This program may not be used in any manner that
 competes with the business of Gaussian, Inc. or will provide
 assistance to any competitor of Gaussian, Inc.  The licensee
 of this program is prohibited from giving any competitor of
 Gaussian, Inc. access to this program.  By using this program,
 the user acknowledges that Gaussian, Inc. is engaged in the
 business of creating and licensing software in the field of
 computational chemistry and represents and warrants to the
 licensee that it is not a competitor of Gaussian, Inc. and that
 it will not use this program in any manner prohibited above.
 ---------------------------------------------------------------
  

 Cite this work as:
 Gaussian 09, Revision C.01,
 M. J. Frisch, G. W. Trucks, H. B. Schlegel, G. E. Scuseria, 
 M. A. Robb, J. R. Cheeseman, G. Scalmani, V. Barone, B. Mennucci, 
 G. A. Petersson, H. Nakatsuji, M. Caricato, X. Li, H. P. Hratchian, 
 A. F. Izmaylov, J. Bloino, G. Zheng, J. L. Sonnenberg, M. Hada, 
 M. Ehara, K. Toyota, R. Fukuda, J. Hasegawa, M. Ishida, T. Nakajima, 
 Y. Honda, O. Kitao, H. Nakai, T. Vreven, J. A. Montgomery, Jr., 
 J. E. Peralta, F. Ogliaro, M. Bearpark, J. J. Heyd, E. Brothers, 
 K. N. Kudin, V. N. Staroverov, T. Keith, R. Kobayashi, J. Normand, 
 K. Raghavachari, A. Rendell, J. C. Burant, S. S. Iyengar, J. Tomasi, 
 M. Cossi, N. Rega, J. M. Millam, M. Klene, J. E. Knox, J. B. Cross, 
 V. Bakken, C. Adamo, J. Jaramillo, R. Gomperts, R. E. Stratmann, 
 O. Yazyev, A. J. Austin, R. Cammi, C. Pomelli, J. W. Ochterski, 
 R. L. Martin, K. Morokuma, V. G. Zakrzewski, G. A. Voth, 
 P. Salvador, J. J. Dannenberg, S. Dapprich, A. D. Daniels, 
 O. Farkas, J. B. Foresman, J. V. Ortiz, J. Cioslowski, 
 and D. J. Fox, Gaussian, Inc., Wallingford CT, 2010.
 
 ******************************************
 Gaussian 09:  EM64L-G09RevC.01 23-Sep-2011
                10-Sep-2022 
 ******************************************
 %nprocshared=8
 Will use up to    8 processors via shared memory.
 %mem=1600MB
 ---------------------------------------
 #p b3lyp/cc-pvdz pop=(chelpg,readradii)
 ---------------------------------------
 1/38=1/1;
 2/12=2,17=6,18=5,40=1/2;
 3/5=16,11=2,16=1,25=1,30=1,74=-5/1,2,3;
 4//1;
 5/5=2,38=5/2;
 6/7=2,8=2,9=2,10=2,15=8,20=103,28=1/1,2;
 99/5=1,9=1/99;
 Leave Link    1 at Sat Sep 10 07:20:37 2022, MaxMem=  209715200 cpu:       0.2
 (Enter /opt/gaussian/l101.exe)
 ---------
 Mol08.log
 ---------
 Charge =  0 Multiplicity = 1
 Symbolic Z-Matrix:
 O                     3.27793  -2.47023   0.25369 
 C                     2.18924  -1.91208   0.21846 
 C                     1.02292  -2.50235   1.03154 
 N                    -0.16689  -2.78847   0.24782 
 N                    -0.05297  -3.27561  -1.02156 
 N                    -1.22847  -3.51635  -1.49969 
 C                    -2.16357  -3.2039   -0.53276 
 C                    -1.48607  -2.73184   0.61201 
 C                    -2.16915  -2.33522   1.7744 
 C                    -3.55514  -2.42642   1.73778 
 C                    -4.24763  -2.89663   0.59237 
 C                    -3.56722  -3.28974  -0.55185 
 N                     1.96731  -0.76914  -0.50802 
 C                     3.08295  -0.27453  -1.34715 
 C                     4.02341   0.66712  -0.62975 
 C                     5.02947   0.24826   0.20999 
 S                     5.91722   1.58259   0.87482 
 C                     4.93131   2.72789   0.01548 
 C                     3.97421   2.09786  -0.7353 
 C                     0.78847   0.03951  -0.40273 
 C                    -0.16001   0.04054  -1.43473 
 C                    -1.28972   0.85153  -1.3473 
 C                    -1.508     1.67987  -0.22961 
 C                    -0.54415   1.67587   0.79441 
 C                     0.59537   0.87377   0.70607 
 C                    -2.72139   2.52938  -0.13539 
 C                    -2.66355   3.83395   0.39227 
 N                    -3.71338   4.653     0.51357 
 C                    -4.90103   4.19436   0.09532 
 C                    -5.08303   2.92279  -0.45525 
 C                    -3.97933   2.07936  -0.56934 
 H                     0.73314  -1.81114   1.83592 
 H                     1.41979  -3.42286   1.48201 
 H                    -1.64764  -1.97501   2.66242 
 H                    -4.13013  -2.13002   2.6178 
 H                    -5.33776  -2.95202   0.62049 
 H                    -4.08635  -3.65739  -1.43829 
 H                     3.62624  -1.16061  -1.69773 
 H                     2.63443   0.2293   -2.21452 
 H                     5.2764   -0.77748   0.47491 
 H                     5.12185   3.79481   0.1112 
 H                     3.25301   2.63191  -1.35602 
 H                    -0.01415  -0.6142   -2.29518 
 H                    -2.0112    0.84879  -2.1666 
 H                    -0.69277   2.29653   1.68009 
 H                     1.34491   0.89159   1.49965 
 H                    -1.70133   4.24389   0.71752 
 H                    -5.74885   4.87842   0.20685 
 H                    -6.07412   2.59704  -0.77754 
 H                    -4.09374   1.06885  -0.96817 
 
 NAtoms=     50 NQM=        0 NQMF=       0 NMMI=     50 NMMIF=      0
                NMic=       0 NMicF=      0.
                    Isotopes and Nuclear Properties:
 (Nuclear quadrupole moments (NQMom) in fm**2, nuclear magnetic moments (NMagM)
  in nuclear magnetons)

  Atom         1           2           3           4           5           6           7           8           9          10
 IAtWgt=          16          12          12          14          14          14          12          12          12          12
 AtmWgt=  15.9949146  12.0000000  12.0000000  14.0030740  14.0030740  14.0030740  12.0000000  12.0000000  12.0000000  12.0000000
 NucSpn=           0           0           0           2           2           2           0           0           0           0
 AtZEff=   0.0000000   0.0000000   0.0000000   0.0000000   0.0000000   0.0000000   0.0000000   0.0000000   0.0000000   0.0000000
 NQMom=    0.0000000   0.0000000   0.0000000   2.0440000   2.0440000   2.0440000   0.0000000   0.0000000   0.0000000   0.0000000
 NMagM=    0.0000000   0.0000000   0.0000000   0.4037610   0.4037610   0.4037610   0.0000000   0.0000000   0.0000000   0.0000000

  Atom        11          12          13          14          15          16          17          18          19          20
 IAtWgt=          12          12          14          12          12          12          32          12          12          12
 AtmWgt=  12.0000000  12.0000000  14.0030740  12.0000000  12.0000000  12.0000000  31.9720718  12.0000000  12.0000000  12.0000000
 NucSpn=           0           0           2           0           0           0           0           0           0           0
 AtZEff=   0.0000000   0.0000000   0.0000000   0.0000000   0.0000000   0.0000000   0.0000000   0.0000000   0.0000000   0.0000000
 NQMom=    0.0000000   0.0000000   2.0440000   0.0000000   0.0000000   0.0000000   0.0000000   0.0000000   0.0000000   0.0000000
 NMagM=    0.0000000   0.0000000   0.4037610   0.0000000   0.0000000   0.0000000   0.0000000   0.0000000   0.0000000   0.0000000

  Atom        21          22          23          24          25          26          27          28          29          30
 IAtWgt=          12          12          12          12          12          12          12          14          12          12
 AtmWgt=  12.0000000  12.0000000  12.0000000  12.0000000  12.0000000  12.0000000  12.0000000  14.0030740  12.0000000  12.0000000
 NucSpn=           0           0           0           0           0           0           0           2           0           0
 AtZEff=   0.0000000   0.0000000   0.0000000   0.0000000   0.0000000   0.0000000   0.0000000   0.0000000   0.0000000   0.0000000
 NQMom=    0.0000000   0.0000000   0.0000000   0.0000000   0.0000000   0.0000000   0.0000000   2.0440000   0.0000000   0.0000000
 NMagM=    0.0000000   0.0000000   0.0000000   0.0000000   0.0000000   0.0000000   0.0000000   0.4037610   0.0000000   0.0000000

  Atom        31          32          33          34          35          36          37          38          39          40
 IAtWgt=          12           1           1           1           1           1           1           1           1           1
 AtmWgt=  12.0000000   1.0078250   1.0078250   1.0078250   1.0078250   1.0078250   1.0078250   1.0078250   1.0078250   1.0078250
 NucSpn=           0           1           1           1           1           1           1           1           1           1
 AtZEff=   0.0000000   0.0000000   0.0000000   0.0000000   0.0000000   0.0000000   0.0000000   0.0000000   0.0000000   0.0000000
 NQMom=    0.0000000   0.0000000   0.0000000   0.0000000   0.0000000   0.0000000   0.0000000   0.0000000   0.0000000   0.0000000
 NMagM=    0.0000000   2.7928460   2.7928460   2.7928460   2.7928460   2.7928460   2.7928460   2.7928460   2.7928460   2.7928460

  Atom        41          42          43          44          45          46          47          48          49          50
 IAtWgt=           1           1           1           1           1           1           1           1           1           1
 AtmWgt=   1.0078250   1.0078250   1.0078250   1.0078250   1.0078250   1.0078250   1.0078250   1.0078250   1.0078250   1.0078250
 NucSpn=           1           1           1           1           1           1           1           1           1           1
 AtZEff=   0.0000000   0.0000000   0.0000000   0.0000000   0.0000000   0.0000000   0.0000000   0.0000000   0.0000000   0.0000000
 NQMom=    0.0000000   0.0000000   0.0000000   0.0000000   0.0000000   0.0000000   0.0000000   0.0000000   0.0000000   0.0000000
 NMagM=    2.7928460   2.7928460   2.7928460   2.7928460   2.7928460   2.7928460   2.7928460   2.7928460   2.7928460   2.7928460
 Leave Link  101 at Sat Sep 10 07:20:38 2022, MaxMem=  209715200 cpu:       0.7
 (Enter /opt/gaussian/l202.exe)
                          Input orientation:                          
 ---------------------------------------------------------------------
 Center     Atomic      Atomic             Coordinates (Angstroms)
 Number     Number       Type             X           Y           Z
 ---------------------------------------------------------------------
      1          8           0        3.277930   -2.470230    0.253690
      2          6           0        2.189240   -1.912080    0.218460
      3          6           0        1.022920   -2.502350    1.031540
      4          7           0       -0.166890   -2.788470    0.247820
      5          7           0       -0.052970   -3.275610   -1.021560
      6          7           0       -1.228470   -3.516350   -1.499690
      7          6           0       -2.163570   -3.203900   -0.532760
      8          6           0       -1.486070   -2.731840    0.612010
      9          6           0       -2.169150   -2.335220    1.774400
     10          6           0       -3.555140   -2.426420    1.737780
     11          6           0       -4.247630   -2.896630    0.592370
     12          6           0       -3.567220   -3.289740   -0.551850
     13          7           0        1.967310   -0.769140   -0.508020
     14          6           0        3.082950   -0.274530   -1.347150
     15          6           0        4.023410    0.667120   -0.629750
     16          6           0        5.029470    0.248260    0.209990
     17         16           0        5.917220    1.582590    0.874820
     18          6           0        4.931310    2.727890    0.015480
     19          6           0        3.974210    2.097860   -0.735300
     20          6           0        0.788470    0.039510   -0.402730
     21          6           0       -0.160010    0.040540   -1.434730
     22          6           0       -1.289720    0.851530   -1.347300
     23          6           0       -1.508000    1.679870   -0.229610
     24          6           0       -0.544150    1.675870    0.794410
     25          6           0        0.595370    0.873770    0.706070
     26          6           0       -2.721390    2.529380   -0.135390
     27          6           0       -2.663550    3.833950    0.392270
     28          7           0       -3.713380    4.653000    0.513570
     29          6           0       -4.901030    4.194360    0.095320
     30          6           0       -5.083030    2.922790   -0.455250
     31          6           0       -3.979330    2.079360   -0.569340
     32          1           0        0.733140   -1.811140    1.835920
     33          1           0        1.419790   -3.422860    1.482010
     34          1           0       -1.647640   -1.975010    2.662420
     35          1           0       -4.130130   -2.130020    2.617800
     36          1           0       -5.337760   -2.952020    0.620490
     37          1           0       -4.086350   -3.657390   -1.438290
     38          1           0        3.626240   -1.160610   -1.697730
     39          1           0        2.634430    0.229300   -2.214520
     40          1           0        5.276400   -0.777480    0.474910
     41          1           0        5.121850    3.794810    0.111200
     42          1           0        3.253010    2.631910   -1.356020
     43          1           0       -0.014150   -0.614200   -2.295180
     44          1           0       -2.011200    0.848790   -2.166600
     45          1           0       -0.692770    2.296530    1.680090
     46          1           0        1.344910    0.891590    1.499650
     47          1           0       -1.701330    4.243890    0.717520
     48          1           0       -5.748850    4.878420    0.206850
     49          1           0       -6.074120    2.597040   -0.777540
     50          1           0       -4.093740    1.068850   -0.968170
 ---------------------------------------------------------------------
                    Distance matrix (angstroms):
                    1          2          3          4          5
     1  O    0.000000
     2  C    1.223936   0.000000
     3  C    2.385614   1.539422   0.000000
     4  N    3.459494   2.514015   1.453179   0.000000
     5  N    3.656473   2.902476   2.443500   1.364408   0.000000
     6  N    4.947358   4.148067   3.536111   2.170381   1.291652
     7  C    5.546774   4.602183   3.618415   2.183717   2.167649
     8  C    4.784614   3.786131   2.554154   1.369700   2.240092
     9  C    5.656984   4.647102   3.281628   2.558306   3.630419
    10  C    6.992517   5.964124   4.632836   3.719045   4.538753
    11  C    7.545235   6.522457   5.303492   4.096688   4.510385
    12  C    6.940934   5.968933   4.918993   3.528879   3.545530
    13  N    2.278516   1.372348   2.503225   3.033776   3.260007
    14  C    2.724299   2.435451   3.855525   4.407412   4.352756
    15  C    3.343527   3.276570   4.669943   5.501804   5.684673
    16  C    3.234191   3.568480   4.928818   6.018747   6.305995
    17  S    4.876167   5.151831   6.376948   7.517692   7.927265
    18  C    5.459932   5.393466   6.607821   7.515042   7.871500
    19  C    4.725500   4.491703   5.744020   6.480081   6.721183
    20  C    3.595427   2.481277   2.927994   3.055061   3.475772
    21  C    4.579755   3.473433   3.734716   3.291553   3.343504
    22  C    5.870322   4.710871   4.717594   4.129740   4.320757
    23  C    6.353112   5.174211   5.048467   4.689624   5.225043
    24  C    5.664876   4.547145   4.468720   4.513471   5.296806
    25  C    4.310813   3.246405   3.418613   3.768691   4.541190
    26  C    7.819164   6.630691   6.379647   5.912009   6.450091
    27  C    8.663895   7.523074   7.358493   7.078886   7.704537
    28  N    9.984306   8.833362   8.596503   8.247648   8.866684
    29  C   10.551646   9.358189   8.989751   8.437728   8.975052
    30  C    9.974613   8.758754   8.302127   7.568436   8.002648
    31  C    8.604881   7.389417   6.969748   6.236844   6.655562
    32  H    3.068193   2.178668   1.099441   2.070577   3.305727
    33  H    2.422593   2.114490   1.098985   2.107897   2.908362
    34  H    5.505312   4.549566   3.173287   2.946970   4.219744
    35  H    7.783580   6.763044   5.404514   4.664508   5.583955
    36  H    8.636943   7.609128   6.389790   5.186861   5.543469
    37  H    7.648841   6.721157   5.791271   4.354326   4.072785
    38  H    2.375808   2.510271   4.003306   4.563215   4.297327
    39  H    3.713976   3.271558   4.538258   4.797650   4.574895
    40  H    2.628350   3.299036   4.623538   5.807328   6.073077
    41  H    6.532310   6.417188   7.569840   8.445650   8.834747
    42  H    5.350105   4.925286   6.085587   6.606704   6.777917
    43  H    4.558440   3.585778   3.963293   3.349273   2.950715
    44  H    6.696909   5.563687   5.537520   4.739258   4.707065
    45  H    6.365774   5.306104   5.137456   5.308971   6.225512
    46  H    4.073183   3.196077   3.441167   4.170786   5.067161
    47  H    8.371832   7.299422   7.282301   7.213128   7.892045
    48  H   11.639914  10.446258  10.050510   9.483731  10.021988
    49  H   10.686510   9.466113   8.924378   8.059184   8.414381
    50  H    8.267983   7.054777   6.552291   5.637171   5.933381
                    6          7          8          9         10
     6  N    0.000000
     7  C    1.380938   0.000000
     8  C    2.267397   1.411505   0.000000
     9  C    3.605498   2.465284   1.405367   0.000000
    10  C    4.133104   2.774220   2.375224   1.389470   0.000000
    11  C    3.725063   2.388229   2.766542   2.456106   1.418663
    12  C    2.533674   1.406402   2.448879   2.877003   2.447013
    13  N    4.329386   4.795085   4.127044   4.977183   6.187701
    14  C    5.396388   6.063861   5.545505   6.447873   7.629657
    15  C    6.770558   7.298830   6.591606   7.289841   8.521127
    16  C    7.500474   8.013046   7.175993   7.806528   9.120504
    17  S    9.093865   9.496891   8.572752   9.030385  10.321941
    18  C    8.901077   9.264126   8.446731   8.896371  10.077354
    19  C    7.692303   8.113077   7.413225   7.980706   9.125587
    20  C    4.232672   4.387614   3.726072   4.373414   5.434109
    21  C    3.714471   3.918443   3.692380   4.469832   5.260952
    22  C    4.370967   4.227718   4.088764   4.546843   5.039326
    23  C    5.356486   4.936890   4.491324   4.535871   4.992296
    24  C    5.717546   5.309996   4.510919   4.437324   5.175402
    25  C    5.240699   5.076794   4.164332   4.368240   5.402075
    26  C    6.375028   5.774042   5.455736   5.255150   5.363195
    27  C    7.724369   7.115967   6.674155   6.341402   6.465103
    28  N    8.773042   8.076360   7.714043   7.267018   7.186231
    29  C    8.688314   7.913433   7.739584   7.274469   6.952972
    30  C    7.577005   6.787163   6.786163   6.411607   5.979789
    31  C    6.304344   5.586695   5.546132   5.315862   5.079842
    32  H    4.228705   3.992663   2.696393   2.949870   4.333307
    33  H    3.989055   4.116760   3.111018   3.761508   5.080181
    34  H    4.458093   3.462012   2.191592   1.091010   2.167322
    35  H    5.224487   3.866084   3.372897   2.144498   1.092200
    36  H    4.658315   3.386578   3.857987   3.428125   2.168485
    37  H    2.862017   2.173182   3.438289   3.968018   3.447447
    38  H    5.399717   6.249327   5.825751   6.857255   8.060845
    39  H    5.427971   6.134817   5.808282   6.750009   7.809245
    40  H    7.328969   7.890251   7.040548   7.716958   9.072483
    41  H    9.817056  10.122943   9.301214   9.669653  10.799982
    42  H    7.609560   8.004610   7.423061   7.991979   9.028245
    43  H    3.244973   3.799036   3.886219   4.916037   5.664585
    44  H    4.484627   4.372293   4.562603   5.068959   5.324935
    45  H    6.647372   6.108575   5.201406   4.862273   5.522929
    46  H    5.920157   5.763086   4.683118   4.778745   5.922532
    47  H    8.084611   7.566138   6.979848   6.679861   6.997898
    48  H    9.685984   8.872720   8.732211   8.204149   7.779254
    49  H    7.834243   7.000230   7.167846   6.788842   6.156886
    50  H    5.432895   4.708665   4.872592   4.776341   4.452995
                   11         12         13         14         15
    11  C    0.000000
    12  C    1.388068   0.000000
    13  N    6.660522   6.081642   0.000000
    14  C    8.023375   7.344982   1.481024   0.000000
    15  C    9.088674   8.560401   2.511017   1.511897   0.000000
    16  C    9.803118   9.327429   3.305672   2.546946   1.375777
    17  S   11.111587  10.757769   4.800486   4.052053   2.586181
    18  C   10.780583  10.428746   4.613954   3.779910   2.342515
    19  C    9.711143   9.270008   3.506992   2.607094   1.435471
    20  C    5.913835   5.484358   1.433410   2.501038   3.303070
    21  C    5.426301   4.845547   2.457613   3.259406   4.305996
    22  C    5.153664   4.792689   3.733525   4.515335   5.364535
    23  C    5.396812   5.388993   4.260627   5.113257   5.637577
    24  C    5.887643   5.967298   3.739228   4.641788   4.889623
    25  C    6.138688   6.020327   2.460770   3.423793   3.684912
    26  C    5.683364   5.895000   5.744823   6.559012   7.014608
    27  C    6.917374   7.242578   6.591193   7.275126   7.469188
    28  N    7.568920   8.015211   7.919185   8.598426   8.777946
    29  C    7.138356   7.629524   8.495554   9.262593   9.623553
    30  C    5.971687   6.395509   7.958670   8.814849   9.383270
    31  C    5.116838   5.384921   6.593955   7.484757   8.126618
    32  H    5.247168   5.136224   2.846576   4.244374   4.800748
    33  H    5.760905   5.387446   3.361879   4.547772   5.288318
    34  H    3.448831   3.967976   4.957184   6.430145   7.069656
    35  H    2.168839   3.421768   6.985808   8.437547   9.211449
    36  H    1.091898   2.150174   7.707305   9.052564  10.113989
    37  H    2.174476   1.091072   6.771572   7.927857   9.226231
    38  H    8.381894   7.588946   2.078631   1.096908   2.153816
    39  H    8.063053   7.321788   2.086642   1.098793   2.152312
    40  H    9.757650   9.250692   3.451999   2.895528   2.208422
    41  H   11.523630  11.230780   5.582490   4.779480   3.396766
    42  H    9.519484   9.067975   3.733533   2.911424   2.231901
    43  H    5.609794   4.777240   2.672851   3.256711   4.551629
    44  H    5.161560   4.707021   4.604034   5.280503   6.229882
    45  H    6.386633   6.667116   4.611094   5.480018   5.498426
    46  H    6.815444   6.769135   2.678833   3.533396   3.429153
    47  H    7.581974   7.864377   6.331772   6.896979   6.883391
    48  H    7.928032   8.488461   9.588801  10.342558  10.673894
    49  H    5.949212   6.402317   8.721720   9.613652  10.281369
    50  H    4.264270   4.409972   6.350297   7.311168   8.134128
                   16         17         18         19         20
    16  C    0.000000
    17  S    1.735089   0.000000
    18  C    2.489183   1.738446   0.000000
    19  C    2.329843   2.575515   1.369908   0.000000
    20  C    4.290115   5.506115   4.956350   3.807407   0.000000
    21  C    5.447839   6.681666   5.936876   4.670497   1.401656
    22  C    6.536149   7.577087   6.639210   5.443973   2.422904
    23  C    6.706808   7.507538   6.528639   5.521328   2.827459
    24  C    5.783153   6.462544   5.629755   4.788911   2.426251
    25  C    4.505397   5.371498   4.766031   3.872015   1.400969
    26  C    8.086942   8.748858   7.656761   6.736257   4.311617
    27  C    8.489579   8.884317   7.684220   6.953077   5.190977
    28  N    9.794454  10.114661   8.870446   8.196796   6.510802
    29  C   10.686425  11.156321   9.941419   9.157245   7.062665
    30  C   10.481332  11.161125  10.027292   9.099040   6.541450
    31  C    9.225983  10.013695   8.953330   7.955293   5.188513
    32  H    5.034206   6.270231   6.445264   5.691747   2.905085
    33  H    5.303296   6.756485   7.232787   6.474556   3.992345
    34  H    7.452593   8.548634   8.509180   7.729034   4.403188
    35  H    9.764837  10.852221  10.605709   9.736456   6.166286
    36  H   10.857705  12.136801  11.750796  10.679524   6.893977
    37  H   10.053313  11.527328  11.144660   9.929236   6.205105
    38  H    2.755606   4.403606   4.445079   3.415404   3.342193
    39  H    3.408053   4.706604   4.060974   2.733975   2.593486
    40  H    1.087796   2.478005   3.552152   3.380516   4.645346
    41  H    3.549128   2.471770   1.088019   2.216592   5.757133
    42  H    3.360057   3.629839   2.169543   1.091161   3.701791
    43  H    5.697176   7.075022   6.400491   5.069074   2.157059
    44  H    7.455189   8.523411   7.516045   6.279644   3.406512
    45  H    6.253050   6.697025   5.881095   5.258734   3.409743
    46  H    3.956397   4.666252   4.293835   3.655586   2.157479
    47  H    7.843871   8.071528   6.839812   6.239222   5.013070
    48  H   11.730753  12.141082  10.896202  10.156626   8.156175
    49  H   11.392177  12.147083  11.034740  10.060810   7.333252
    50  H    9.235496  10.192147   9.228841   8.136640   5.021478
                   21         22         23         24         25
    21  C    0.000000
    22  C    1.393411   0.000000
    23  C    2.440654   1.408199   0.000000
    24  C    2.791224   2.412951   1.406286   0.000000
    25  C    2.418242   2.787541   2.439151   1.396307   0.000000
    26  C    3.800431   2.516662   1.484203   2.516621   3.801315
    27  C    4.898530   3.715958   2.522319   3.051374   4.413807
    28  N    6.139796   4.877309   3.775648   4.357315   5.734541
    29  C    6.486335   5.128082   4.235669   5.080740   6.450562
    30  C    5.788167   4.413057   3.791649   4.870102   6.147469
    31  C    4.415076   3.057252   2.526357   3.717940   4.899796
    32  H    3.863106   4.616781   4.634250   3.856871   2.916210
    33  H    4.795652   5.798004   6.126945   5.506987   4.443285
    34  H    4.802304   4.918871   4.662776   4.246890   4.119945
    35  H    6.074223   5.716606   5.431259   5.537942   5.916740
    36  H    6.323641   5.892862   6.069937   6.665307   7.060172
    37  H    5.393593   5.306579   6.049392   6.780545   6.859169
    38  H    3.980907   5.323361   6.048481   5.625703   4.370713
    39  H    2.907335   4.066718   4.817027   4.609728   3.619800
    40  H    5.819831   7.006287   7.250035   6.324540   4.969115
    41  H    6.662018   7.204051   6.967355   6.087712   5.419905
    42  H    4.286035   4.879162   4.984215   4.467302   3.795566
    43  H    1.091024   2.161925   3.429420   3.882124   3.404860
    44  H    2.148443   1.091693   2.166987   3.406446   3.879055
    45  H    3.882709   3.407266   2.166062   1.091667   2.152270
    46  H    3.405827   3.879176   3.427947   2.163563   1.091740
    47  H    4.967494   3.992620   2.740188   2.817748   4.078317
    48  H    7.571988   6.206051   5.329731   6.139255   7.519014
    49  H    6.476441   5.124638   4.689443   5.822383   7.046478
    50  H    4.092595   2.837868   2.757692   4.009333   4.982859
                   26         27         28         29         30
    26  C    0.000000
    27  C    1.408429   0.000000
    28  N    2.432068   1.337049   0.000000
    29  C    2.752493   2.285693   1.340073   0.000000
    30  C    2.415456   2.720733   2.410017   1.397548   0.000000
    31  C    1.404722   2.394693   2.804826   2.400943   1.393752
    32  H    5.887271   6.744529   7.956460   8.416626   7.841389
    33  H    7.429301   8.397767   9.618047   9.994884   9.290152
    34  H    5.410195   6.318993   7.267417   7.432071   6.746126
    35  H    5.592371   6.532440   7.114129   6.852370   5.990204
    36  H    6.120661   7.297457   7.777298   7.178947   5.977917
    37  H    6.468136   7.841906   8.544674   8.041495   6.727444
    38  H    7.506620   8.299108   9.620703  10.227662   9.698933
    39  H    6.188534   6.917908   8.204041   8.822710   8.361167
    40  H    8.675969   9.182316  10.502750  11.333286  11.039700
    41  H    7.948493   7.790570   8.885926  10.030853  10.257722
    42  H    6.098681   6.285467   7.490712   8.428286   8.389610
    43  H    4.677172   5.833331   7.022590   7.260739   6.448968
    44  H    2.730305   3.985543   4.955072   4.965908   4.082442
    45  H    2.732304   2.811781   4.004723   4.880851   4.922018
    46  H    4.678729   5.094264   6.380193   7.203624   7.018961
    47  H    2.169683   1.095311   2.063325   3.260010   3.815310
    48  H    3.847159   3.262572   2.070756   1.095069   2.169373
    49  H    3.414342   3.811875   3.386300   2.165515   1.091899
    50  H    2.170257   3.397355   3.896968   3.398756   2.163071
                   31         32         33         34         35
    31  C    0.000000
    32  H    6.567240   0.000000
    33  H    7.977027   1.787283   0.000000
    34  H    5.684977   2.525484   3.591485   0.000000
    35  H    5.281996   4.936032   5.810599   2.487725   0.000000
    36  H    5.345635   6.295610   6.828498   4.329089   2.474531
    37  H    5.803174   6.112002   6.237045   5.059005   4.334356
    38  H    8.343582   4.613014   4.482961   6.891151   8.928876
    39  H    7.061952   4.917760   5.336474   6.854170   8.641584
    40  H    9.742717   4.854072   4.783903   7.359457   9.741876
    41  H    9.286408   7.325443   8.226733   9.253407  11.268797
    42  H    7.295952   6.023198   6.933639   7.835046   9.642509
    43  H    5.094746   4.365443   4.920561   5.394246   6.586074
    44  H    2.817637   5.534148   6.582632   5.605841   6.021101
    45  H    3.988555   4.350914   6.100292   4.485845   5.682349
    46  H    5.834299   2.791431   4.315136   4.304043   6.352673
    47  H    3.395656   6.621242   8.312935   6.516152   7.080739
    48  H    3.401236   9.456230  11.042042   8.355791   7.586248
    49  H    2.167830   8.520623   9.874383   7.233996   6.136166
    50  H    1.092376   6.281404   7.521825   5.331948   4.805546
                   36         37         38         39         40
    36  H    0.000000
    37  H    2.510408   0.000000
    38  H    9.430620   8.110812   0.000000
    39  H    9.039574   7.802421   1.783987   0.000000
    40  H   10.835599   9.980747   2.755028   3.902133   0.000000
    41  H   12.457228  11.946847   5.483180   4.930425   4.589336
    42  H   10.434951   9.665830   3.826130   2.625300   4.366961
    43  H    6.504411   5.155393   3.729336   2.780823   5.974109
    44  H    5.768885   5.014214   6.003187   4.686997   7.920318
    45  H    7.088439   7.529266   6.481924   5.523738   6.821509
    46  H    7.759145   7.669635   4.431617   3.987048   4.392323
    47  H    8.063136   8.530303   7.963985   6.596409   8.600101
    48  H    7.852126   8.850449  11.313250   9.887200  12.394241
    49  H    5.769643   6.595886  10.443355   9.138378  11.907574
    50  H    4.498758   4.749570   8.068509   6.893947   9.658723
                   41         42         43         44         45
    41  H    0.000000
    42  H    2.645304   0.000000
    43  H    7.183908   4.700381   0.000000
    44  H    8.046602   5.616802   2.478927   0.000000
    45  H    6.206131   4.989952   4.973494   4.316391   0.000000
    46  H    4.962031   3.850248   4.302927   4.970583   2.481644
    47  H    6.864771   5.607453   5.960199   4.465520   2.394983
    48  H   10.924993   9.408658   8.325612   5.986753   5.865197
    49  H   11.294877   9.345117   7.024139   4.636074   5.923612
    50  H    9.670729   7.521191   4.608326   2.412806   4.481861
                   46         47         48         49         50
    46  H    0.000000
    47  H    4.596653   0.000000
    48  H    8.239392   4.128660   0.000000
    49  H    7.945827   4.905977   2.505897   0.000000
    50  H    5.974987   4.318108   4.316583   2.508707   0.000000
 Stoichiometry    C24H19N5OS
 Framework group  C1[X(C24H19N5OS)]
 Deg. of freedom   144
 Full point group                 C1      NOp   1
 Largest Abelian subgroup         C1      NOp   1
 Largest concise Abelian subgroup C1      NOp   1
                         Standard orientation:                         
 ---------------------------------------------------------------------
 Center     Atomic      Atomic             Coordinates (Angstroms)
 Number     Number       Type             X           Y           Z
 ---------------------------------------------------------------------
      1          8           0        3.277929   -2.470231    0.253690
      2          6           0        2.189240   -1.912081    0.218460
      3          6           0        1.022919   -2.502351    1.031540
      4          7           0       -0.166891   -2.788470    0.247820
      5          7           0       -0.052971   -3.275610   -1.021560
      6          7           0       -1.228471   -3.516350   -1.499690
      7          6           0       -2.163571   -3.203900   -0.532760
      8          6           0       -1.486071   -2.731840    0.612010
      9          6           0       -2.169151   -2.335220    1.774400
     10          6           0       -3.555141   -2.426420    1.737780
     11          6           0       -4.247631   -2.896630    0.592370
     12          6           0       -3.567221   -3.289740   -0.551850
     13          7           0        1.967310   -0.769141   -0.508020
     14          6           0        3.082950   -0.274531   -1.347150
     15          6           0        4.023410    0.667119   -0.629750
     16          6           0        5.029470    0.248259    0.209990
     17         16           0        5.917220    1.582589    0.874820
     18          6           0        4.931310    2.727889    0.015480
     19          6           0        3.974210    2.097859   -0.735300
     20          6           0        0.788470    0.039509   -0.402730
     21          6           0       -0.160010    0.040540   -1.434730
     22          6           0       -1.289720    0.851530   -1.347300
     23          6           0       -1.508000    1.679870   -0.229610
     24          6           0       -0.544150    1.675870    0.794410
     25          6           0        0.595370    0.873769    0.706070
     26          6           0       -2.721390    2.529380   -0.135390
     27          6           0       -2.663550    3.833950    0.392270
     28          7           0       -3.713380    4.653000    0.513570
     29          6           0       -4.901030    4.194360    0.095320
     30          6           0       -5.083030    2.922790   -0.455250
     31          6           0       -3.979330    2.079360   -0.569340
     32          1           0        0.733140   -1.811141    1.835920
     33          1           0        1.419789   -3.422861    1.482010
     34          1           0       -1.647640   -1.975010    2.662420
     35          1           0       -4.130131   -2.130020    2.617800
     36          1           0       -5.337761   -2.952020    0.620490
     37          1           0       -4.086351   -3.657390   -1.438290
     38          1           0        3.626240   -1.160611   -1.697730
     39          1           0        2.634430    0.229299   -2.214520
     40          1           0        5.276400   -0.777481    0.474910
     41          1           0        5.121850    3.794809    0.111200
     42          1           0        3.253010    2.631909   -1.356020
     43          1           0       -0.014150   -0.614200   -2.295180
     44          1           0       -2.011200    0.848790   -2.166600
     45          1           0       -0.692770    2.296530    1.680090
     46          1           0        1.344910    0.891589    1.499650
     47          1           0       -1.701330    4.243890    0.717520
     48          1           0       -5.748850    4.878420    0.206850
     49          1           0       -6.074120    2.597040   -0.777540
     50          1           0       -4.093740    1.068850   -0.968170
 ---------------------------------------------------------------------
 Rotational constants (GHZ):      0.1720956      0.1011710      0.0696291
 Leave Link  202 at Sat Sep 10 07:20:38 2022, MaxMem=  209715200 cpu:       0.0
 (Enter /opt/gaussian/l301.exe)
 Standard basis: CC-pVDZ (5D, 7F)
 Ernie: Thresh=  0.10000D-02 Tol=  0.10000D-05 Strict=F.
 Ernie:  70 primitive shells out of 805 were deleted.
 There are   533 symmetry adapted basis functions of A   symmetry.
 Integral buffers will be    131072 words long.
 Raffenetti 2 integral format.
 Two-electron integral symmetry is turned on.
   533 basis functions,  1194 primitive gaussians,   564 cartesian basis functions
   111 alpha electrons      111 beta electrons
       nuclear repulsion energy      3023.6927059239 Hartrees.
 IExCor=  402 DFT=T Ex+Corr=B3LYP ExCW=0 ScaHFX=  0.200000
 ScaDFX=  0.800000  0.720000  1.000000  0.810000 ScalE2=  1.000000  1.000000
 IRadAn=      0 IRanWt=     -1 IRanGd=            0 ICorTp=0
 NAtoms=   50 NActive=   50 NUniq=   50 SFac= 1.00D+00 NAtFMM=   60 NAOKFM=F Big=F
 Leave Link  301 at Sat Sep 10 07:20:38 2022, MaxMem=  209715200 cpu:       0.3
 (Enter /opt/gaussian/l302.exe)
 NPDir=0 NMtPBC=     1 NCelOv=     1 NCel=       1 NClECP=     1 NCelD=      1
         NCelK=      1 NCelE2=     1 NClLst=     1 CellRange=     0.0.
 One-electron integrals computed using PRISM.
 NBasis=   533 RedAO= T  NBF=   533
 NBsUse=   533 1.00D-06 NBFU=   533
 Precomputing XC quadrature grid using
 IXCGrd= 2 IRadAn=           0 IRanWt=          -1 IRanGd=           0 AccXCQ= 0.00D+00.
 NRdTot=    3205 NPtTot=      409046 NUsed=      432144 NTot=      432176
 NSgBfM=   552   553   553   553   553 NAtAll=    50    50.
 Leave Link  302 at Sat Sep 10 07:20:39 2022, MaxMem=  209715200 cpu:       8.3
 (Enter /opt/gaussian/l303.exe)
 DipDrv:  MaxL=1.
 Leave Link  303 at Sat Sep 10 07:20:39 2022, MaxMem=  209715200 cpu:       1.2
 (Enter /opt/gaussian/l401.exe)
 Harris functional with IExCor=  402 diagonalized for initial guess.
 ExpMin= 1.22D-01 ExpMax= 1.11D+05 ExpMxC= 1.07D+03 IAcc=2 IRadAn=         4 AccDes= 0.00D+00
 HarFok:  IExCor=  402 AccDes= 0.00D+00 IRadAn=         4 IDoV= 1
 ScaDFX=  1.000000  1.000000  1.000000  1.000000
 FoFCou: FMM=F IPFlag=           0 FMFlag=      100000 FMFlg1=           0
         NFxFlg=           0 DoJE=T BraDBF=F KetDBF=T FulRan=T
         Omega=  0.000000  0.000000  1.000000  0.000000  0.000000 ICntrl=     500 IOpCl=  0
         NMat0=    1 NMatS0=    1 NMatT0=    0 NMatD0=    1 NMtDS0=    0 NMtDT0=    0
         I1Cent=           4 NGrid=           0.
 Petite list used in FoFCou.
 Harris En= -1672.99931509556    
 Initial guess orbital symmetries:
       Occupied  (A) (A) (A) (A) (A) (A) (A) (A) (A) (A) (A) (A)
                 (A) (A) (A) (A) (A) (A) (A) (A) (A) (A) (A) (A)
                 (A) (A) (A) (A) (A) (A) (A) (A) (A) (A) (A) (A)
                 (A) (A) (A) (A) (A) (A) (A) (A) (A) (A) (A) (A)
                 (A) (A) (A) (A) (A) (A) (A) (A) (A) (A) (A) (A)
                 (A) (A) (A) (A) (A) (A) (A) (A) (A) (A) (A) (A)
                 (A) (A) (A) (A) (A) (A) (A) (A) (A) (A) (A) (A)
                 (A) (A) (A) (A) (A) (A) (A) (A) (A) (A) (A) (A)
                 (A) (A) (A) (A) (A) (A) (A) (A) (A) (A) (A) (A)
                 (A) (A) (A)
       Virtual   (A) (A) (A) (A) (A) (A) (A) (A) (A) (A) (A) (A)
                 (A) (A) (A) (A) (A) (A) (A) (A) (A) (A) (A) (A)
                 (A) (A) (A) (A) (A) (A) (A) (A) (A) (A) (A) (A)
                 (A) (A) (A) (A) (A) (A) (A) (A) (A) (A) (A) (A)
                 (A) (A) (A) (A) (A) (A) (A) (A) (A) (A) (A) (A)
                 (A) (A) (A) (A) (A) (A) (A) (A) (A) (A) (A) (A)
                 (A) (A) (A) (A) (A) (A) (A) (A) (A) (A) (A) (A)
                 (A) (A) (A) (A) (A) (A) (A) (A) (A) (A) (A) (A)
                 (A) (A) (A) (A) (A) (A) (A) (A) (A) (A) (A) (A)
                 (A) (A) (A) (A) (A) (A) (A) (A) (A) (A) (A) (A)
                 (A) (A) (A) (A) (A) (A) (A) (A) (A) (A) (A) (A)
                 (A) (A) (A) (A) (A) (A) (A) (A) (A) (A) (A) (A)
                 (A) (A) (A) (A) (A) (A) (A) (A) (A) (A) (A) (A)
                 (A) (A) (A) (A) (A) (A) (A) (A) (A) (A) (A) (A)
                 (A) (A) (A) (A) (A) (A) (A) (A) (A) (A) (A) (A)
                 (A) (A) (A) (A) (A) (A) (A) (A) (A) (A) (A) (A)
                 (A) (A) (A) (A) (A) (A) (A) (A) (A) (A) (A) (A)
                 (A) (A) (A) (A) (A) (A) (A) (A) (A) (A) (A) (A)
                 (A) (A) (A) (A) (A) (A) (A) (A) (A) (A) (A) (A)
                 (A) (A) (A) (A) (A) (A) (A) (A) (A) (A) (A) (A)
                 (A) (A) (A) (A) (A) (A) (A) (A) (A) (A) (A) (A)
                 (A) (A) (A) (A) (A) (A) (A) (A) (A) (A) (A) (A)
                 (A) (A) (A) (A) (A) (A) (A) (A) (A) (A) (A) (A)
                 (A) (A) (A) (A) (A) (A) (A) (A) (A) (A) (A) (A)
                 (A) (A) (A) (A) (A) (A) (A) (A) (A) (A) (A) (A)
                 (A) (A) (A) (A) (A) (A) (A) (A) (A) (A) (A) (A)
                 (A) (A) (A) (A) (A) (A) (A) (A) (A) (A) (A) (A)
                 (A) (A) (A) (A) (A) (A) (A) (A) (A) (A) (A) (A)
                 (A) (A) (A) (A) (A) (A) (A) (A) (A) (A) (A) (A)
                 (A) (A) (A) (A) (A) (A) (A) (A) (A) (A) (A) (A)
                 (A) (A) (A) (A) (A) (A) (A) (A) (A) (A) (A) (A)
                 (A) (A) (A) (A) (A) (A) (A) (A) (A) (A) (A) (A)
                 (A) (A) (A) (A) (A) (A) (A) (A) (A) (A) (A) (A)
                 (A) (A) (A) (A) (A) (A) (A) (A) (A) (A) (A) (A)
                 (A) (A) (A) (A) (A) (A) (A) (A) (A) (A) (A) (A)
                 (A) (A)
 The electronic state of the initial guess is 1-A.
 Leave Link  401 at Sat Sep 10 07:20:42 2022, MaxMem=  209715200 cpu:      27.9
 (Enter /opt/gaussian/l502.exe)
 Closed shell SCF:
 Requested convergence on RMS density matrix=1.00D-08 within 128 cycles.
 Requested convergence on MAX density matrix=1.00D-06.
 Requested convergence on             energy=1.00D-06.
 No special actions if energy rises.
 Using DIIS extrapolation, IDIIS=  1040.
 Integral symmetry usage will be decided dynamically.
       431681 words used for storage of precomputed grid.
 IEnd=     1412889 IEndB=     1412889 NGot=   209715200 MDV=   208637612
 LenX=   208637612 LenY=   208318952
 Fock matrices will be formed incrementally for  20 cycles.
 Integral accuracy reduced to 1.0D-05 until final iterations.

 Cycle   1  Pass 0  IDiag  1:
 FoFCou: FMM=F IPFlag=           0 FMFlag=      100000 FMFlg1=           0
         NFxFlg=           0 DoJE=F BraDBF=F KetDBF=F FulRan=T
         Omega=  0.000000  0.000000  1.000000  0.000000  0.000000 ICntrl=       0 IOpCl=  0
         NMat0=    1 NMatS0=    1 NMatT0=    0 NMatD0=    1 NMtDS0=    0 NMtDT0=    0
         I1Cent=           0 NGrid=           0.
 Symmetry not used in FoFCou.
 E= -1672.57711016931    
 DIIS: error= 2.29D-02 at cycle   1 NSaved=   1.
 NSaved= 1 IEnMin= 1 EnMin= -1672.57711016931     IErMin= 1 ErrMin= 2.29D-02
 ErrMax= 2.29D-02 EMaxC= 1.00D-01 BMatC= 5.90D-01 BMatP= 5.90D-01
 IDIUse=3 WtCom= 7.71D-01 WtEn= 2.29D-01
 Coeff-Com:  0.100D+01
 Coeff-En:   0.100D+01
 Coeff:      0.100D+01
 Gap=     0.266 Goal=   None    Shift=    0.000
 GapD=    0.266 DampG=1.000 DampE=0.500 DampFc=0.5000 IDamp=-1.
 Damping current iteration by 5.00D-01
 RMSDP=4.14D-03 MaxDP=2.06D-01              OVMax= 2.95D-01

 Cycle   2  Pass 0  IDiag  1:
 RMSU=  1.45D-03    CP:  9.80D-01
 E= -1672.72013244174     Delta-E=       -0.143022272430 Rises=F Damp=T
 DIIS: error= 1.18D-02 at cycle   2 NSaved=   2.
 NSaved= 2 IEnMin= 2 EnMin= -1672.72013244174     IErMin= 2 ErrMin= 1.18D-02
 ErrMax= 1.18D-02 EMaxC= 1.00D-01 BMatC= 1.28D-01 BMatP= 5.90D-01
 IDIUse=3 WtCom= 8.82D-01 WtEn= 1.18D-01
 Coeff-Com:  0.258D+00 0.742D+00
 Coeff-En:   0.385D+00 0.615D+00
 Coeff:      0.273D+00 0.727D+00
 Gap=     0.213 Goal=   None    Shift=    0.000
 RMSDP=1.47D-03 MaxDP=6.85D-02 DE=-1.43D-01 OVMax= 2.35D-01

 Cycle   3  Pass 0  IDiag  1:
 RMSU=  9.71D-04    CP:  9.66D-01  7.59D-01
 E= -1673.12969595574     Delta-E=       -0.409563513998 Rises=F Damp=F
 DIIS: error= 1.15D-02 at cycle   3 NSaved=   3.
 NSaved= 3 IEnMin= 3 EnMin= -1673.12969595574     IErMin= 3 ErrMin= 1.15D-02
 ErrMax= 1.15D-02 EMaxC= 1.00D-01 BMatC= 1.03D-01 BMatP= 1.28D-01
 IDIUse=3 WtCom= 8.85D-01 WtEn= 1.15D-01
 Coeff-Com:  0.867D-01 0.462D+00 0.452D+00
 Coeff-En:   0.000D+00 0.000D+00 0.100D+01
 Coeff:      0.768D-01 0.409D+00 0.515D+00
 Gap=     0.189 Goal=   None    Shift=    0.000
 RMSDP=8.61D-04 MaxDP=5.39D-02 DE=-4.10D-01 OVMax= 9.50D-02

 Cycle   4  Pass 0  IDiag  1:
 RMSU=  4.54D-04    CP:  9.70D-01  8.34D-01  6.00D-01
 E= -1673.19946183812     Delta-E=       -0.069765882379 Rises=F Damp=F
 DIIS: error= 5.76D-03 at cycle   4 NSaved=   4.
 NSaved= 4 IEnMin= 4 EnMin= -1673.19946183812     IErMin= 4 ErrMin= 5.76D-03
 ErrMax= 5.76D-03 EMaxC= 1.00D-01 BMatC= 3.00D-02 BMatP= 1.03D-01
 IDIUse=3 WtCom= 9.42D-01 WtEn= 5.76D-02
 Coeff-Com:  0.258D-01 0.147D+00 0.351D+00 0.476D+00
 Coeff-En:   0.000D+00 0.000D+00 0.264D+00 0.736D+00
 Coeff:      0.244D-01 0.138D+00 0.346D+00 0.491D+00
 Gap=     0.178 Goal=   None    Shift=    0.000
 RMSDP=4.02D-04 MaxDP=2.16D-02 DE=-6.98D-02 OVMax= 4.46D-02

 Cycle   5  Pass 0  IDiag  1:
 RMSU=  1.59D-04    CP:  9.69D-01  8.13D-01  6.88D-01  5.21D-01
 E= -1673.22426591734     Delta-E=       -0.024804079222 Rises=F Damp=F
 DIIS: error= 2.04D-03 at cycle   5 NSaved=   5.
 NSaved= 5 IEnMin= 5 EnMin= -1673.22426591734     IErMin= 5 ErrMin= 2.04D-03
 ErrMax= 2.04D-03 EMaxC= 1.00D-01 BMatC= 3.10D-03 BMatP= 3.00D-02
 IDIUse=3 WtCom= 9.80D-01 WtEn= 2.04D-02
 Coeff-Com:  0.597D-02 0.261D-01 0.160D+00 0.330D+00 0.478D+00
 Coeff-En:   0.000D+00 0.000D+00 0.000D+00 0.957D-01 0.904D+00
 Coeff:      0.585D-02 0.256D-01 0.157D+00 0.325D+00 0.486D+00
 Gap=     0.177 Goal=   None    Shift=    0.000
 RMSDP=1.34D-04 MaxDP=7.76D-03 DE=-2.48D-02 OVMax= 1.84D-02

 Cycle   6  Pass 0  IDiag  1:
 RMSU=  4.20D-05    CP:  9.69D-01  8.09D-01  7.01D-01  6.13D-01  5.41D-01
 E= -1673.22746981401     Delta-E=       -0.003203896664 Rises=F Damp=F
 DIIS: error= 6.45D-04 at cycle   6 NSaved=   6.
 NSaved= 6 IEnMin= 6 EnMin= -1673.22746981401     IErMin= 6 ErrMin= 6.45D-04
 ErrMax= 6.45D-04 EMaxC= 1.00D-01 BMatC= 2.26D-04 BMatP= 3.10D-03
 IDIUse=3 WtCom= 9.94D-01 WtEn= 6.45D-03
 Coeff-Com:  0.862D-03-0.485D-02 0.453D-01 0.125D+00 0.279D+00 0.555D+00
 Coeff-En:   0.000D+00 0.000D+00 0.000D+00 0.000D+00 0.131D-01 0.987D+00
 Coeff:      0.856D-03-0.482D-02 0.450D-01 0.124D+00 0.277D+00 0.558D+00
 Gap=     0.178 Goal=   None    Shift=    0.000
 RMSDP=3.21D-05 MaxDP=2.23D-03 DE=-3.20D-03 OVMax= 4.51D-03

 Cycle   7  Pass 0  IDiag  1:
 RMSU=  1.45D-05    CP:  9.69D-01  8.10D-01  7.04D-01  6.09D-01  5.86D-01
                    CP:  6.30D-01
 E= -1673.22768640246     Delta-E=       -0.000216588455 Rises=F Damp=F
 DIIS: error= 1.47D-04 at cycle   7 NSaved=   7.
 NSaved= 7 IEnMin= 7 EnMin= -1673.22768640246     IErMin= 7 ErrMin= 1.47D-04
 ErrMax= 1.47D-04 EMaxC= 1.00D-01 BMatC= 2.29D-05 BMatP= 2.26D-04
 IDIUse=3 WtCom= 9.99D-01 WtEn= 1.47D-03
 Coeff-Com:  0.186D-03-0.499D-02 0.115D-01 0.402D-01 0.112D+00 0.317D+00
 Coeff-Com:  0.524D+00
 Coeff-En:   0.000D+00 0.000D+00 0.000D+00 0.000D+00 0.000D+00 0.259D-01
 Coeff-En:   0.974D+00
 Coeff:      0.186D-03-0.498D-02 0.115D-01 0.401D-01 0.112D+00 0.316D+00
 Coeff:      0.525D+00
 Gap=     0.177 Goal=   None    Shift=    0.000
 RMSDP=1.02D-05 MaxDP=6.19D-04 DE=-2.17D-04 OVMax= 1.09D-03

 Cycle   8  Pass 0  IDiag  1:
 RMSU=  3.95D-06    CP:  9.69D-01  8.10D-01  7.03D-01  6.12D-01  5.92D-01
                    CP:  6.87D-01  6.39D-01
 E= -1673.22771208202     Delta-E=       -0.000025679558 Rises=F Damp=F
 DIIS: error= 5.17D-05 at cycle   8 NSaved=   8.
 NSaved= 8 IEnMin= 8 EnMin= -1673.22771208202     IErMin= 8 ErrMin= 5.17D-05
 ErrMax= 5.17D-05 EMaxC= 1.00D-01 BMatC= 1.84D-06 BMatP= 2.29D-05
 IDIUse=1 WtCom= 1.00D+00 WtEn= 0.00D+00
 Coeff-Com:  0.165D-03-0.257D-02 0.394D-02 0.147D-01 0.456D-01 0.142D+00
 Coeff-Com:  0.296D+00 0.501D+00
 Coeff:      0.165D-03-0.257D-02 0.394D-02 0.147D-01 0.456D-01 0.142D+00
 Coeff:      0.296D+00 0.501D+00
 Gap=     0.177 Goal=   None    Shift=    0.000
 RMSDP=3.54D-06 MaxDP=1.97D-04 DE=-2.57D-05 OVMax= 3.96D-04

 Initial convergence to 1.0D-05 achieved.  Increase integral accuracy.
 Cycle   9  Pass 1  IDiag  1:
 E= -1673.22763681764     Delta-E=        0.000075264379 Rises=F Damp=F
 DIIS: error= 1.99D-04 at cycle   1 NSaved=   1.
 NSaved= 1 IEnMin= 1 EnMin= -1673.22763681764     IErMin= 1 ErrMin= 1.99D-04
 ErrMax= 1.99D-04 EMaxC= 1.00D-01 BMatC= 1.18D-05 BMatP= 1.18D-05
 IDIUse=3 WtCom= 9.98D-01 WtEn= 1.99D-03
 Coeff-Com:  0.100D+01
 Coeff-En:   0.100D+01
 Coeff:      0.100D+01
 Gap=     0.177 Goal=   None    Shift=    0.000
 RMSDP=3.54D-06 MaxDP=1.97D-04 DE= 7.53D-05 OVMax= 7.63D-04

 Cycle  10  Pass 1  IDiag  1:
 RMSU=  9.07D-05    CP:  1.00D+00
 E= -1673.22764671610     Delta-E=       -0.000009898461 Rises=F Damp=F
 DIIS: error= 5.72D-05 at cycle   2 NSaved=   2.
 NSaved= 2 IEnMin= 2 EnMin= -1673.22764671610     IErMin= 2 ErrMin= 5.72D-05
 ErrMax= 5.72D-05 EMaxC= 1.00D-01 BMatC= 1.95D-06 BMatP= 1.18D-05
 IDIUse=1 WtCom= 1.00D+00 WtEn= 0.00D+00
 Coeff-Com:  0.177D+00 0.823D+00
 Coeff:      0.177D+00 0.823D+00
 Gap=     0.177 Goal=   None    Shift=    0.000
 RMSDP=7.10D-06 MaxDP=5.06D-04 DE=-9.90D-06 OVMax= 8.40D-04

 Cycle  11  Pass 1  IDiag  1:
 RMSU=  4.94D-06    CP:  1.00D+00  1.01D+00
 E= -1673.22764299593     Delta-E=        0.000003720170 Rises=F Damp=F
 DIIS: error= 1.02D-04 at cycle   3 NSaved=   3.
 NSaved= 3 IEnMin= 2 EnMin= -1673.22764671610     IErMin= 2 ErrMin= 5.72D-05
 ErrMax= 1.02D-04 EMaxC= 1.00D-01 BMatC= 5.76D-06 BMatP= 1.95D-06
 IDIUse=3 WtCom= 4.98D-01 WtEn= 5.02D-01
 Coeff-Com: -0.407D-02 0.635D+00 0.369D+00
 Coeff-En:   0.000D+00 0.688D+00 0.312D+00
 Coeff:     -0.203D-02 0.662D+00 0.340D+00
 Gap=     0.177 Goal=   None    Shift=    0.000
 RMSDP=3.99D-06 MaxDP=3.16D-04 DE= 3.72D-06 OVMax= 5.14D-04

 Cycle  12  Pass 1  IDiag  1:
 RMSU=  4.73D-07    CP:  1.00D+00  1.01D+00  4.41D-01
 E= -1673.22764858502     Delta-E=       -0.000005589088 Rises=F Damp=F
 DIIS: error= 9.35D-06 at cycle   4 NSaved=   4.
 NSaved= 4 IEnMin= 4 EnMin= -1673.22764858502     IErMin= 4 ErrMin= 9.35D-06
 ErrMax= 9.35D-06 EMaxC= 1.00D-01 BMatC= 7.88D-08 BMatP= 1.95D-06
 IDIUse=1 WtCom= 1.00D+00 WtEn= 0.00D+00
 Coeff-Com: -0.445D-02 0.392D+00 0.190D+00 0.423D+00
 Coeff:     -0.445D-02 0.392D+00 0.190D+00 0.423D+00
 Gap=     0.177 Goal=   None    Shift=    0.000
 RMSDP=5.46D-07 MaxDP=4.26D-05 DE=-5.59D-06 OVMax= 7.23D-05

 Cycle  13  Pass 1  IDiag  1:
 RMSU=  1.99D-07    CP:  1.00D+00  1.01D+00  3.83D-01  6.53D-01
 E= -1673.22764866561     Delta-E=       -0.000000080586 Rises=F Damp=F
 DIIS: error= 1.40D-06 at cycle   5 NSaved=   5.
 NSaved= 5 IEnMin= 5 EnMin= -1673.22764866561     IErMin= 5 ErrMin= 1.40D-06
 ErrMax= 1.40D-06 EMaxC= 1.00D-01 BMatC= 1.80D-09 BMatP= 7.88D-08
 IDIUse=1 WtCom= 1.00D+00 WtEn= 0.00D+00
 Coeff-Com: -0.231D-02 0.187D+00 0.857D-01 0.249D+00 0.481D+00
 Coeff:     -0.231D-02 0.187D+00 0.857D-01 0.249D+00 0.481D+00
 Gap=     0.177 Goal=   None    Shift=    0.000
 RMSDP=1.10D-07 MaxDP=5.51D-06 DE=-8.06D-08 OVMax= 1.32D-05

 Cycle  14  Pass 1  IDiag  1:
 RMSU=  6.40D-08    CP:  1.00D+00  1.01D+00  3.83D-01  6.92D-01  8.00D-01
 E= -1673.22764866712     Delta-E=       -0.000000001515 Rises=F Damp=F
 DIIS: error= 6.15D-07 at cycle   6 NSaved=   6.
 NSaved= 6 IEnMin= 6 EnMin= -1673.22764866712     IErMin= 6 ErrMin= 6.15D-07
 ErrMax= 6.15D-07 EMaxC= 1.00D-01 BMatC= 3.09D-10 BMatP= 1.80D-09
 IDIUse=1 WtCom= 1.00D+00 WtEn= 0.00D+00
 Coeff-Com: -0.719D-03 0.534D-01 0.230D-01 0.871D-01 0.313D+00 0.525D+00
 Coeff:     -0.719D-03 0.534D-01 0.230D-01 0.871D-01 0.313D+00 0.525D+00
 Gap=     0.177 Goal=   None    Shift=    0.000
 RMSDP=4.17D-08 MaxDP=1.98D-06 DE=-1.52D-09 OVMax= 4.31D-06

 Cycle  15  Pass 1  IDiag  1:
 RMSU=  1.83D-08    CP:  1.00D+00  1.01D+00  3.82D-01  6.94D-01  8.50D-01
                    CP:  6.79D-01
 E= -1673.22764866740     Delta-E=       -0.000000000282 Rises=F Damp=F
 DIIS: error= 1.75D-07 at cycle   7 NSaved=   7.
 NSaved= 7 IEnMin= 7 EnMin= -1673.22764866740     IErMin= 7 ErrMin= 1.75D-07
 ErrMax= 1.75D-07 EMaxC= 1.00D-01 BMatC= 4.40D-11 BMatP= 3.09D-10
 IDIUse=1 WtCom= 1.00D+00 WtEn= 0.00D+00
 Coeff-Com: -0.118D-03 0.609D-02 0.188D-02 0.178D-01 0.127D+00 0.333D+00
 Coeff-Com:  0.514D+00
 Coeff:     -0.118D-03 0.609D-02 0.188D-02 0.178D-01 0.127D+00 0.333D+00
 Coeff:      0.514D+00
 Gap=     0.177 Goal=   None    Shift=    0.000
 RMSDP=1.61D-08 MaxDP=9.31D-07 DE=-2.82D-10 OVMax= 1.73D-06

 Cycle  16  Pass 1  IDiag  1:
 RMSU=  8.47D-09    CP:  1.00D+00  1.01D+00  3.83D-01  6.97D-01  8.55D-01
                    CP:  7.17D-01  6.28D-01
 E= -1673.22764866741     Delta-E=       -0.000000000009 Rises=F Damp=F
 DIIS: error= 8.13D-08 at cycle   8 NSaved=   8.
 NSaved= 8 IEnMin= 8 EnMin= -1673.22764866741     IErMin= 8 ErrMin= 8.13D-08
 ErrMax= 8.13D-08 EMaxC= 1.00D-01 BMatC= 8.18D-12 BMatP= 4.40D-11
 IDIUse=1 WtCom= 1.00D+00 WtEn= 0.00D+00
 Coeff-Com:  0.261D-04-0.371D-02-0.205D-02-0.105D-02 0.394D-01 0.150D+00
 Coeff-Com:  0.348D+00 0.469D+00
 Coeff:      0.261D-04-0.371D-02-0.205D-02-0.105D-02 0.394D-01 0.150D+00
 Coeff:      0.348D+00 0.469D+00
 Gap=     0.177 Goal=   None    Shift=    0.000
 RMSDP=6.82D-09 MaxDP=3.42D-07 DE=-9.09D-12 OVMax= 7.84D-07

 SCF Done:  E(RB3LYP) =  -1673.22764867     A.U. after   16 cycles
             Convg  =    0.6819D-08             -V/T =  2.0057
 KE= 1.663755419286D+03 PE=-9.955655460634D+03 EE= 3.594979686756D+03
 Leave Link  502 at Sat Sep 10 07:35:29 2022, MaxMem=  209715200 cpu:    6565.1
 (Enter /opt/gaussian/l601.exe)
 Copying SCF densities to generalized density rwf, IOpCl= 0 IROHF=0.

 **********************************************************************

            Population analysis using the SCF density.

 **********************************************************************

 Orbital symmetries:
       Occupied  (A) (A) (A) (A) (A) (A) (A) (A) (A) (A) (A) (A)
                 (A) (A) (A) (A) (A) (A) (A) (A) (A) (A) (A) (A)
                 (A) (A) (A) (A) (A) (A) (A) (A) (A) (A) (A) (A)
                 (A) (A) (A) (A) (A) (A) (A) (A) (A) (A) (A) (A)
                 (A) (A) (A) (A) (A) (A) (A) (A) (A) (A) (A) (A)
                 (A) (A) (A) (A) (A) (A) (A) (A) (A) (A) (A) (A)
                 (A) (A) (A) (A) (A) (A) (A) (A) (A) (A) (A) (A)
                 (A) (A) (A) (A) (A) (A) (A) (A) (A) (A) (A) (A)
                 (A) (A) (A) (A) (A) (A) (A) (A) (A) (A) (A) (A)
                 (A) (A) (A)
       Virtual   (A) (A) (A) (A) (A) (A) (A) (A) (A) (A) (A) (A)
                 (A) (A) (A) (A) (A) (A) (A) (A) (A) (A) (A) (A)
                 (A) (A) (A) (A) (A) (A) (A) (A) (A) (A) (A) (A)
                 (A) (A) (A) (A) (A) (A) (A) (A) (A) (A) (A) (A)
                 (A) (A) (A) (A) (A) (A) (A) (A) (A) (A) (A) (A)
                 (A) (A) (A) (A) (A) (A) (A) (A) (A) (A) (A) (A)
                 (A) (A) (A) (A) (A) (A) (A) (A) (A) (A) (A) (A)
                 (A) (A) (A) (A) (A) (A) (A) (A) (A) (A) (A) (A)
                 (A) (A) (A) (A) (A) (A) (A) (A) (A) (A) (A) (A)
                 (A) (A) (A) (A) (A) (A) (A) (A) (A) (A) (A) (A)
                 (A) (A) (A) (A) (A) (A) (A) (A) (A) (A) (A) (A)
                 (A) (A) (A) (A) (A) (A) (A) (A) (A) (A) (A) (A)
                 (A) (A) (A) (A) (A) (A) (A) (A) (A) (A) (A) (A)
                 (A) (A) (A) (A) (A) (A) (A) (A) (A) (A) (A) (A)
                 (A) (A) (A) (A) (A) (A) (A) (A) (A) (A) (A) (A)
                 (A) (A) (A) (A) (A) (A) (A) (A) (A) (A) (A) (A)
                 (A) (A) (A) (A) (A) (A) (A) (A) (A) (A) (A) (A)
                 (A) (A) (A) (A) (A) (A) (A) (A) (A) (A) (A) (A)
                 (A) (A) (A) (A) (A) (A) (A) (A) (A) (A) (A) (A)
                 (A) (A) (A) (A) (A) (A) (A) (A) (A) (A) (A) (A)
                 (A) (A) (A) (A) (A) (A) (A) (A) (A) (A) (A) (A)
                 (A) (A) (A) (A) (A) (A) (A) (A) (A) (A) (A) (A)
                 (A) (A) (A) (A) (A) (A) (A) (A) (A) (A) (A) (A)
                 (A) (A) (A) (A) (A) (A) (A) (A) (A) (A) (A) (A)
                 (A) (A) (A) (A) (A) (A) (A) (A) (A) (A) (A) (A)
                 (A) (A) (A) (A) (A) (A) (A) (A) (A) (A) (A) (A)
                 (A) (A) (A) (A) (A) (A) (A) (A) (A) (A) (A) (A)
                 (A) (A) (A) (A) (A) (A) (A) (A) (A) (A) (A) (A)
                 (A) (A) (A) (A) (A) (A) (A) (A) (A) (A) (A) (A)
                 (A) (A) (A) (A) (A) (A) (A) (A) (A) (A) (A) (A)
                 (A) (A) (A) (A) (A) (A) (A) (A) (A) (A) (A) (A)
                 (A) (A) (A) (A) (A) (A) (A) (A) (A) (A) (A) (A)
                 (A) (A) (A) (A) (A) (A) (A) (A) (A) (A) (A) (A)
                 (A) (A) (A) (A) (A) (A) (A) (A) (A) (A) (A) (A)
                 (A) (A) (A) (A) (A) (A) (A) (A) (A) (A) (A) (A)
                 (A) (A)
 The electronic state is 1-A.
 Alpha  occ. eigenvalues --  -88.90778 -19.12107 -14.42217 -14.39813 -14.37382
 Alpha  occ. eigenvalues --  -14.35756 -14.33514 -10.30343 -10.25766 -10.24574
 Alpha  occ. eigenvalues --  -10.24240 -10.23502 -10.23218 -10.23125 -10.22171
 Alpha  occ. eigenvalues --  -10.22135 -10.21862 -10.21797 -10.21563 -10.21473
 Alpha  occ. eigenvalues --  -10.21315 -10.21241 -10.21152 -10.21133 -10.21032
 Alpha  occ. eigenvalues --  -10.20995 -10.20969 -10.20932 -10.20554 -10.19868
 Alpha  occ. eigenvalues --  -10.19512  -7.96988  -5.93303  -5.92927  -5.92638
 Alpha  occ. eigenvalues --   -1.10320  -1.05183  -0.95748  -0.95094  -0.93086
 Alpha  occ. eigenvalues --   -0.88161  -0.87566  -0.87426  -0.82291  -0.78995
 Alpha  occ. eigenvalues --   -0.78796  -0.77988  -0.76940  -0.76615  -0.75076
 Alpha  occ. eigenvalues --   -0.74034  -0.72747  -0.68456  -0.66148  -0.65783
 Alpha  occ. eigenvalues --   -0.64881  -0.63303  -0.62196  -0.61715  -0.60758
 Alpha  occ. eigenvalues --   -0.57409  -0.56914  -0.55159  -0.54239  -0.53786
 Alpha  occ. eigenvalues --   -0.53580  -0.52235  -0.50842  -0.50083  -0.49571
 Alpha  occ. eigenvalues --   -0.49114  -0.47738  -0.47573  -0.47199  -0.45817
 Alpha  occ. eigenvalues --   -0.45746  -0.45623  -0.45221  -0.44138  -0.43604
 Alpha  occ. eigenvalues --   -0.42528  -0.42065  -0.41692  -0.41174  -0.40920
 Alpha  occ. eigenvalues --   -0.39913  -0.39402  -0.38843  -0.38740  -0.38139
 Alpha  occ. eigenvalues --   -0.37671  -0.37438  -0.37319  -0.36675  -0.36518
 Alpha  occ. eigenvalues --   -0.36252  -0.34415  -0.33899  -0.32112  -0.30869
 Alpha  occ. eigenvalues --   -0.28952  -0.27797  -0.27598  -0.27092  -0.26439
 Alpha  occ. eigenvalues --   -0.26282  -0.25869  -0.25312  -0.24778  -0.24348
 Alpha  occ. eigenvalues --   -0.23445
 Alpha virt. eigenvalues --   -0.05715  -0.05252  -0.03599  -0.03111  -0.01904
 Alpha virt. eigenvalues --   -0.00640  -0.00326   0.00495   0.02319   0.03671
 Alpha virt. eigenvalues --    0.04524   0.04935   0.05786   0.06017   0.07276
 Alpha virt. eigenvalues --    0.07728   0.08330   0.09327   0.09761   0.10060
 Alpha virt. eigenvalues --    0.10370   0.10783   0.11032   0.11375   0.12001
 Alpha virt. eigenvalues --    0.12545   0.13022   0.13590   0.13915   0.14378
 Alpha virt. eigenvalues --    0.14565   0.15263   0.15590   0.16516   0.16890
 Alpha virt. eigenvalues --    0.17849   0.18341   0.20186   0.20604   0.21847
 Alpha virt. eigenvalues --    0.22487   0.23484   0.23548   0.24884   0.25401
 Alpha virt. eigenvalues --    0.26211   0.27138   0.27498   0.28256   0.28854
 Alpha virt. eigenvalues --    0.29710   0.29868   0.30592   0.31184   0.31989
 Alpha virt. eigenvalues --    0.33077   0.34304   0.34850   0.35659   0.36662
 Alpha virt. eigenvalues --    0.37111   0.37546   0.37709   0.38807   0.39271
 Alpha virt. eigenvalues --    0.41551   0.41915   0.42060   0.42801   0.43348
 Alpha virt. eigenvalues --    0.43803   0.44450   0.44509   0.44810   0.45563
 Alpha virt. eigenvalues --    0.45650   0.45847   0.46600   0.47062   0.47213
 Alpha virt. eigenvalues --    0.47485   0.47911   0.48139   0.48306   0.48477
 Alpha virt. eigenvalues --    0.48968   0.49204   0.49442   0.49628   0.49931
 Alpha virt. eigenvalues --    0.50134   0.50481   0.50639   0.51502   0.51764
 Alpha virt. eigenvalues --    0.51913   0.52486   0.53182   0.53610   0.53981
 Alpha virt. eigenvalues --    0.54280   0.54965   0.55552   0.55885   0.56419
 Alpha virt. eigenvalues --    0.56767   0.57461   0.58099   0.58271   0.58671
 Alpha virt. eigenvalues --    0.59058   0.59752   0.60113   0.60521   0.61085
 Alpha virt. eigenvalues --    0.61155   0.61889   0.62203   0.63232   0.63533
 Alpha virt. eigenvalues --    0.63807   0.64280   0.64467   0.64784   0.64992
 Alpha virt. eigenvalues --    0.65325   0.65740   0.66345   0.66454   0.66967
 Alpha virt. eigenvalues --    0.67582   0.67775   0.68142   0.68814   0.69765
 Alpha virt. eigenvalues --    0.70163   0.70330   0.70547   0.71400   0.72384
 Alpha virt. eigenvalues --    0.72835   0.73388   0.73633   0.73984   0.74373
 Alpha virt. eigenvalues --    0.76018   0.77803   0.78072   0.79040   0.79379
 Alpha virt. eigenvalues --    0.81203   0.81668   0.82686   0.83365   0.84142
 Alpha virt. eigenvalues --    0.85240   0.85552   0.86560   0.86616   0.87278
 Alpha virt. eigenvalues --    0.87808   0.88193   0.88572   0.88651   0.89906
 Alpha virt. eigenvalues --    0.90524   0.90884   0.91602   0.91883   0.92213
 Alpha virt. eigenvalues --    0.92718   0.92808   0.93789   0.94901   0.95428
 Alpha virt. eigenvalues --    0.95833   0.96545   0.96756   0.97336   0.97997
 Alpha virt. eigenvalues --    0.98280   0.98808   0.99425   0.99774   1.00251
 Alpha virt. eigenvalues --    1.00640   1.01296   1.01986   1.02412   1.02508
 Alpha virt. eigenvalues --    1.03210   1.03368   1.03635   1.04140   1.04801
 Alpha virt. eigenvalues --    1.05543   1.06159   1.06867   1.07047   1.07517
 Alpha virt. eigenvalues --    1.08478   1.08697   1.09561   1.10748   1.12168
 Alpha virt. eigenvalues --    1.12468   1.13572   1.14774   1.15232   1.16132
 Alpha virt. eigenvalues --    1.16842   1.18120   1.19127   1.19899   1.21274
 Alpha virt. eigenvalues --    1.21901   1.23107   1.23710   1.24664   1.25603
 Alpha virt. eigenvalues --    1.25709   1.27894   1.30050   1.30444   1.31446
 Alpha virt. eigenvalues --    1.32091   1.33826   1.34043   1.34563   1.34702
 Alpha virt. eigenvalues --    1.35721   1.37164   1.37653   1.38241   1.40488
 Alpha virt. eigenvalues --    1.41001   1.42303   1.43757   1.44959   1.46105
 Alpha virt. eigenvalues --    1.46411   1.46797   1.47690   1.48298   1.49127
 Alpha virt. eigenvalues --    1.49333   1.49724   1.50526   1.51016   1.51266
 Alpha virt. eigenvalues --    1.51822   1.53107   1.53703   1.54856   1.55469
 Alpha virt. eigenvalues --    1.55989   1.56314   1.57011   1.58019   1.58270
 Alpha virt. eigenvalues --    1.59014   1.59277   1.59553   1.60404   1.60553
 Alpha virt. eigenvalues --    1.60695   1.61173   1.61395   1.61728   1.62405
 Alpha virt. eigenvalues --    1.62861   1.63425   1.63662   1.63734   1.64195
 Alpha virt. eigenvalues --    1.65220   1.65595   1.66464   1.66923   1.67826
 Alpha virt. eigenvalues --    1.68720   1.69197   1.69596   1.70316   1.70697
 Alpha virt. eigenvalues --    1.71255   1.71688   1.72322   1.72585   1.73027
 Alpha virt. eigenvalues --    1.73843   1.74067   1.74544   1.75011   1.75943
 Alpha virt. eigenvalues --    1.76570   1.76816   1.77212   1.77975   1.78812
 Alpha virt. eigenvalues --    1.79146   1.79463   1.80413   1.81042   1.81219
 Alpha virt. eigenvalues --    1.82656   1.82908   1.83025   1.83341   1.84360
 Alpha virt. eigenvalues --    1.84784   1.84839   1.86161   1.86978   1.87156
 Alpha virt. eigenvalues --    1.87783   1.88371   1.90527   1.90974   1.91094
 Alpha virt. eigenvalues --    1.91778   1.93147   1.93441   1.94401   1.94786
 Alpha virt. eigenvalues --    1.95368   1.95666   1.96422   1.96725   1.97113
 Alpha virt. eigenvalues --    1.98217   1.98428   1.99188   1.99674   2.00449
 Alpha virt. eigenvalues --    2.00914   2.01999   2.02829   2.03672   2.04040
 Alpha virt. eigenvalues --    2.05143   2.05975   2.07578   2.08805   2.10006
 Alpha virt. eigenvalues --    2.10789   2.11089   2.12664   2.14298   2.14536
 Alpha virt. eigenvalues --    2.15415   2.16877   2.17246   2.18281   2.20107
 Alpha virt. eigenvalues --    2.21202   2.21993   2.22865   2.22970   2.25439
 Alpha virt. eigenvalues --    2.27223   2.28237   2.29951   2.32131   2.34733
 Alpha virt. eigenvalues --    2.37104   2.38372   2.38580   2.38864   2.39369
 Alpha virt. eigenvalues --    2.40347   2.40742   2.42048   2.42218   2.43019
 Alpha virt. eigenvalues --    2.43680   2.45013   2.45357   2.46423   2.47390
 Alpha virt. eigenvalues --    2.47919   2.49934   2.51239   2.53855   2.54638
 Alpha virt. eigenvalues --    2.56018   2.58927   2.60313   2.61060   2.61660
 Alpha virt. eigenvalues --    2.63555   2.65564   2.66922   2.68193   2.68681
 Alpha virt. eigenvalues --    2.69279   2.70742   2.71861   2.72446   2.72984
 Alpha virt. eigenvalues --    2.74141   2.75837   2.78416   2.80537   2.81199
 Alpha virt. eigenvalues --    2.82675   2.85924   2.87037   2.89294   2.90729
 Alpha virt. eigenvalues --    2.96151   2.96496   2.97575   3.05234   3.07503
 Alpha virt. eigenvalues --    3.11594   3.13591   3.37145   3.41105   3.49207
 Alpha virt. eigenvalues --    3.52468   3.53040
          Condensed to atoms (all electrons):
              1          2          3          4          5          6
     1  O    7.644765   0.721555  -0.063867   0.000363  -0.000414  -0.000003
     2  C    0.721555   4.560695   0.367784  -0.028777   0.006829  -0.000189
     3  C   -0.063867   0.367784   4.654860   0.338446  -0.055913   0.006407
     4  N    0.000363  -0.028777   0.338446   6.536701   0.281211  -0.111012
     5  N   -0.000414   0.006829  -0.055913   0.281211   6.571177   0.453190
     6  N   -0.000003  -0.000189   0.006407  -0.111012   0.453190   6.431737
     7  C    0.000009  -0.000260   0.005344  -0.021073  -0.122308   0.508313
     8  C   -0.000127   0.002666  -0.048802   0.335615  -0.092529  -0.072910
     9  C    0.000001   0.000127  -0.000305  -0.053773   0.003792   0.011488
    10  C    0.000000   0.000006  -0.000001   0.002318  -0.000110  -0.000634
    11  C    0.000000   0.000000   0.000012   0.000624   0.000060   0.004277
    12  C    0.000000   0.000008  -0.000317   0.006978   0.000672  -0.049998
    13  N   -0.082473   0.371857  -0.072956   0.002703  -0.000917   0.000023
    14  C    0.010884  -0.039857   0.007982  -0.000134  -0.000127   0.000005
    15  C   -0.012659  -0.011225  -0.000987   0.000004   0.000008   0.000000
    16  C    0.003167   0.002711  -0.000021   0.000000   0.000000   0.000000
    17  S    0.000156  -0.000035   0.000004   0.000000   0.000000   0.000000
    18  C   -0.000006  -0.000012  -0.000001   0.000000   0.000000   0.000000
    19  C   -0.000043  -0.000097   0.000007   0.000000   0.000000   0.000000
    20  C   -0.000309  -0.062727  -0.005323  -0.000099  -0.002525  -0.000263
    21  C   -0.000103  -0.001783   0.000493  -0.002347   0.001150  -0.000418
    22  C    0.000002   0.000363  -0.000122  -0.000322  -0.000304  -0.000207
    23  C    0.000000  -0.000008  -0.000063   0.000085   0.000013  -0.000008
    24  C   -0.000002  -0.000085  -0.000108  -0.000111  -0.000011   0.000003
    25  C   -0.000155  -0.007204  -0.004001  -0.000338   0.000063  -0.000002
    26  C    0.000000   0.000000   0.000001   0.000001   0.000000   0.000000
    27  C    0.000000   0.000000   0.000000   0.000000   0.000000   0.000000
    28  N    0.000000   0.000000   0.000000   0.000000   0.000000   0.000000
    29  C    0.000000   0.000000   0.000000   0.000000   0.000000   0.000000
    30  C    0.000000   0.000000   0.000000   0.000000   0.000000   0.000000
    31  C    0.000000   0.000000   0.000000   0.000000   0.000000   0.000000
    32  H    0.001464  -0.007341   0.343625  -0.010094   0.004217  -0.000568
    33  H    0.010479  -0.003283   0.342203  -0.017459   0.000159   0.000269
    34  H    0.000003  -0.000045   0.001015  -0.005036  -0.000234  -0.000232
    35  H    0.000000   0.000000  -0.000011  -0.000132   0.000005  -0.000007
    36  H    0.000000   0.000000   0.000000   0.000005   0.000007  -0.000096
    37  H    0.000000   0.000000   0.000003  -0.000017  -0.000516  -0.000915
    38  H    0.016572  -0.006995   0.002063  -0.000081   0.000087   0.000000
    39  H    0.000917   0.006352  -0.000328   0.000030  -0.000045  -0.000003
    40  H    0.015301   0.001561   0.000329   0.000000   0.000000   0.000000
    41  H    0.000000   0.000000   0.000000   0.000000   0.000000   0.000000
    42  H   -0.000001  -0.000031   0.000000   0.000000   0.000000   0.000000
    43  H   -0.000091  -0.000264  -0.000735  -0.001944   0.007169   0.001881
    44  H    0.000000  -0.000003   0.000002  -0.000001  -0.000024   0.000029
    45  H    0.000000  -0.000015   0.000007  -0.000005   0.000000   0.000000
    46  H   -0.000208   0.001195  -0.002077   0.000121   0.000008   0.000000
    47  H    0.000000   0.000000   0.000000   0.000000   0.000000   0.000000
    48  H    0.000000   0.000000   0.000000   0.000000   0.000000   0.000000
    49  H    0.000000   0.000000   0.000000   0.000000   0.000000   0.000000
    50  H    0.000000   0.000000   0.000000   0.000001   0.000000  -0.000004
              7          8          9         10         11         12
     1  O    0.000009  -0.000127   0.000001   0.000000   0.000000   0.000000
     2  C   -0.000260   0.002666   0.000127   0.000006   0.000000   0.000008
     3  C    0.005344  -0.048802  -0.000305  -0.000001   0.000012  -0.000317
     4  N   -0.021073   0.335615  -0.053773   0.002318   0.000624   0.006978
     5  N   -0.122308  -0.092529   0.003792  -0.000110   0.000060   0.000672
     6  N    0.508313  -0.072910   0.011488  -0.000634   0.004277  -0.049998
     7  C    4.987435   0.288611  -0.017659  -0.074145   0.026336   0.432025
     8  C    0.288611   5.047432   0.403118   0.020545  -0.086477   0.012292
     9  C   -0.017659   0.403118   4.842963   0.521892   0.003137  -0.069012
    10  C   -0.074145   0.020545   0.521892   4.705072   0.467389   0.011240
    11  C    0.026336  -0.086477   0.003137   0.467389   4.760912   0.497152
    12  C    0.432025   0.012292  -0.069012   0.011240   0.497152   4.774909
    13  N   -0.000096   0.000500   0.000033   0.000000   0.000000  -0.000001
    14  C   -0.000005   0.000027   0.000001   0.000000   0.000000   0.000000
    15  C    0.000000   0.000001   0.000000   0.000000   0.000000   0.000000
    16  C    0.000000   0.000000   0.000000   0.000000   0.000000   0.000000
    17  S    0.000000   0.000000   0.000000   0.000000   0.000000   0.000000
    18  C    0.000000   0.000000   0.000000   0.000000   0.000000   0.000000
    19  C    0.000000   0.000000   0.000000   0.000000   0.000000   0.000000
    20  C   -0.000328  -0.000694   0.000204  -0.000028   0.000002   0.000014
    21  C    0.000419  -0.001376  -0.000352   0.000065  -0.000028   0.000086
    22  C    0.000702   0.001137   0.000242  -0.000007  -0.000058   0.000130
    23  C   -0.000031  -0.000251  -0.000069   0.000034  -0.000002   0.000024
    24  C    0.000029   0.000176   0.000363  -0.000054   0.000000  -0.000008
    25  C   -0.000097  -0.000481   0.000126  -0.000011   0.000003  -0.000003
    26  C    0.000001  -0.000034  -0.000083  -0.000016   0.000007   0.000006
    27  C    0.000000   0.000000   0.000000   0.000000   0.000000   0.000000
    28  N    0.000000   0.000000   0.000000   0.000000   0.000000   0.000000
    29  C    0.000000   0.000000   0.000000   0.000000   0.000000   0.000000
    30  C    0.000000   0.000000   0.000001   0.000001   0.000000  -0.000001
    31  C   -0.000006   0.000012   0.000046   0.000011  -0.000159  -0.000091
    32  H    0.001701  -0.012239   0.001368   0.000213  -0.000028   0.000063
    33  H   -0.000509   0.002012   0.000817   0.000007  -0.000001  -0.000008
    34  H    0.009082  -0.031709   0.368542  -0.041685   0.008363   0.000119
    35  H   -0.000712   0.010713  -0.045745   0.386685  -0.049552   0.010847
    36  H    0.010547  -0.000767   0.011218  -0.050310   0.389988  -0.047982
    37  H   -0.040977   0.015950  -0.001316   0.010009  -0.058543   0.377803
    38  H    0.000000  -0.000001   0.000000   0.000000   0.000000   0.000000
    39  H   -0.000002   0.000000   0.000000   0.000000   0.000000   0.000000
    40  H    0.000000   0.000000   0.000000   0.000000   0.000000   0.000000
    41  H    0.000000   0.000000   0.000000   0.000000   0.000000   0.000000
    42  H    0.000000   0.000000   0.000000   0.000000   0.000000   0.000000
    43  H    0.000930  -0.000387  -0.000059   0.000017  -0.000007   0.000013
    44  H    0.000112   0.000076   0.000013  -0.000017  -0.000014  -0.000014
    45  H    0.000001   0.000012   0.000046   0.000002   0.000000   0.000000
    46  H   -0.000002  -0.000010  -0.000031  -0.000001   0.000000   0.000000
    47  H    0.000000   0.000000   0.000000   0.000000   0.000000   0.000000
    48  H    0.000000   0.000000   0.000000   0.000000   0.000000   0.000000
    49  H    0.000000   0.000000   0.000000   0.000000  -0.000002  -0.000001
    50  H   -0.000003  -0.000052  -0.000065   0.000215   0.000807   0.000530
             13         14         15         16         17         18
     1  O   -0.082473   0.010884  -0.012659   0.003167   0.000156  -0.000006
     2  C    0.371857  -0.039857  -0.011225   0.002711  -0.000035  -0.000012
     3  C   -0.072956   0.007982  -0.000987  -0.000021   0.000004  -0.000001
     4  N    0.002703  -0.000134   0.000004   0.000000   0.000000   0.000000
     5  N   -0.000917  -0.000127   0.000008   0.000000   0.000000   0.000000
     6  N    0.000023   0.000005   0.000000   0.000000   0.000000   0.000000
     7  C   -0.000096  -0.000005   0.000000   0.000000   0.000000   0.000000
     8  C    0.000500   0.000027   0.000001   0.000000   0.000000   0.000000
     9  C    0.000033   0.000001   0.000000   0.000000   0.000000   0.000000
    10  C    0.000000   0.000000   0.000000   0.000000   0.000000   0.000000
    11  C    0.000000   0.000000   0.000000   0.000000   0.000000   0.000000
    12  C   -0.000001   0.000000   0.000000   0.000000   0.000000   0.000000
    13  N    6.564173   0.356715  -0.044886  -0.008588  -0.000144   0.000043
    14  C    0.356715   4.579992   0.426238  -0.067979   0.007979   0.008188
    15  C   -0.044886   0.426238   4.823580   0.546166  -0.093625  -0.010801
    16  C   -0.008588  -0.067979   0.546166   5.079381   0.354799  -0.106067
    17  S   -0.000144   0.007979  -0.093625   0.354799  15.391098   0.361778
    18  C    0.000043   0.008188  -0.010801  -0.106067   0.361778   4.977083
    19  C   -0.000285  -0.074700   0.469351  -0.061876  -0.089778   0.549271
    20  C    0.305187  -0.065357  -0.000771  -0.000821   0.000011   0.000041
    21  C   -0.055254  -0.008677  -0.000171  -0.000076   0.000000   0.000003
    22  C    0.005673   0.000135   0.000007   0.000000   0.000000   0.000000
    23  C    0.000284   0.000023   0.000007   0.000000   0.000000   0.000000
    24  C    0.006620  -0.000044  -0.000141   0.000002  -0.000001  -0.000029
    25  C   -0.052275  -0.001122   0.001732   0.000378  -0.000028  -0.000105
    26  C    0.000002   0.000000   0.000000   0.000000   0.000000   0.000000
    27  C    0.000000   0.000000   0.000000   0.000000   0.000000   0.000000
    28  N    0.000000   0.000000   0.000000   0.000000   0.000000   0.000000
    29  C    0.000000   0.000000   0.000000   0.000000   0.000000   0.000000
    30  C    0.000000   0.000000   0.000000   0.000000   0.000000   0.000000
    31  C    0.000000   0.000000   0.000000   0.000000   0.000000   0.000000
    32  H   -0.003896  -0.000210   0.000076  -0.000020  -0.000002   0.000000
    33  H    0.006020  -0.000227   0.000045  -0.000005  -0.000001   0.000000
    34  H    0.000006   0.000000   0.000000   0.000000   0.000000   0.000000
    35  H    0.000000   0.000000   0.000000   0.000000   0.000000   0.000000
    36  H    0.000000   0.000000   0.000000   0.000000   0.000000   0.000000
    37  H    0.000000   0.000000   0.000000   0.000000   0.000000   0.000000
    38  H   -0.020753   0.351211  -0.006830  -0.012182   0.000091  -0.000476
    39  H   -0.026647   0.346536  -0.012048   0.009828  -0.000418   0.000435
    40  H   -0.001599  -0.010084  -0.006571   0.374786  -0.040473   0.001668
    41  H    0.000004  -0.000258   0.006961   0.003461  -0.044261   0.386421
    42  H   -0.000090  -0.010977  -0.041327   0.011738   0.008337  -0.057548
    43  H   -0.006507  -0.000058   0.000404   0.000004   0.000000   0.000000
    44  H   -0.000178  -0.000007  -0.000001   0.000000   0.000000   0.000000
    45  H   -0.000174  -0.000001  -0.000001   0.000000   0.000000   0.000001
    46  H   -0.006945  -0.001307   0.001370   0.000273   0.000021   0.000021
    47  H    0.000000   0.000000   0.000000   0.000000   0.000000   0.000000
    48  H    0.000000   0.000000   0.000000   0.000000   0.000000   0.000000
    49  H    0.000000   0.000000   0.000000   0.000000   0.000000   0.000000
    50  H    0.000000   0.000000   0.000000   0.000000   0.000000   0.000000
             19         20         21         22         23         24
     1  O   -0.000043  -0.000309  -0.000103   0.000002   0.000000  -0.000002
     2  C   -0.000097  -0.062727  -0.001783   0.000363  -0.000008  -0.000085
     3  C    0.000007  -0.005323   0.000493  -0.000122  -0.000063  -0.000108
     4  N    0.000000  -0.000099  -0.002347  -0.000322   0.000085  -0.000111
     5  N    0.000000  -0.002525   0.001150  -0.000304   0.000013  -0.000011
     6  N    0.000000  -0.000263  -0.000418  -0.000207  -0.000008   0.000003
     7  C    0.000000  -0.000328   0.000419   0.000702  -0.000031   0.000029
     8  C    0.000000  -0.000694  -0.001376   0.001137  -0.000251   0.000176
     9  C    0.000000   0.000204  -0.000352   0.000242  -0.000069   0.000363
    10  C    0.000000  -0.000028   0.000065  -0.000007   0.000034  -0.000054
    11  C    0.000000   0.000002  -0.000028  -0.000058  -0.000002   0.000000
    12  C    0.000000   0.000014   0.000086   0.000130   0.000024  -0.000008
    13  N   -0.000285   0.305187  -0.055254   0.005673   0.000284   0.006620
    14  C   -0.074700  -0.065357  -0.008677   0.000135   0.000023  -0.000044
[...]
    11  C   -0.000007  -0.000014   0.000000   0.000000   0.000000   0.000000
    12  C    0.000013  -0.000014   0.000000   0.000000   0.000000   0.000000
    13  N   -0.006507  -0.000178  -0.000174  -0.006945   0.000000   0.000000
    14  C   -0.000058  -0.000007  -0.000001  -0.001307   0.000000   0.000000
    15  C    0.000404  -0.000001  -0.000001   0.001370   0.000000   0.000000
    16  C    0.000004   0.000000   0.000000   0.000273   0.000000   0.000000
    17  S    0.000000   0.000000   0.000000   0.000021   0.000000   0.000000
    18  C    0.000000   0.000000   0.000001   0.000021   0.000000   0.000000
    19  C   -0.000022   0.000000   0.000003   0.000438   0.000000   0.000000
    20  C   -0.040469   0.010402   0.010062  -0.038728  -0.000038   0.000000
    21  C    0.381415  -0.037892  -0.000521   0.012754  -0.000021   0.000000
    22  C   -0.046808   0.382290   0.012091  -0.000955  -0.000193  -0.000001
    23  C    0.010203  -0.046878  -0.044278   0.009790  -0.015507   0.000059
    24  C   -0.001146   0.012378   0.381314  -0.047209   0.005762  -0.000001
    25  C    0.012729  -0.000680  -0.038650   0.380945   0.000147   0.000000
    26  C   -0.000274  -0.022123  -0.021298  -0.000289  -0.046143   0.001980
    27  C    0.000002   0.000008   0.004778  -0.000005   0.381774   0.002735
    28  N    0.000000  -0.000011   0.000019   0.000000  -0.027265  -0.029066
    29  C    0.000000  -0.000031  -0.000012   0.000000   0.003797   0.387820
    30  C    0.000000   0.000248  -0.000048   0.000000   0.000882  -0.051712
    31  C    0.000003   0.005412   0.000147   0.000005   0.008106   0.005115
    32  H    0.000077   0.000002   0.000017   0.002283   0.000000   0.000000
    33  H   -0.000002   0.000000   0.000000   0.000052   0.000000   0.000000
    34  H    0.000002   0.000000   0.000021  -0.000035   0.000000   0.000000
    35  H    0.000000   0.000000   0.000000   0.000000   0.000000   0.000000
    36  H    0.000000   0.000000   0.000000   0.000000   0.000000   0.000000
    37  H    0.000019  -0.000002   0.000000   0.000000   0.000000   0.000000
    38  H   -0.000474   0.000000  -0.000001  -0.000032   0.000000   0.000000
    39  H    0.000669   0.000032   0.000000   0.000140   0.000000   0.000000
    40  H    0.000001   0.000000   0.000000  -0.000004   0.000000   0.000000
    41  H    0.000000   0.000000   0.000000   0.000007   0.000000   0.000000
    42  H   -0.000006   0.000001   0.000002   0.000029   0.000001   0.000000
    43  H    0.717769  -0.015819   0.000060  -0.000195   0.000000   0.000000
    44  H   -0.015819   0.741134  -0.000244   0.000061  -0.000016  -0.000001
    45  H    0.000060  -0.000244   0.739652  -0.015455   0.001374   0.000000
    46  H   -0.000195   0.000061  -0.015455   0.729215   0.000026   0.000000
    47  H    0.000000  -0.000016   0.001374   0.000026   0.697341  -0.000711
    48  H    0.000000  -0.000001   0.000000   0.000000  -0.000711   0.694798
    49  H    0.000000   0.000029   0.000000   0.000000   0.000111  -0.009019
    50  H    0.000032   0.000358  -0.000023   0.000001  -0.000265  -0.000320
             49         50
     1  O    0.000000   0.000000
     2  C    0.000000   0.000000
     3  C    0.000000   0.000000
     4  N    0.000000   0.000001
     5  N    0.000000   0.000000
     6  N    0.000000  -0.000004
     7  C    0.000000  -0.000003
     8  C    0.000000  -0.000052
     9  C    0.000000  -0.000065
    10  C    0.000000   0.000215
    11  C   -0.000002   0.000807
    12  C   -0.000001   0.000530
    13  N    0.000000   0.000000
    14  C    0.000000   0.000000
    15  C    0.000000   0.000000
    16  C    0.000000   0.000000
    17  S    0.000000   0.000000
    18  C    0.000000   0.000000
    19  C    0.000000   0.000000
    20  C    0.000000  -0.000062
    21  C    0.000000   0.000374
    22  C   -0.000011   0.005818
    23  C   -0.000224  -0.025071
    24  C    0.000004  -0.000051
    25  C    0.000000  -0.000006
    26  C    0.009761  -0.044336
    27  C    0.000922   0.011160
    28  N    0.006035  -0.001218
    29  C   -0.041109   0.008928
    30  C    0.374955  -0.054388
    31  C   -0.040426   0.399831
    32  H    0.000000   0.000000
    33  H    0.000000   0.000000
    34  H    0.000000   0.000002
    35  H    0.000000   0.000003
    36  H    0.000000   0.000009
    37  H    0.000000   0.000012
    38  H    0.000000   0.000000
    39  H    0.000000   0.000000
    40  H    0.000000   0.000000
    41  H    0.000000   0.000000
    42  H    0.000000   0.000000
    43  H    0.000000   0.000032
    44  H    0.000029   0.000358
    45  H    0.000000  -0.000023
    46  H    0.000000   0.000001
    47  H    0.000111  -0.000265
    48  H   -0.009019  -0.000320
    49  H    0.735462  -0.015035
    50  H   -0.015035   0.732217
 Mulliken atomic charges:
              1
     1  O   -0.265176
     2  C    0.126527
     3  C    0.185350
     4  N   -0.252449
     5  N   -0.053842
     6  N   -0.180153
     7  C    0.006615
     8  C    0.207951
     9  C    0.018932
    10  C    0.041300
    11  C    0.035804
    12  C    0.042523
    13  N   -0.235177
    14  C    0.185214
    15  C   -0.033906
    16  C   -0.129058
    17  S    0.144491
    18  C   -0.109910
    19  C    0.053483
    20  C   -0.018150
    21  C    0.090896
    22  C    0.029416
    23  C    0.038016
    24  C    0.025857
    25  C    0.081009
    26  C   -0.048938
    27  C    0.099820
    28  N   -0.172714
    29  C    0.106274
    30  C   -0.008463
    31  C    0.075555
    32  H    0.043581
    33  H    0.054071
    34  H   -0.023871
    35  H   -0.021284
    36  H   -0.024304
    37  H   -0.020271
    38  H    0.042528
    39  H    0.009192
    40  H    0.022200
    41  H    0.011658
    42  H   -0.027996
    43  H   -0.018133
    44  H   -0.028630
    45  H   -0.028883
    46  H   -0.025267
    47  H   -0.009162
    48  H   -0.001677
    49  H   -0.021451
    50  H   -0.019398
 Sum of Mulliken atomic charges =   0.00000
 Mulliken charges with hydrogens summed into heavy atoms:
              1
     1  O   -0.265176
     2  C    0.126527
     3  C    0.283003
     4  N   -0.252449
     5  N   -0.053842
     6  N   -0.180153
     7  C    0.006615
     8  C    0.207951
     9  C   -0.004938
    10  C    0.020016
    11  C    0.011500
    12  C    0.022252
    13  N   -0.235177
    14  C    0.236934
    15  C   -0.033906
    16  C   -0.106858
    17  S    0.144491
    18  C   -0.098252
    19  C    0.025487
    20  C   -0.018150
    21  C    0.072763
    22  C    0.000786
    23  C    0.038016
    24  C   -0.003025
    25  C    0.055742
    26  C   -0.048938
    27  C    0.090658
    28  N   -0.172714
    29  C    0.104597
    30  C   -0.029914
    31  C    0.056157
 Sum of Mulliken charges with hydrogens summed into heavy atoms =   0.00000
 Electronic spatial extent (au):  <R**2>=          14731.7170
 Charge=              0.0000 electrons
 Dipole moment (field-independent basis, Debye):
    X=             -3.2012    Y=              1.7081    Z=              1.7236  Tot=              4.0170
 Quadrupole moment (field-independent basis, Debye-Ang):
   XX=           -177.8297   YY=           -205.6052   ZZ=           -180.1969
   XY=             12.4860   XZ=              2.5795   YZ=            -10.7400
 Traceless Quadrupole moment (field-independent basis, Debye-Ang):
   XX=             10.0476   YY=            -17.7279   ZZ=              7.6804
   XY=             12.4860   XZ=              2.5795   YZ=            -10.7400
 Octapole moment (field-independent basis, Debye-Ang**2):
  XXX=           -149.1076  YYY=            -12.8731  ZZZ=             12.5886  XYY=             44.3680
  XXY=             10.4898  XXZ=            -13.0430  XZZ=              7.3988  YZZ=             -5.6724
  YYZ=             19.6769  XYZ=             13.5131
 Hexadecapole moment (field-independent basis, Debye-Ang**3):
 XXXX=         -11784.3011 YYYY=          -7489.1627 ZZZZ=          -1102.8518 XXXY=            -35.2617
 XXXZ=            153.5488 YYYX=            321.8696 YYYZ=           -129.4569 ZZZX=            -14.9677
 ZZZY=            -26.1893 XXYY=          -3142.8556 XXZZ=          -2238.2643 YYZZ=          -1410.6604
 XXYZ=            -16.2543 YYXZ=             79.6793 ZZXY=             -5.5178
 N-N= 3.023692705924D+03 E-N=-9.955655496060D+03  KE= 1.663755419286D+03
 No NMR shielding tensors so no spin-rotation constants.
 Leave Link  601 at Sat Sep 10 07:35:29 2022, MaxMem=  209715200 cpu:       4.1
 (Enter /opt/gaussian/l602.exe)
 Breneman (CHELPG) radii used.
 Read replacement radii for each type of atom:
 Rad(35) =   1.900000000000D+00
 Atom Element Radius
    1     8    1.70
    2     6    1.50
    3     6    1.50
    4     7    1.70
    5     7    1.70
    6     7    1.70
    7     6    1.50
    8     6    1.50
    9     6    1.50
   10     6    1.50
   11     6    1.50
   12     6    1.50
   13     7    1.70
   14     6    1.50
   15     6    1.50
   16     6    1.50
   17    16    2.00
   18     6    1.50
   19     6    1.50
   20     6    1.50
   21     6    1.50
   22     6    1.50
   23     6    1.50
   24     6    1.50
   25     6    1.50
   26     6    1.50
   27     6    1.50
   28     7    1.70
   29     6    1.50
   30     6    1.50
   31     6    1.50
   32     1    1.45
   33     1    1.45
   34     1    1.45
   35     1    1.45
   36     1    1.45
   37     1    1.45
   38     1    1.45
   39     1    1.45
   40     1    1.45
   41     1    1.45
   42     1    1.45
   43     1    1.45
   44     1    1.45
   45     1    1.45
   46     1    1.45
   47     1    1.45
   48     1    1.45
   49     1    1.45
   50     1    1.45
 Generate Potential Derived Charges using the Breneman model, NDens= 1.
 Grid spacing= 0.300 Box extension= 2.800
 NStep X,Y,Z=   60     49     37   Total possible points=      108780
 Number of Points to Fit=   27895

 **********************************************************************

            Electrostatic Properties Using The SCF Density

 **********************************************************************

       Atomic Center    1 is at   3.277929 -2.470231  0.253690
       Atomic Center    2 is at   2.189240 -1.912081  0.218460
       Atomic Center    3 is at   1.022919 -2.502351  1.031540
       Atomic Center    4 is at  -0.166891 -2.788470  0.247820
       Atomic Center    5 is at  -0.052971 -3.275610 -1.021560
       Atomic Center    6 is at  -1.228471 -3.516350 -1.499690
       Atomic Center    7 is at  -2.163571 -3.203900 -0.532760
       Atomic Center    8 is at  -1.486071 -2.731840  0.612010
       Atomic Center    9 is at  -2.169151 -2.335220  1.774400
       Atomic Center   10 is at  -3.555141 -2.426420  1.737780
       Atomic Center   11 is at  -4.247631 -2.896630  0.592370
       Atomic Center   12 is at  -3.567221 -3.289740 -0.551850
       Atomic Center   13 is at   1.967310 -0.769141 -0.508020
       Atomic Center   14 is at   3.082950 -0.274531 -1.347150
       Atomic Center   15 is at   4.023410  0.667119 -0.629750
       Atomic Center   16 is at   5.029470  0.248259  0.209990
       Atomic Center   17 is at   5.917220  1.582589  0.874820
       Atomic Center   18 is at   4.931310  2.727889  0.015480
       Atomic Center   19 is at   3.974210  2.097859 -0.735300
       Atomic Center   20 is at   0.788470  0.039509 -0.402730
       Atomic Center   21 is at  -0.160010  0.040540 -1.434730
       Atomic Center   22 is at  -1.289720  0.851530 -1.347300
       Atomic Center   23 is at  -1.508000  1.679870 -0.229610
       Atomic Center   24 is at  -0.544150  1.675870  0.794410
       Atomic Center   25 is at   0.595370  0.873769  0.706070
       Atomic Center   26 is at  -2.721390  2.529380 -0.135390
       Atomic Center   27 is at  -2.663550  3.833950  0.392270
       Atomic Center   28 is at  -3.713380  4.653000  0.513570
       Atomic Center   29 is at  -4.901030  4.194360  0.095320
       Atomic Center   30 is at  -5.083030  2.922790 -0.455250
       Atomic Center   31 is at  -3.979330  2.079360 -0.569340
       Atomic Center   32 is at   0.733140 -1.811141  1.835920
       Atomic Center   33 is at   1.419789 -3.422861  1.482010
       Atomic Center   34 is at  -1.647640 -1.975010  2.662420
       Atomic Center   35 is at  -4.130131 -2.130020  2.617800
       Atomic Center   36 is at  -5.337761 -2.952020  0.620490
       Atomic Center   37 is at  -4.086351 -3.657390 -1.438290
       Atomic Center   38 is at   3.626240 -1.160611 -1.697730
       Atomic Center   39 is at   2.634430  0.229299 -2.214520
       Atomic Center   40 is at   5.276400 -0.777481  0.474910
       Atomic Center   41 is at   5.121850  3.794809  0.111200
       Atomic Center   42 is at   3.253010  2.631909 -1.356020
       Atomic Center   43 is at  -0.014150 -0.614200 -2.295180
       Atomic Center   44 is at  -2.011200  0.848790 -2.166600
       Atomic Center   45 is at  -0.692770  2.296530  1.680090
       Atomic Center   46 is at   1.344910  0.891589  1.499650
       Atomic Center   47 is at  -1.701330  4.243890  0.717520
       Atomic Center   48 is at  -5.748850  4.878420  0.206850
       Atomic Center   49 is at  -6.074120  2.597040 -0.777540
       Atomic Center   50 is at  -4.093740  1.068850 -0.968170
   27895 points will be used for fitting atomic charges
 Fitting point charges to electrostatic potential
 Charges from ESP fit, RMS=   0.00423 RRMS=   0.29469:
 Charge=   0.00000 Dipole=    -3.0601     1.6835     1.6385 Tot=     3.8579
              1
     1  O   -0.477365
     2  C    0.443731
     3  C   -0.075439
     4  N    0.264667
     5  N   -0.190091
     6  N   -0.366742
     7  C    0.414347
     8  C   -0.073713
     9  C   -0.168422
    10  C   -0.097014
    11  C   -0.053872
    12  C   -0.237889
    13  N   -0.289920
    14  C    0.178700
    15  C    0.076745
    16  C   -0.245377
    17  S    0.017408
    18  C   -0.169324
    19  C   -0.152613
    20  C    0.207585
    21  C   -0.111378
    22  C   -0.149777
    23  C    0.079150
    24  C   -0.165824
    25  C   -0.100148
    26  C   -0.144559
    27  C    0.320712
    28  N   -0.535558
    29  C    0.339161
    30  C   -0.295439
    31  C    0.109939
    32  H    0.061760
    33  H    0.074178
    34  H    0.113333
    35  H    0.094512
    36  H    0.088168
    37  H    0.125562
    38  H    0.006365
    39  H    0.003344
    40  H    0.207550
    41  H    0.162461
    42  H    0.090616
    43  H    0.126608
    44  H    0.104969
    45  H    0.105903
    46  H    0.093334
    47  H    0.015662
    48  H    0.013742
    49  H    0.119963
    50  H    0.040290
 Charges from ESP fit with hydrogens summed into heavy atoms:
              1
     1  O   -0.477365
     2  C    0.443731
     3  C    0.060499
     4  N    0.264667
     5  N   -0.190091
     6  N   -0.366742
     7  C    0.414347
     8  C   -0.073713
     9  C   -0.055090
    10  C   -0.002502
    11  C    0.034297
    12  C   -0.112327
    13  N   -0.289920
    14  C    0.188408
    15  C    0.076745
    16  C   -0.037827
    17  S    0.017408
    18  C   -0.006863
    19  C   -0.061997
    20  C    0.207585
    21  C    0.015230
    22  C   -0.044808
    23  C    0.079150
    24  C   -0.059921
    25  C   -0.006814
    26  C   -0.144559
    27  C    0.336374
    28  N   -0.535558
    29  C    0.352903
    30  C   -0.175476
    31  C    0.150229
    32  H    0.000000
    33  H    0.000000
    34  H    0.000000
    35  H    0.000000
    36  H    0.000000
    37  H    0.000000
    38  H    0.000000
    39  H    0.000000
    40  H    0.000000
    41  H    0.000000
    42  H    0.000000
    43  H    0.000000
    44  H    0.000000
    45  H    0.000000
    46  H    0.000000
    47  H    0.000000
    48  H    0.000000
    49  H    0.000000
    50  H    0.000000
 -----------------------------------------------------------------

              Electrostatic Properties (Atomic Units)

 -----------------------------------------------------------------
    Center     Electric         -------- Electric Field --------
               Potential          X             Y             Z
 -----------------------------------------------------------------
    1 Atom    -22.368448
    2 Atom    -14.638876
    3 Atom    -14.682375
    4 Atom    -18.282560
    5 Atom    -18.322278
    6 Atom    -18.359329
    7 Atom    -14.726692
    8 Atom    -14.703639
    9 Atom    -14.729759
   10 Atom    -14.734768
   11 Atom    -14.740322
   12 Atom    -14.736877
   13 Atom    -18.328429
   14 Atom    -14.704048
   15 Atom    -14.747581
   16 Atom    -14.737716
   17 Atom    -59.188608
   18 Atom    -14.732079
   19 Atom    -14.751483
   20 Atom    -14.698573
   21 Atom    -14.737456
   22 Atom    -14.735734
   23 Atom    -14.724573
   24 Atom    -14.734641
   25 Atom    -14.734656
   26 Atom    -14.728370
   27 Atom    -14.713283
   28 Atom    -18.378735
   29 Atom    -14.713911
   30 Atom    -14.738143
   31 Atom    -14.729447
   32 Atom     -1.053579
   33 Atom     -1.072712
   34 Atom     -1.068462
   35 Atom     -1.081253
   36 Atom     -1.084477
   37 Atom     -1.078517
   38 Atom     -1.094240
   39 Atom     -1.088830
   40 Atom     -1.074466
   41 Atom     -1.066529
   42 Atom     -1.081811
   43 Atom     -1.077893
   44 Atom     -1.078182
   45 Atom     -1.076549
   46 Atom     -1.073319
   47 Atom     -1.087767
   48 Atom     -1.088363
   49 Atom     -1.075190
   50 Atom     -1.073040
 -----------------------------------------------------------------
 Leave Link  602 at Sat Sep 10 07:35:44 2022, MaxMem=  209715200 cpu:     112.9
 (Enter /opt/gaussian/l9999.exe)
 1\1\GINC-LQCAPF-6\SP\RB3LYP\CC-pVDZ\C24H19N5O1S1\LQCAPF-6\10-Sep-2022\
 0\\#p b3lyp/cc-pvdz pop=(chelpg,readradii)\\Mol08.log\\0,1\O,0,3.27793
 ,-2.47023,0.25369\C,0,2.18924,-1.91208,0.21846\C,0,1.02292,-2.50235,1.
 03154\N,0,-0.16689,-2.78847,0.24782\N,0,-0.05297,-3.27561,-1.02156\N,0
 ,-1.22847,-3.51635,-1.49969\C,0,-2.16357,-3.2039,-0.53276\C,0,-1.48607
 ,-2.73184,0.61201\C,0,-2.16915,-2.33522,1.7744\C,0,-3.55514,-2.42642,1
 .73778\C,0,-4.24763,-2.89663,0.59237\C,0,-3.56722,-3.28974,-0.55185\N,
 0,1.96731,-0.76914,-0.50802\C,0,3.08295,-0.27453,-1.34715\C,0,4.02341,
 0.66712,-0.62975\C,0,5.02947,0.24826,0.20999\S,0,5.91722,1.58259,0.874
 82\C,0,4.93131,2.72789,0.01548\C,0,3.97421,2.09786,-0.7353\C,0,0.78847
 ,0.03951,-0.40273\C,0,-0.16001,0.04054,-1.43473\C,0,-1.28972,0.85153,-
 1.3473\C,0,-1.508,1.67987,-0.22961\C,0,-0.54415,1.67587,0.79441\C,0,0.
 59537,0.87377,0.70607\C,0,-2.72139,2.52938,-0.13539\C,0,-2.66355,3.833
 95,0.39227\N,0,-3.71338,4.653,0.51357\C,0,-4.90103,4.19436,0.09532\C,0
 ,-5.08303,2.92279,-0.45525\C,0,-3.97933,2.07936,-0.56934\H,0,0.73314,-
 1.81114,1.83592\H,0,1.41979,-3.42286,1.48201\H,0,-1.64764,-1.97501,2.6
 6242\H,0,-4.13013,-2.13002,2.6178\H,0,-5.33776,-2.95202,0.62049\H,0,-4
 .08635,-3.65739,-1.43829\H,0,3.62624,-1.16061,-1.69773\H,0,2.63443,0.2
 293,-2.21452\H,0,5.2764,-0.77748,0.47491\H,0,5.12185,3.79481,0.1112\H,
 0,3.25301,2.63191,-1.35602\H,0,-0.01415,-0.6142,-2.29518\H,0,-2.0112,0
 .84879,-2.1666\H,0,-0.69277,2.29653,1.68009\H,0,1.34491,0.89159,1.4996
 5\H,0,-1.70133,4.24389,0.71752\H,0,-5.74885,4.87842,0.20685\H,0,-6.074
 12,2.59704,-0.77754\H,0,-4.09374,1.06885,-0.96817\\Version=EM64L-G09Re
 vC.01\State=1-A\HF=-1673.2276487\RMSD=6.819e-09\Dipole=-1.2594553,0.67
 20324,0.6781349\Quadrupole=7.4701194,-13.1802795,5.7101601,9.2830561,1
 .917792,-7.9849602\PG=C01 [X(C24H19N5O1S1)]\\@


 IT IS A PROFOUNDLY ERRONEOUS TRUISM ... THAT WE SHOULD CULTIVATE
 THE HABIT OF THINKING OF WHAT WE ARE DOING.
 THE PRECISE OPPOSITE IS THE CASE.
 CIVILIZATION ADVANCES BY EXTENDING THE NUMBER OF IMPORTANT OPERATIONS
 WHICH WE CAN PERFORM WITHOUT THINKING ABOUT THEM.

                                    -- ALFRED NORTH WHITEHEAD
 Job cpu time:  0 days  1 hours 52 minutes  1.3 seconds.
 File lengths (MBytes):  RWF=    157 Int=      0 D2E=      0 Chk=     11 Scr=      1
 Normal termination of Gaussian 09 at Sat Sep 10 07:35:44 2022.
