 Entering Gaussian System, Link 0=g09
 Input=Mol19.gjf
 Output=Mol19.log
 Initial command:
 /opt/gaussian/l1.exe /home/scr/lqcapf-6/Gau-555970.inp -scrdir=/home/scr/lqcapf-6/
 Entering Link 1 = /opt/gaussian/l1.exe PID=    555972.
  
 Copyright (c) 1988,1990,1992,1993,1995,1998,2003,2009,2011,
            Gaussian, Inc.  All Rights Reserved.
  
 This is part of the Gaussian(R) 09 program.  It is based on
 the Gaussian(R) 03 system (copyright 2003, Gaussian, Inc.),
 the Gaussian(R) 98 system (copyright 1998, Gaussian, Inc.),
 the Gaussian(R) 94 system (copyright 1995, Gaussian, Inc.),
 the Gaussian 92(TM) system (copyright 1992, Gaussian, Inc.),
 the Gaussian 90(TM) system (copyright 1990, Gaussian, Inc.),
 the Gaussian 88(TM) system (copyright 1988, Gaussian, Inc.),
 the Gaussian 86(TM) system (copyright 1986, Carnegie Mellon
 University), and the Gaussian 82(TM) system (copyright 1983,
 Carnegie Mellon University). Gaussian is a federally registered
 trademark of Gaussian, Inc.
  
 This software contains proprietary and confidential information,
 including trade secrets, belonging to Gaussian, Inc.
  
 This software is provided under written license and may be
 used, copied, transmitted, or stored only in accord with that
 written license.
  
 The following legend is applicable only to US Government
 contracts under FAR:
  
                    RESTRICTED RIGHTS LEGEND
  
 Use, reproduction and disclosure by the US Government is
 subject to restrictions as set forth in subparagraphs (a)
 and (c) of the Commercial Computer Software - Restricted
 Rights clause in FAR 52.227-19.
  
 Gaussian, Inc.
 340 Quinnipiac St., Bldg. 40, Wallingford CT 06492
  
  
 ---------------------------------------------------------------
 Warning -- This program may not be used in any manner that
 competes with the business of Gaussian, Inc. or will provide
 assistance to any competitor of Gaussian, Inc.  The licensee
 of this program is prohibited from giving any competitor of
 Gaussian, Inc. access to this program.  By using this program,
 the user acknowledges that Gaussian, Inc. is engaged in the
 business of creating and licensing software in the field of
 computational chemistry and represents and warrants to the
 licensee that it is not a competitor of Gaussian, Inc. and that
 it will not use this program in any manner prohibited above.
 ---------------------------------------------------------------
  

 Cite this work as:
 Gaussian 09, Revision C.01,
 M. J. Frisch, G. W. Trucks, H. B. Schlegel, G. E. Scuseria, 
 M. A. Robb, J. R. Cheeseman, G. Scalmani, V. Barone, B. Mennucci, 
 G. A. Petersson, H. Nakatsuji, M. Caricato, X. Li, H. P. Hratchian, 
 A. F. Izmaylov, J. Bloino, G. Zheng, J. L. Sonnenberg, M. Hada, 
 M. Ehara, K. Toyota, R. Fukuda, J. Hasegawa, M. Ishida, T. Nakajima, 
 Y. Honda, O. Kitao, H. Nakai, T. Vreven, J. A. Montgomery, Jr., 
 J. E. Peralta, F. Ogliaro, M. Bearpark, J. J. Heyd, E. Brothers, 
 K. N. Kudin, V. N. Staroverov, T. Keith, R. Kobayashi, J. Normand, 
 K. Raghavachari, A. Rendell, J. C. Burant, S. S. Iyengar, J. Tomasi, 
 M. Cossi, N. Rega, J. M. Millam, M. Klene, J. E. Knox, J. B. Cross, 
 V. Bakken, C. Adamo, J. Jaramillo, R. Gomperts, R. E. Stratmann, 
 O. Yazyev, A. J. Austin, R. Cammi, C. Pomelli, J. W. Ochterski, 
 R. L. Martin, K. Morokuma, V. G. Zakrzewski, G. A. Voth, 
 P. Salvador, J. J. Dannenberg, S. Dapprich, A. D. Daniels, 
 O. Farkas, J. B. Foresman, J. V. Ortiz, J. Cioslowski, 
 and D. J. Fox, Gaussian, Inc., Wallingford CT, 2010.
 
 ******************************************
 Gaussian 09:  EM64L-G09RevC.01 23-Sep-2011
                10-Sep-2022 
 ******************************************
 %nprocshared=8
 Will use up to    8 processors via shared memory.
 %mem=1600MB
 ---------------------------------------
 #p b3lyp/cc-pvdz pop=(chelpg,readradii)
 ---------------------------------------
 1/38=1/1;
 2/12=2,17=6,18=5,40=1/2;
 3/5=16,11=2,16=1,25=1,30=1,74=-5/1,2,3;
 4//1;
 5/5=2,38=5/2;
 6/7=2,8=2,9=2,10=2,15=8,20=103,28=1/1,2;
 99/5=1,9=1/99;
 Leave Link    1 at Sat Sep 10 09:37:29 2022, MaxMem=  209715200 cpu:       0.2
 (Enter /opt/gaussian/l101.exe)
 ---------
 Mol19.log
 ---------
 Charge =  0 Multiplicity = 1
 Symbolic Z-Matrix:
 O                     0.85121  -1.44947  -0.14099 
 C                     0.94944  -0.37319  -0.70133 
 C                     2.32665   0.14226  -1.16835 
 N                     3.36688  -0.83334  -0.96362 
 N                     3.94353  -1.42711  -2.05407 
 N                     4.86411  -2.23995  -1.66533 
 C                     4.92206  -2.20543  -0.28525 
 C                     5.75749  -2.8909    0.61451 
 C                     5.5858   -2.63544   1.96759 
 C                     4.60207  -1.72236   2.42671 
 C                     3.76504  -1.04049   1.55281 
 C                     3.9478   -1.29827   0.18415 
 N                    -0.13083   0.46114  -0.96057 
 C                     0.06213   1.79635  -1.54013 
 C                     0.51632   2.87256  -0.57449 
 C                     0.95227   4.16847  -1.01414 
 C                     1.30329   4.99577   0.01861 
 S                     1.11425   4.21316   1.55737 
 C                     0.55351   2.75588   0.794 
 C                    -1.46977   0.05096  -0.63883 
 C                    -2.39774   0.99154  -0.1643 
 C                    -3.71381   0.61867   0.1076 
 C                    -4.15559  -0.70204  -0.08051 
 C                    -3.21298  -1.63376  -0.55469 
 C                    -1.8964   -1.27361  -0.83003 
 C                    -5.54012  -1.10163   0.20662 
 C                    -6.67907  -0.30091   0.24161 
 N                    -7.71769  -1.11959   0.55059 
 N                    -7.35464  -2.40434   0.72611 
 C                    -6.04006  -2.40041   0.51716 
 H                     2.32152   0.34434  -2.24855 
 H                     2.57757   1.08113  -0.64944 
 H                     6.50743  -3.59286   0.24687 
 H                     6.21388  -3.14738   2.6995 
 H                     4.49566  -1.55747   3.50125 
 H                     2.99673  -0.35729   1.91526 
 H                     0.77673   1.73439  -2.37572 
 H                    -0.89431   2.08837  -1.99821 
 H                     1.00269   4.46705  -2.06259 
 H                     1.66841   6.01953  -0.03337 
 H                     0.27539   1.8954    1.39902 
 H                    -2.09235   2.02246   0.01995 
 H                    -4.40091   1.37043   0.50211 
 H                    -3.5199   -2.66572  -0.73607 
 H                    -1.19827  -2.02392  -1.19295 
 H                    -6.82401   0.75902   0.05151 
 H                    -5.48142  -3.32906   0.61612 
 H                    -8.69206  -0.86498   0.64753 
 
 NAtoms=     48 NQM=        0 NQMF=       0 NMMI=     48 NMMIF=      0
                NMic=       0 NMicF=      0.
                    Isotopes and Nuclear Properties:
 (Nuclear quadrupole moments (NQMom) in fm**2, nuclear magnetic moments (NMagM)
  in nuclear magnetons)

  Atom         1           2           3           4           5           6           7           8           9          10
 IAtWgt=          16          12          12          14          14          14          12          12          12          12
 AtmWgt=  15.9949146  12.0000000  12.0000000  14.0030740  14.0030740  14.0030740  12.0000000  12.0000000  12.0000000  12.0000000
 NucSpn=           0           0           0           2           2           2           0           0           0           0
 AtZEff=   0.0000000   0.0000000   0.0000000   0.0000000   0.0000000   0.0000000   0.0000000   0.0000000   0.0000000   0.0000000
 NQMom=    0.0000000   0.0000000   0.0000000   2.0440000   2.0440000   2.0440000   0.0000000   0.0000000   0.0000000   0.0000000
 NMagM=    0.0000000   0.0000000   0.0000000   0.4037610   0.4037610   0.4037610   0.0000000   0.0000000   0.0000000   0.0000000

  Atom        11          12          13          14          15          16          17          18          19          20
 IAtWgt=          12          12          14          12          12          12          12          32          12          12
 AtmWgt=  12.0000000  12.0000000  14.0030740  12.0000000  12.0000000  12.0000000  12.0000000  31.9720718  12.0000000  12.0000000
 NucSpn=           0           0           2           0           0           0           0           0           0           0
 AtZEff=   0.0000000   0.0000000   0.0000000   0.0000000   0.0000000   0.0000000   0.0000000   0.0000000   0.0000000   0.0000000
 NQMom=    0.0000000   0.0000000   2.0440000   0.0000000   0.0000000   0.0000000   0.0000000   0.0000000   0.0000000   0.0000000
 NMagM=    0.0000000   0.0000000   0.4037610   0.0000000   0.0000000   0.0000000   0.0000000   0.0000000   0.0000000   0.0000000

  Atom        21          22          23          24          25          26          27          28          29          30
 IAtWgt=          12          12          12          12          12          12          12          14          14          12
 AtmWgt=  12.0000000  12.0000000  12.0000000  12.0000000  12.0000000  12.0000000  12.0000000  14.0030740  14.0030740  12.0000000
 NucSpn=           0           0           0           0           0           0           0           2           2           0
 AtZEff=   0.0000000   0.0000000   0.0000000   0.0000000   0.0000000   0.0000000   0.0000000   0.0000000   0.0000000   0.0000000
 NQMom=    0.0000000   0.0000000   0.0000000   0.0000000   0.0000000   0.0000000   0.0000000   2.0440000   2.0440000   0.0000000
 NMagM=    0.0000000   0.0000000   0.0000000   0.0000000   0.0000000   0.0000000   0.0000000   0.4037610   0.4037610   0.0000000

  Atom        31          32          33          34          35          36          37          38          39          40
 IAtWgt=           1           1           1           1           1           1           1           1           1           1
 AtmWgt=   1.0078250   1.0078250   1.0078250   1.0078250   1.0078250   1.0078250   1.0078250   1.0078250   1.0078250   1.0078250
 NucSpn=           1           1           1           1           1           1           1           1           1           1
 AtZEff=   0.0000000   0.0000000   0.0000000   0.0000000   0.0000000   0.0000000   0.0000000   0.0000000   0.0000000   0.0000000
 NQMom=    0.0000000   0.0000000   0.0000000   0.0000000   0.0000000   0.0000000   0.0000000   0.0000000   0.0000000   0.0000000
 NMagM=    2.7928460   2.7928460   2.7928460   2.7928460   2.7928460   2.7928460   2.7928460   2.7928460   2.7928460   2.7928460

  Atom        41          42          43          44          45          46          47          48
 IAtWgt=           1           1           1           1           1           1           1           1
 AtmWgt=   1.0078250   1.0078250   1.0078250   1.0078250   1.0078250   1.0078250   1.0078250   1.0078250
 NucSpn=           1           1           1           1           1           1           1           1
 AtZEff=   0.0000000   0.0000000   0.0000000   0.0000000   0.0000000   0.0000000   0.0000000   0.0000000
 NQMom=    0.0000000   0.0000000   0.0000000   0.0000000   0.0000000   0.0000000   0.0000000   0.0000000
 NMagM=    2.7928460   2.7928460   2.7928460   2.7928460   2.7928460   2.7928460   2.7928460   2.7928460
 Leave Link  101 at Sat Sep 10 09:37:29 2022, MaxMem=  209715200 cpu:       0.7
 (Enter /opt/gaussian/l202.exe)
                          Input orientation:                          
 ---------------------------------------------------------------------
 Center     Atomic      Atomic             Coordinates (Angstroms)
 Number     Number       Type             X           Y           Z
 ---------------------------------------------------------------------
      1          8           0        0.851210   -1.449470   -0.140990
      2          6           0        0.949440   -0.373190   -0.701330
      3          6           0        2.326650    0.142260   -1.168350
      4          7           0        3.366880   -0.833340   -0.963620
      5          7           0        3.943530   -1.427110   -2.054070
      6          7           0        4.864110   -2.239950   -1.665330
      7          6           0        4.922060   -2.205430   -0.285250
      8          6           0        5.757490   -2.890900    0.614510
      9          6           0        5.585800   -2.635440    1.967590
     10          6           0        4.602070   -1.722360    2.426710
     11          6           0        3.765040   -1.040490    1.552810
     12          6           0        3.947800   -1.298270    0.184150
     13          7           0       -0.130830    0.461140   -0.960570
     14          6           0        0.062130    1.796350   -1.540130
     15          6           0        0.516320    2.872560   -0.574490
     16          6           0        0.952270    4.168470   -1.014140
     17          6           0        1.303290    4.995770    0.018610
     18         16           0        1.114250    4.213160    1.557370
     19          6           0        0.553510    2.755880    0.794000
     20          6           0       -1.469770    0.050960   -0.638830
     21          6           0       -2.397740    0.991540   -0.164300
     22          6           0       -3.713810    0.618670    0.107600
     23          6           0       -4.155590   -0.702040   -0.080510
     24          6           0       -3.212980   -1.633760   -0.554690
     25          6           0       -1.896400   -1.273610   -0.830030
     26          6           0       -5.540120   -1.101630    0.206620
     27          6           0       -6.679070   -0.300910    0.241610
     28          7           0       -7.717690   -1.119590    0.550590
     29          7           0       -7.354640   -2.404340    0.726110
     30          6           0       -6.040060   -2.400410    0.517160
     31          1           0        2.321520    0.344340   -2.248550
     32          1           0        2.577570    1.081130   -0.649440
     33          1           0        6.507430   -3.592860    0.246870
     34          1           0        6.213880   -3.147380    2.699500
     35          1           0        4.495660   -1.557470    3.501250
     36          1           0        2.996730   -0.357290    1.915260
     37          1           0        0.776730    1.734390   -2.375720
     38          1           0       -0.894310    2.088370   -1.998210
     39          1           0        1.002690    4.467050   -2.062590
     40          1           0        1.668410    6.019530   -0.033370
     41          1           0        0.275390    1.895400    1.399020
     42          1           0       -2.092350    2.022460    0.019950
     43          1           0       -4.400910    1.370430    0.502110
     44          1           0       -3.519900   -2.665720   -0.736070
     45          1           0       -1.198270   -2.023920   -1.192950
     46          1           0       -6.824010    0.759020    0.051510
     47          1           0       -5.481420   -3.329060    0.616120
     48          1           0       -8.692060   -0.864980    0.647530
 ---------------------------------------------------------------------
                    Distance matrix (angstroms):
                    1          2          3          4          5
     1  O    0.000000
     2  C    1.217378   0.000000
     3  C    2.401249   1.542888   0.000000
     4  N    2.717523   2.474783   1.440760   0.000000
     5  N    3.636319   3.450395   2.421100   1.369003   0.000000
     6  N    4.364841   4.442829   3.515767   2.170863   1.288136
     7  C    4.142959   4.394535   3.609386   2.182064   2.166109
     8  C    5.169147   5.584590   4.914195   3.526906   3.543226
     9  C    5.316858   5.808334   5.307711   4.094284   4.508976
    10  C    4.553735   4.994657   4.645299   3.716233   4.538528
    11  C    3.395089   3.667975   3.297359   2.556142   3.631930
    12  C    3.117282   3.260370   2.555878   1.367846   2.241929
    13  N    2.299249   1.389351   2.486778   3.729566   4.621865
    14  C    3.621545   2.489540   2.828831   4.262512   5.071498
    15  C    4.356606   3.276976   3.329340   4.691568   5.694040
    16  C    5.686286   4.552421   4.257120   5.554367   6.429588
    17  C    6.463046   5.428559   5.100265   6.261126   7.247086
    18  S    5.917685   5.115026   5.046949   6.074281   7.270486
    19  C    4.318310   3.490537   3.718313   4.887410   6.091071
    20  C    2.808217   2.456906   3.834258   4.927541   5.787177
    21  C    4.063834   3.654381   4.904004   6.099176   7.045055
    22  C    5.017809   4.835706   6.192106   7.306984   8.215406
    23  C    5.062643   5.153144   6.626890   7.575268   8.367581
    24  C    4.089346   4.351584   5.849643   6.640968   7.314812
    25  C    2.838144   2.987662   4.466912   5.283351   5.968804
    26  C    6.410220   6.593132   8.082319   8.987552   9.754808
    27  C    7.626971   7.686906   9.126192  10.131988  10.926029
    28  N    8.603090   8.788831  10.268193  11.191178  11.952526
    29  N    8.306601   8.667231  10.188303  10.966960  11.676173
    30  C    6.987636   7.378851   8.905501   9.650852  10.355221
    31  H    3.133907   2.188914   1.098952   2.032425   2.409725
    32  H    3.105282   2.183700   1.101683   2.094496   3.182782
    33  H    6.061137   6.492812   5.782118   4.352389   4.069199
    34  H    6.301548   6.853912   6.394728   5.184461   5.541683
    35  H    5.153600   5.624933   5.422071   4.661928   5.584212
    36  H    3.166114   3.322378   3.194872   2.941358   4.218593
    37  H    3.890569   2.697277   2.528808   3.911028   4.486331
    38  H    4.360323   3.337752   3.853647   5.269204   5.980503
    39  H    6.222596   5.028299   4.610460   5.906883   6.587088
    40  H    7.514344   6.467608   6.021940   7.121235   8.044367
    41  H    3.727111   3.164224   3.724588   4.752410   6.034746
    42  H    4.554640   3.938511   4.947198   6.239086   7.254856
    43  H    5.995847   5.754539   7.039808   8.206310   9.164604
    44  H    4.576023   5.023137   6.500290   7.130016   7.679457
    45  H    2.374233   2.753045   4.137391   4.723417   5.247458
    46  H    7.988960   7.891463   9.252191  10.364378  11.187160
    47  H    6.648931   7.199222   8.729281   9.328269   9.978828
    48  H    9.593612   9.747810  11.212668  12.166135  12.933397
                    6          7          8          9         10
     6  N    0.000000
     7  C    1.381727   0.000000
     8  C    2.533680   1.406194   0.000000
     9  C    3.724964   2.387624   1.387646   0.000000
    10  C    4.132960   2.773171   2.446334   1.418531   0.000000
    11  C    3.605979   2.464598   2.876505   2.455825   1.388981
    12  C    2.268692   1.411545   2.448807   2.766175   2.374236
    13  N    5.722063   5.753117   6.956246   7.130413   6.216243
    14  C    6.274265   6.419337   7.684394   7.902898   6.980558
    15  C    6.799336   6.729055   7.880422   7.905685   6.842064
    16  C    7.536205   7.544343   8.693523   8.755199   7.737077
    17  C    8.238370   8.065055   9.077145   8.965143   7.862199
    18  S    8.129568   7.687195   8.539106   8.189405   6.939095
    19  C    7.041867   6.698030   7.681129   7.467770   6.253896
    20  C    6.813223   6.787621   7.903081   7.986942   7.029185
    21  C    8.088886   7.988411   9.065741   9.024237   7.942035
    22  C    9.213886   9.094401  10.113336  10.026542   8.944974
    23  C    9.286108   9.203577  10.175624  10.140386   9.166450
    24  C    8.175596   8.159551   9.133278   9.207811   8.364903
    25  C    6.880119   6.903367   7.955146   8.103368   7.282709
    26  C   10.632402  10.531739  11.445691  11.368363  10.400871
    27  C   11.859229  11.768220  12.708860  12.603812  11.578398
    28  N   12.824477  12.713810  13.591251  13.464343  12.476363
    29  N   12.451661  12.319894  13.121629  13.001910  12.096283
    30  C   11.121598  10.993178  11.808143  11.718345  10.833331
    31  H    3.671984   4.137473   5.519944   6.108228   5.597340
    32  H    4.158109   4.053485   5.242755   5.450797   4.628267
    33  H    2.861359   2.172904   1.091017   2.174151   3.446864
    34  H    4.658009   3.385971   2.149711   1.091906   2.168647
    35  H    5.224470   3.865133   3.421041   2.168533   1.092313
    36  H    4.455574   3.459012   3.966475   3.449056   2.168436
    37  H    5.745146   6.089007   7.425817   7.815812   7.045969
    38  H    7.211419   7.429745   8.710102   8.946160   8.019462
    39  H    7.749337   7.939924   9.160481   9.364433   8.450926
    40  H    9.005265   8.848709   9.825278   9.708671   8.636852
    41  H    6.895485   6.422236   7.319668   7.003730   5.732756
    42  H    8.330705   8.195740   9.279795   9.189305   8.039367
    43  H   10.177094  10.016211  11.016563  10.859512   9.712007
    44  H    8.446090   8.466510   9.377886   9.498656   8.766955
    45  H    6.084592   6.189936   7.238865   7.509100   6.843743
    46  H   12.188253  12.119057  13.112323  13.007579  11.931225
    47  H   10.649937  10.502733  11.247448  11.170986  10.369980
    48  H   13.820623  13.711716  14.590920  14.447642  13.440033
                   11         12         13         14         15
    11  C    0.000000
    12  C    1.404664   0.000000
    13  N    4.873374   4.587061   0.000000
    14  C    5.596917   5.258160   1.468301   0.000000
    15  C    5.512853   5.454027   2.526422   1.515578   0.000000
    16  C    6.452455   6.347783   3.862677   2.587657   1.436220
    17  C    6.697045   6.829039   4.855756   3.769143   2.340750
    18  S    5.884518   6.347488   4.686993   4.067239   2.588350
    19  C    5.030124   5.322523   2.968614   2.571053   1.373959
    20  C    5.779082   5.643384   1.436845   2.491073   3.451104
    21  C    6.712486   6.755037   2.460539   2.931141   3.492598
    22  C    7.795809   7.898151   3.742132   4.284818   4.841412
    23  C    8.094360   8.129604   4.280910   5.114842   5.903264
    24  C    7.313432   7.206609   3.748732   4.843872   5.849358
    25  C    6.146883   5.931597   2.478636   3.710086   4.803878
    26  C    9.402232   9.489984   5.750217   6.544817   7.285931
    27  C   10.552045  10.673724   6.701149   7.281269   7.906363
    28  N   11.526656  11.672612   7.895743   8.567346   9.219652
    29  N   11.233468  11.369356   7.952314   8.819871   9.565001
    30  C    9.952986  10.054002   6.729870   7.686479   8.484222
    31  H    4.295561   3.355739   2.772464   2.777595   3.528898
    32  H    3.280436   2.869485   2.795822   2.762663   2.731957
    33  H    3.967465   3.438137   7.871424   8.589461   8.852666
    34  H    3.427930   3.857630   8.165346   8.958736   8.911839
    35  H    2.144176   3.372015   6.736990   7.504653   7.216091
    36  H    1.090153   2.187857   4.326876   5.018940   4.773177
    37  H    5.662447   5.079926   2.108905   1.101228   2.146549
    38  H    6.641464   6.299052   2.075446   1.099950   2.152164
    39  H    7.143857   6.852768   4.306580   2.879280   2.234591
    40  H    7.533638   7.667668   5.915460   4.762952   3.394634
    41  H    4.562977   5.016177   2.791018   2.948541   2.215317
    42  H    6.785303   6.894753   2.691970   2.669599   2.807345
    43  H    8.579000   8.770634   4.604327   4.926548   5.253057
    44  H    7.807093   7.647435   4.616649   5.778193   6.854905
    45  H    5.756803   5.376338   2.714581   4.037772   5.224732
    46  H   10.845281  10.967312   6.775817   7.143409   7.664162
    47  H    9.571414   9.655097   6.743914   7.851763   8.709221
    48  H   12.491184  12.655770   8.811313   9.407676  10.012832
                   16         17         18         19         20
    16  C    0.000000
    17  C    1.369019   0.000000
    18  S    2.576994   1.736663   0.000000
    19  C    2.328903   2.486063   1.738053   0.000000
    20  C    4.791766   5.707297   5.368833   3.669231   0.000000
    21  C    4.694431   5.455725   5.067253   3.569469   1.403922
    22  C    5.969228   6.658695   6.191313   4.821704   2.432112
    23  C    7.119253   7.891403   7.390065   5.907419   2.844707
    24  C    7.157253   8.042141   7.574443   5.939221   2.425725
    25  C    6.145328   7.089664   6.698383   4.987617   1.404655
    26  C    8.450760   9.167655   8.622770   7.235864   4.314047
    27  C    8.932503   9.582412   9.101862   7.871424   5.294884
    28  N   10.275221  10.911403  10.366050   9.137356   6.466948
    29  N   10.734759  11.411483  10.779814   9.443056   6.520986
    30  C    9.715335  10.434406   9.798239   8.374911   5.313481
    31  H    4.245301   5.273766   5.559703   4.265969   4.129304
    32  H    3.508030   4.170670   4.101332   2.997520   4.176401
    33  H    9.627471  10.044886   9.577983   8.720953   8.814625
    34  H    9.746657   9.879876   9.027083   8.397571   8.967291
    35  H    8.107450   8.078673   6.965111   6.440088   7.437316
    36  H    5.765735   5.926236   4.955888   4.113195   5.161363
    37  H    2.794541   4.080034   4.661268   3.337723   3.301134
    38  H    2.950435   4.165331   4.603390   3.215305   2.515971
    39  H    1.091302   2.168248   3.630567   3.360055   5.257566
    40  H    2.213863   1.088163   2.469923   3.546682   6.770420
    41  H    3.383542   3.546041   2.469974   1.088038   3.255822
    42  H    3.865800   4.513418   4.176734   2.852654   2.169887
    43  H    6.227727   6.776043   6.293781   5.152761   3.410913
    44  H    8.172134   9.084665   8.605475   6.951800   3.404826
    45  H    6.557628   7.549949   7.198137   5.464722   2.164691
    46  H    8.557482   9.165377   8.787188   7.678968   5.444796
    47  H   10.013145  10.756026  10.063493   8.571961   5.393771
    48  H   11.004993  11.603920  11.080570   9.930390   7.392912
                   21         22         23         24         25
    21  C    0.000000
    22  C    1.394633   0.000000
    23  C    2.442390   1.405286   0.000000
    24  C    2.776548   2.400604   1.407644   0.000000
    25  C    2.413595   2.786190   2.447940   1.392445   0.000000
    26  C    3.793876   2.510905   1.469367   2.505661   3.792218
    27  C    4.490543   3.107467   2.575387   3.797942   4.996848
    28  N    5.767998   4.387350   3.641592   4.666736   5.984752
    29  N    6.074182   4.772503   3.712463   4.403134   5.787271
    30  C    5.023565   3.833278   2.606319   3.119134   4.500502
    31  H    5.199460   6.484744   6.910012   6.116595   4.735062
    32  H    4.999710   6.353616   6.988478   6.396098   5.059034
    33  H   10.024362  11.055774  11.052783   9.948213   8.784247
    34  H    9.974568  10.929781  11.010634  10.086946   9.041307
    35  H    8.212958   9.145919   9.402388   8.710890   7.726512
    36  H    5.936684   7.017940   7.433548   6.803714   5.684979
    37  H    3.939475   5.251348   5.960869   5.529771   4.310782
    38  H    2.612769   3.813664   4.701054   4.616734   3.697531
    39  H    5.219732   6.462594   7.566768   7.567398   6.548214
    40  H    6.467720   7.626103   8.893858   9.092447   8.156741
    41  H    3.225919   4.383095   5.345025   5.332980   4.441617
    42  H    1.090874   2.146495   3.419057   3.867036   3.409537
    43  H    2.144843   1.092194   2.166739   3.398994   3.877901
    44  H    3.868038   3.396557   2.165618   1.091806   2.140689
    45  H    3.404387   3.873326   3.425001   2.149106   1.087227
    46  H    4.437624   3.113870   3.045093   4.374061   5.402781
    47  H    5.365233   4.355182   3.023963   3.064418   4.378195
    48  H    6.612428   5.222616   4.597407   5.661861   6.966431
                   26         27         28         29         30
    26  C    0.000000
    27  C    1.392689   0.000000
    28  N    2.204643   1.358101   0.000000
    29  N    2.293339   2.261759   1.346549   0.000000
    30  C    1.425905   2.211823   2.110938   1.331088   0.000000
    31  H    8.362061   9.360976  10.524448  10.489610   9.224902
    32  H    8.449507   9.401563  10.596019  10.615528   9.367263
    33  H   12.302492  13.591201  14.441723  13.921179  12.606923
    34  H   12.188358  13.430256  14.241432  13.731391  12.469147
    35  H   10.572571  11.708065  12.572353  12.200336  10.982565
    36  H    8.737923   9.819643  10.827845  10.618632   9.369770
    37  H    7.390134   8.159768   9.426753   9.636888   8.481389
    38  H    6.051523   6.647473   7.959014   8.327198   7.277017
    39  H    8.886387   9.330178  10.681024  11.173084  10.169437
    40  H   10.135651  10.473968  11.807071  12.367450  11.428866
    41  H    6.650125   7.384300   8.584831   8.783959   7.688730
    42  H    4.656383   5.146376   6.465176   6.912808   5.949236
    43  H    2.737918   2.837473   4.147720   4.798290   4.111724
    44  H    2.723294   4.065531   4.654831   4.112362   2.827045
    45  H    4.654146   5.921646   6.808861   6.459752   5.148704
    46  H    2.265933   1.086553   2.139374   3.277728   3.288374
    47  H    2.265520   3.277852   3.144353   2.091927   1.088238
    48  H    3.191415   2.129571   1.011741   2.040710   3.067189
                   31         32         33         34         35
    31  H    0.000000
    32  H    1.779206   0.000000
    33  H    6.265023   6.171981   0.000000
    34  H    7.199012   6.505263   2.509984   0.000000
    35  H    6.434591   5.279158   4.333707   2.474449   0.000000
    36  H    4.276156   2.970258   5.057416   4.330091   2.490499
    37  H    2.082015   2.578724   8.252181   8.896749   7.694515
    38  H    3.666862   3.858454   9.597005  10.000396   8.519858
    39  H    4.332509   3.992705  10.029851  10.383330   8.913585
    40  H    6.127100   5.059042  10.765347  10.590662   8.825974
    41  H    4.460628   3.187359   8.383721   7.898515   5.844002
    42  H    5.238743   4.810648  10.273243  10.143998   8.266633
    43  H    7.335534   7.078767  11.987130  11.743632   9.834449
    44  H    6.743163   7.157201  10.117960  10.333519   9.134128
    45  H    4.371712   4.918710   7.994527   8.447088   7.394182
    46  H    9.439436   9.433175  14.025132  13.865727  12.058265
    47  H    9.087688   9.273550  11.997436  11.880805  10.535874
    48  H   11.452016  11.509737  15.447536  15.218639  13.510708
                   36         37         38         39         40
    36  H    0.000000
    37  H    5.264602   0.000000
    38  H    6.036281   1.749340   0.000000
    39  H    6.563059   2.759808   3.043168   0.000000
    40  H    6.798928   4.964285   5.087450   2.640286   0.000000
    41  H    3.570267   3.811290   3.598139   4.373225   4.582651
    42  H    5.929093   3.748845   2.347896   4.460075   5.488418
    43  H    7.727036   5.934840   4.366152   6.735402   7.664040
    44  H    7.404382   6.364782   5.575670   8.549262  10.141298
    45  H    5.480570   4.407319   4.201400   6.908921   8.617399
    46  H   10.058163   8.038286   6.413257   8.914939   9.990063
    47  H    9.077346   8.588019   7.564711  10.488017  11.787198
    48  H   11.768292  10.273984   8.747978  11.391377  12.457907
                   41         42         43         44         45
    41  H    0.000000
    42  H    2.743022   0.000000
    43  H    4.790389   2.446849   0.000000
    44  H    6.306080   4.958679   4.312746   0.000000
    45  H    4.924536   4.317835   4.965052   2.451655   0.000000
    46  H    7.314959   4.897538   2.539346   4.823512   6.398624
    47  H    7.813372   6.362388   4.823454   2.473054   4.829234
    48  H    9.412736   7.230998   4.840679   5.648739   7.803038
                   46         47         48
    46  H    0.000000
    47  H    4.339785   0.000000
    48  H    2.546022   4.047331   0.000000
 Stoichiometry    C22H18N6OS
 Framework group  C1[X(C22H18N6OS)]
 Deg. of freedom   138
 Full point group                 C1      NOp   1
 Largest Abelian subgroup         C1      NOp   1
 Largest concise Abelian subgroup C1      NOp   1
                         Standard orientation:                         
 ---------------------------------------------------------------------
 Center     Atomic      Atomic             Coordinates (Angstroms)
 Number     Number       Type             X           Y           Z
 ---------------------------------------------------------------------
      1          8           0        0.851210   -1.449470   -0.140990
      2          6           0        0.949440   -0.373190   -0.701330
      3          6           0        2.326650    0.142260   -1.168350
      4          7           0        3.366880   -0.833340   -0.963620
      5          7           0        3.943530   -1.427110   -2.054070
      6          7           0        4.864110   -2.239950   -1.665330
      7          6           0        4.922060   -2.205430   -0.285250
      8          6           0        5.757490   -2.890900    0.614510
      9          6           0        5.585800   -2.635440    1.967590
     10          6           0        4.602070   -1.722360    2.426710
     11          6           0        3.765040   -1.040490    1.552810
     12          6           0        3.947800   -1.298270    0.184150
     13          7           0       -0.130830    0.461140   -0.960570
     14          6           0        0.062130    1.796350   -1.540130
     15          6           0        0.516320    2.872560   -0.574490
     16          6           0        0.952270    4.168470   -1.014140
     17          6           0        1.303290    4.995770    0.018610
     18         16           0        1.114250    4.213160    1.557370
     19          6           0        0.553510    2.755880    0.794000
     20          6           0       -1.469770    0.050960   -0.638830
     21          6           0       -2.397740    0.991540   -0.164300
     22          6           0       -3.713810    0.618670    0.107600
     23          6           0       -4.155590   -0.702040   -0.080510
     24          6           0       -3.212980   -1.633760   -0.554690
     25          6           0       -1.896400   -1.273610   -0.830030
     26          6           0       -5.540120   -1.101630    0.206620
     27          6           0       -6.679070   -0.300910    0.241610
     28          7           0       -7.717690   -1.119590    0.550590
     29          7           0       -7.354640   -2.404340    0.726110
     30          6           0       -6.040060   -2.400410    0.517160
     31          1           0        2.321520    0.344340   -2.248550
     32          1           0        2.577570    1.081130   -0.649440
     33          1           0        6.507430   -3.592860    0.246870
     34          1           0        6.213880   -3.147380    2.699500
     35          1           0        4.495660   -1.557470    3.501250
     36          1           0        2.996730   -0.357290    1.915260
     37          1           0        0.776730    1.734390   -2.375720
     38          1           0       -0.894310    2.088370   -1.998210
     39          1           0        1.002690    4.467050   -2.062590
     40          1           0        1.668410    6.019530   -0.033370
     41          1           0        0.275390    1.895400    1.399020
     42          1           0       -2.092350    2.022460    0.019950
     43          1           0       -4.400910    1.370430    0.502110
     44          1           0       -3.519900   -2.665720   -0.736070
     45          1           0       -1.198270   -2.023920   -1.192950
     46          1           0       -6.824010    0.759020    0.051510
     47          1           0       -5.481420   -3.329060    0.616120
     48          1           0       -8.692060   -0.864980    0.647530
 ---------------------------------------------------------------------
 Rotational constants (GHZ):      0.1904734      0.0727796      0.0589089
 Leave Link  202 at Sat Sep 10 09:37:29 2022, MaxMem=  209715200 cpu:       0.0
 (Enter /opt/gaussian/l301.exe)
 Standard basis: CC-pVDZ (5D, 7F)
 Ernie: Thresh=  0.10000D-02 Tol=  0.10000D-05 Strict=F.
 Ernie:  68 primitive shells out of 778 were deleted.
 There are   514 symmetry adapted basis functions of A   symmetry.
 Integral buffers will be    131072 words long.
 Raffenetti 2 integral format.
 Two-electron integral symmetry is turned on.
   514 basis functions,  1154 primitive gaussians,   544 cartesian basis functions
   108 alpha electrons      108 beta electrons
       nuclear repulsion energy      2770.8712760746 Hartrees.
 IExCor=  402 DFT=T Ex+Corr=B3LYP ExCW=0 ScaHFX=  0.200000
 ScaDFX=  0.800000  0.720000  1.000000  0.810000 ScalE2=  1.000000  1.000000
 IRadAn=      0 IRanWt=     -1 IRanGd=            0 ICorTp=0
 NAtoms=   48 NActive=   48 NUniq=   48 SFac= 1.00D+00 NAtFMM=   60 NAOKFM=F Big=F
 Leave Link  301 at Sat Sep 10 09:37:29 2022, MaxMem=  209715200 cpu:       0.3
 (Enter /opt/gaussian/l302.exe)
 NPDir=0 NMtPBC=     1 NCelOv=     1 NCel=       1 NClECP=     1 NCelD=      1
         NCelK=      1 NCelE2=     1 NClLst=     1 CellRange=     0.0.
 One-electron integrals computed using PRISM.
 NBasis=   514 RedAO= T  NBF=   514
 NBsUse=   514 1.00D-06 NBFU=   514
 Precomputing XC quadrature grid using
 IXCGrd= 2 IRadAn=           0 IRanWt=          -1 IRanGd=           0 AccXCQ= 0.00D+00.
 NRdTot=    3094 NPtTot=      395314 NUsed=      417609 NTot=      417641
 NSgBfM=   519   519   520   521   522 NAtAll=    48    48.
 Leave Link  302 at Sat Sep 10 09:37:30 2022, MaxMem=  209715200 cpu:       7.2
 (Enter /opt/gaussian/l303.exe)
 DipDrv:  MaxL=1.
 Leave Link  303 at Sat Sep 10 09:37:30 2022, MaxMem=  209715200 cpu:       1.1
 (Enter /opt/gaussian/l401.exe)
 Harris functional with IExCor=  402 diagonalized for initial guess.
 ExpMin= 1.22D-01 ExpMax= 1.11D+05 ExpMxC= 1.07D+03 IAcc=2 IRadAn=         4 AccDes= 0.00D+00
 HarFok:  IExCor=  402 AccDes= 0.00D+00 IRadAn=         4 IDoV= 1
 ScaDFX=  1.000000  1.000000  1.000000  1.000000
 FoFCou: FMM=F IPFlag=           0 FMFlag=      100000 FMFlg1=           0
         NFxFlg=           0 DoJE=T BraDBF=F KetDBF=T FulRan=T
         Omega=  0.000000  0.000000  1.000000  0.000000  0.000000 ICntrl=     500 IOpCl=  0
         NMat0=    1 NMatS0=    1 NMatT0=    0 NMatD0=    1 NMtDS0=    0 NMtDT0=    0
         I1Cent=           4 NGrid=           0.
 Petite list used in FoFCou.
 Harris En= -1650.91208919446    
 Initial guess orbital symmetries:
       Occupied  (A) (A) (A) (A) (A) (A) (A) (A) (A) (A) (A) (A)
                 (A) (A) (A) (A) (A) (A) (A) (A) (A) (A) (A) (A)
                 (A) (A) (A) (A) (A) (A) (A) (A) (A) (A) (A) (A)
                 (A) (A) (A) (A) (A) (A) (A) (A) (A) (A) (A) (A)
                 (A) (A) (A) (A) (A) (A) (A) (A) (A) (A) (A) (A)
                 (A) (A) (A) (A) (A) (A) (A) (A) (A) (A) (A) (A)
                 (A) (A) (A) (A) (A) (A) (A) (A) (A) (A) (A) (A)
                 (A) (A) (A) (A) (A) (A) (A) (A) (A) (A) (A) (A)
                 (A) (A) (A) (A) (A) (A) (A) (A) (A) (A) (A) (A)
       Virtual   (A) (A) (A) (A) (A) (A) (A) (A) (A) (A) (A) (A)
                 (A) (A) (A) (A) (A) (A) (A) (A) (A) (A) (A) (A)
                 (A) (A) (A) (A) (A) (A) (A) (A) (A) (A) (A) (A)
                 (A) (A) (A) (A) (A) (A) (A) (A) (A) (A) (A) (A)
                 (A) (A) (A) (A) (A) (A) (A) (A) (A) (A) (A) (A)
                 (A) (A) (A) (A) (A) (A) (A) (A) (A) (A) (A) (A)
                 (A) (A) (A) (A) (A) (A) (A) (A) (A) (A) (A) (A)
                 (A) (A) (A) (A) (A) (A) (A) (A) (A) (A) (A) (A)
                 (A) (A) (A) (A) (A) (A) (A) (A) (A) (A) (A) (A)
                 (A) (A) (A) (A) (A) (A) (A) (A) (A) (A) (A) (A)
                 (A) (A) (A) (A) (A) (A) (A) (A) (A) (A) (A) (A)
                 (A) (A) (A) (A) (A) (A) (A) (A) (A) (A) (A) (A)
                 (A) (A) (A) (A) (A) (A) (A) (A) (A) (A) (A) (A)
                 (A) (A) (A) (A) (A) (A) (A) (A) (A) (A) (A) (A)
                 (A) (A) (A) (A) (A) (A) (A) (A) (A) (A) (A) (A)
                 (A) (A) (A) (A) (A) (A) (A) (A) (A) (A) (A) (A)
                 (A) (A) (A) (A) (A) (A) (A) (A) (A) (A) (A) (A)
                 (A) (A) (A) (A) (A) (A) (A) (A) (A) (A) (A) (A)
                 (A) (A) (A) (A) (A) (A) (A) (A) (A) (A) (A) (A)
                 (A) (A) (A) (A) (A) (A) (A) (A) (A) (A) (A) (A)
                 (A) (A) (A) (A) (A) (A) (A) (A) (A) (A) (A) (A)
                 (A) (A) (A) (A) (A) (A) (A) (A) (A) (A) (A) (A)
                 (A) (A) (A) (A) (A) (A) (A) (A) (A) (A) (A) (A)
                 (A) (A) (A) (A) (A) (A) (A) (A) (A) (A) (A) (A)
                 (A) (A) (A) (A) (A) (A) (A) (A) (A) (A) (A) (A)
                 (A) (A) (A) (A) (A) (A) (A) (A) (A) (A) (A) (A)
                 (A) (A) (A) (A) (A) (A) (A) (A) (A) (A) (A) (A)
                 (A) (A) (A) (A) (A) (A) (A) (A) (A) (A) (A) (A)
                 (A) (A) (A) (A) (A) (A) (A) (A) (A) (A) (A) (A)
                 (A) (A) (A) (A) (A) (A) (A) (A) (A) (A) (A) (A)
                 (A) (A) (A) (A) (A) (A) (A) (A) (A) (A) (A) (A)
                 (A) (A) (A) (A) (A) (A) (A) (A) (A) (A) (A) (A)
                 (A) (A) (A) (A) (A) (A) (A) (A) (A) (A) (A) (A)
                 (A) (A) (A) (A) (A) (A) (A) (A) (A) (A)
 The electronic state of the initial guess is 1-A.
 Leave Link  401 at Sat Sep 10 09:37:33 2022, MaxMem=  209715200 cpu:      23.0
 (Enter /opt/gaussian/l502.exe)
 Closed shell SCF:
 Requested convergence on RMS density matrix=1.00D-08 within 128 cycles.
 Requested convergence on MAX density matrix=1.00D-06.
 Requested convergence on             energy=1.00D-06.
 No special actions if energy rises.
 Using DIIS extrapolation, IDIIS=  1040.
 Integral symmetry usage will be decided dynamically.
       417164 words used for storage of precomputed grid.
 IEnd=     1331580 IEndB=     1331580 NGot=   209715200 MDV=   208696741
 LenX=   208696741 LenY=   208400261
 Fock matrices will be formed incrementally for  20 cycles.
 Integral accuracy reduced to 1.0D-05 until final iterations.

 Cycle   1  Pass 0  IDiag  1:
 FoFCou: FMM=F IPFlag=           0 FMFlag=      100000 FMFlg1=           0
         NFxFlg=           0 DoJE=F BraDBF=F KetDBF=F FulRan=T
         Omega=  0.000000  0.000000  1.000000  0.000000  0.000000 ICntrl=       0 IOpCl=  0
         NMat0=    1 NMatS0=    1 NMatT0=    0 NMatD0=    1 NMtDS0=    0 NMtDT0=    0
         I1Cent=           0 NGrid=           0.
 Symmetry not used in FoFCou.
 E= -1650.50168571621    
 DIIS: error= 2.25D-02 at cycle   1 NSaved=   1.
 NSaved= 1 IEnMin= 1 EnMin= -1650.50168571621     IErMin= 1 ErrMin= 2.25D-02
 ErrMax= 2.25D-02 EMaxC= 1.00D-01 BMatC= 5.80D-01 BMatP= 5.80D-01
 IDIUse=3 WtCom= 7.75D-01 WtEn= 2.25D-01
 Coeff-Com:  0.100D+01
 Coeff-En:   0.100D+01
 Coeff:      0.100D+01
 Gap=     0.305 Goal=   None    Shift=    0.000
 GapD=    0.305 DampG=1.000 DampE=0.500 DampFc=0.5000 IDamp=-1.
 Damping current iteration by 5.00D-01
 RMSDP=4.27D-03 MaxDP=2.03D-01              OVMax= 3.05D-01

 Cycle   2  Pass 0  IDiag  1:
 RMSU=  1.49D-03    CP:  9.81D-01
 E= -1650.64896622745     Delta-E=       -0.147280511245 Rises=F Damp=T
 DIIS: error= 9.10D-03 at cycle   2 NSaved=   2.
 NSaved= 2 IEnMin= 2 EnMin= -1650.64896622745     IErMin= 2 ErrMin= 9.10D-03
 ErrMax= 9.10D-03 EMaxC= 1.00D-01 BMatC= 1.19D-01 BMatP= 5.80D-01
 IDIUse=3 WtCom= 9.09D-01 WtEn= 9.10D-02
 Coeff-Com:  0.253D+00 0.747D+00
 Coeff-En:   0.380D+00 0.620D+00
 Coeff:      0.265D+00 0.735D+00
 Gap=     0.234 Goal=   None    Shift=    0.000
 RMSDP=1.47D-03 MaxDP=6.37D-02 DE=-1.47D-01 OVMax= 3.15D-01

 Cycle   3  Pass 0  IDiag  1:
 RMSU=  9.64D-04    CP:  9.67D-01  7.61D-01
 E= -1651.06338184007     Delta-E=       -0.414415612615 Rises=F Damp=F
 DIIS: error= 8.62D-03 at cycle   3 NSaved=   3.
 NSaved= 3 IEnMin= 3 EnMin= -1651.06338184007     IErMin= 3 ErrMin= 8.62D-03
 ErrMax= 8.62D-03 EMaxC= 1.00D-01 BMatC= 8.49D-02 BMatP= 1.19D-01
 IDIUse=3 WtCom= 9.14D-01 WtEn= 8.62D-02
 Coeff-Com:  0.835D-01 0.449D+00 0.467D+00
 Coeff-En:   0.000D+00 0.000D+00 0.100D+01
 Coeff:      0.763D-01 0.410D+00 0.513D+00
 Gap=     0.181 Goal=   None    Shift=    0.000
 RMSDP=7.49D-04 MaxDP=5.14D-02 DE=-4.14D-01 OVMax= 7.54D-02

 Cycle   4  Pass 0  IDiag  1:
 RMSU=  4.04D-04    CP:  9.71D-01  8.26D-01  6.61D-01
 E= -1651.12575289124     Delta-E=       -0.062371051176 Rises=F Damp=F
 DIIS: error= 4.21D-03 at cycle   4 NSaved=   4.
 NSaved= 4 IEnMin= 4 EnMin= -1651.12575289124     IErMin= 4 ErrMin= 4.21D-03
 ErrMax= 4.21D-03 EMaxC= 1.00D-01 BMatC= 1.84D-02 BMatP= 8.49D-02
 IDIUse=3 WtCom= 9.58D-01 WtEn= 4.21D-02
 Coeff-Com:  0.207D-01 0.136D+00 0.329D+00 0.514D+00
 Coeff-En:   0.000D+00 0.000D+00 0.205D+00 0.795D+00
 Coeff:      0.198D-01 0.131D+00 0.324D+00 0.525D+00
 Gap=     0.181 Goal=   None    Shift=    0.000
 RMSDP=3.38D-04 MaxDP=2.07D-02 DE=-6.24D-02 OVMax= 3.68D-02

 Cycle   5  Pass 0  IDiag  1:
 RMSU=  1.48D-04    CP:  9.70D-01  8.09D-01  7.22D-01  5.64D-01
 E= -1651.14068783281     Delta-E=       -0.014934941563 Rises=F Damp=F
 DIIS: error= 2.21D-03 at cycle   5 NSaved=   5.
 NSaved= 5 IEnMin= 5 EnMin= -1651.14068783281     IErMin= 5 ErrMin= 2.21D-03
 ErrMax= 2.21D-03 EMaxC= 1.00D-01 BMatC= 2.18D-03 BMatP= 1.84D-02
 IDIUse=3 WtCom= 9.78D-01 WtEn= 2.21D-02
 Coeff-Com:  0.380D-02 0.256D-01 0.144D+00 0.341D+00 0.486D+00
 Coeff-En:   0.000D+00 0.000D+00 0.000D+00 0.108D+00 0.892D+00
 Coeff:      0.372D-02 0.250D-01 0.141D+00 0.336D+00 0.495D+00
 Gap=     0.176 Goal=   None    Shift=    0.000
 RMSDP=1.23D-04 MaxDP=7.22D-03 DE=-1.49D-02 OVMax= 1.66D-02

 Cycle   6  Pass 0  IDiag  1:
 RMSU=  3.99D-05    CP:  9.70D-01  8.07D-01  7.35D-01  6.55D-01  5.51D-01
 E= -1651.14293994012     Delta-E=       -0.002252107313 Rises=F Damp=F
 DIIS: error= 6.48D-04 at cycle   6 NSaved=   6.
 NSaved= 6 IEnMin= 6 EnMin= -1651.14293994012     IErMin= 6 ErrMin= 6.48D-04
 ErrMax= 6.48D-04 EMaxC= 1.00D-01 BMatC= 1.73D-04 BMatP= 2.18D-03
 IDIUse=3 WtCom= 9.94D-01 WtEn= 6.48D-03
 Coeff-Com:  0.245D-03-0.309D-02 0.419D-01 0.132D+00 0.284D+00 0.546D+00
 Coeff-En:   0.000D+00 0.000D+00 0.000D+00 0.000D+00 0.149D-01 0.985D+00
 Coeff:      0.243D-03-0.307D-02 0.416D-01 0.131D+00 0.282D+00 0.548D+00
 Gap=     0.176 Goal=   None    Shift=    0.000
 RMSDP=2.95D-05 MaxDP=2.64D-03 DE=-2.25D-03 OVMax= 4.26D-03

 Cycle   7  Pass 0  IDiag  1:
 RMSU=  1.38D-05    CP:  9.69D-01  8.07D-01  7.37D-01  6.49D-01  6.00D-01
                    CP:  6.59D-01
 E= -1651.14310771883     Delta-E=       -0.000167778708 Rises=F Damp=F
 DIIS: error= 2.06D-04 at cycle   7 NSaved=   7.
 NSaved= 7 IEnMin= 7 EnMin= -1651.14310771883     IErMin= 7 ErrMin= 2.06D-04
 ErrMax= 2.06D-04 EMaxC= 1.00D-01 BMatC= 1.69D-05 BMatP= 1.73D-04
 IDIUse=3 WtCom= 9.98D-01 WtEn= 2.06D-03
 Coeff-Com:  0.306D-04-0.402D-02 0.104D-01 0.409D-01 0.109D+00 0.309D+00
 Coeff-Com:  0.535D+00
 Coeff-En:   0.000D+00 0.000D+00 0.000D+00 0.000D+00 0.000D+00 0.261D-01
 Coeff-En:   0.974D+00
 Coeff:      0.306D-04-0.401D-02 0.104D-01 0.408D-01 0.109D+00 0.308D+00
 Coeff:      0.535D+00
 Gap=     0.176 Goal=   None    Shift=    0.000
 RMSDP=8.71D-06 MaxDP=9.16D-04 DE=-1.68D-04 OVMax= 1.33D-03

 Initial convergence to 1.0D-05 achieved.  Increase integral accuracy.
 Cycle   8  Pass 1  IDiag  1:
 E= -1651.14320169783     Delta-E=       -0.000093978997 Rises=F Damp=F
 DIIS: error= 1.98D-04 at cycle   1 NSaved=   1.
 NSaved= 1 IEnMin= 1 EnMin= -1651.14320169783     IErMin= 1 ErrMin= 1.98D-04
 ErrMax= 1.98D-04 EMaxC= 1.00D-01 BMatC= 9.97D-06 BMatP= 9.97D-06
 IDIUse=3 WtCom= 9.98D-01 WtEn= 1.98D-03
 Coeff-Com:  0.100D+01
 Coeff-En:   0.100D+01
 Coeff:      0.100D+01
 Gap=     0.176 Goal=   None    Shift=    0.000
 RMSDP=8.71D-06 MaxDP=9.16D-04 DE=-9.40D-05 OVMax= 9.94D-04

 Cycle   9  Pass 1  IDiag  1:
 RMSU=  8.88D-05    CP:  1.00D+00
 E= -1651.14320813315     Delta-E=       -0.000006435326 Rises=F Damp=F
 DIIS: error= 1.03D-04 at cycle   2 NSaved=   2.
 NSaved= 2 IEnMin= 2 EnMin= -1651.14320813315     IErMin= 2 ErrMin= 1.03D-04
 ErrMax= 1.03D-04 EMaxC= 1.00D-01 BMatC= 3.49D-06 BMatP= 9.97D-06
 IDIUse=3 WtCom= 9.99D-01 WtEn= 1.03D-03
 Coeff-Com:  0.305D+00 0.695D+00
 Coeff-En:   0.000D+00 0.100D+01
 Coeff:      0.305D+00 0.695D+00
 Gap=     0.176 Goal=   None    Shift=    0.000
 RMSDP=7.80D-06 MaxDP=5.38D-04 DE=-6.44D-06 OVMax= 1.33D-03

 Cycle  10  Pass 1  IDiag  1:
 RMSU=  5.48D-06    CP:  1.00D+00  1.01D+00
 E= -1651.14320633861     Delta-E=        0.000001794546 Rises=F Damp=F
 DIIS: error= 1.28D-04 at cycle   3 NSaved=   3.
 NSaved= 3 IEnMin= 2 EnMin= -1651.14320813315     IErMin= 2 ErrMin= 1.03D-04
 ErrMax= 1.28D-04 EMaxC= 1.00D-01 BMatC= 5.18D-06 BMatP= 3.49D-06
 IDIUse=3 WtCom= 4.69D-01 WtEn= 5.31D-01
 Coeff-Com:  0.216D-02 0.549D+00 0.449D+00
 Coeff-En:   0.000D+00 0.574D+00 0.426D+00
 Coeff:      0.101D-02 0.562D+00 0.437D+00
 Gap=     0.176 Goal=   None    Shift=    0.000
 RMSDP=4.37D-06 MaxDP=2.96D-04 DE= 1.79D-06 OVMax= 6.88D-04

 Cycle  11  Pass 1  IDiag  1:
 RMSU=  7.22D-07    CP:  1.00D+00  1.01D+00  4.59D-01
 E= -1651.14321165832     Delta-E=       -0.000005319717 Rises=F Damp=F
 DIIS: error= 1.18D-05 at cycle   4 NSaved=   4.
 NSaved= 4 IEnMin= 4 EnMin= -1651.14321165832     IErMin= 4 ErrMin= 1.18D-05
 ErrMax= 1.18D-05 EMaxC= 1.00D-01 BMatC= 9.93D-08 BMatP= 3.49D-06
 IDIUse=1 WtCom= 1.00D+00 WtEn= 0.00D+00
 Coeff-Com: -0.362D-02 0.354D+00 0.280D+00 0.370D+00
 Coeff:     -0.362D-02 0.354D+00 0.280D+00 0.370D+00
 Gap=     0.176 Goal=   None    Shift=    0.000
 RMSDP=6.37D-07 MaxDP=5.09D-05 DE=-5.32D-06 OVMax= 6.11D-05

 Cycle  12  Pass 1  IDiag  1:
 RMSU=  1.98D-07    CP:  1.00D+00  1.01D+00  4.53D-01  4.42D-01
 E= -1651.14321174875     Delta-E=       -0.000000090431 Rises=F Damp=F
 DIIS: error= 1.82D-06 at cycle   5 NSaved=   5.
 NSaved= 5 IEnMin= 5 EnMin= -1651.14321174875     IErMin= 5 ErrMin= 1.82D-06
 ErrMax= 1.82D-06 EMaxC= 1.00D-01 BMatC= 3.03D-09 BMatP= 9.93D-08
 IDIUse=1 WtCom= 1.00D+00 WtEn= 0.00D+00
 Coeff-Com: -0.233D-02 0.192D+00 0.151D+00 0.228D+00 0.431D+00
 Coeff:     -0.233D-02 0.192D+00 0.151D+00 0.228D+00 0.431D+00
 Gap=     0.176 Goal=   None    Shift=    0.000
 RMSDP=1.24D-07 MaxDP=6.92D-06 DE=-9.04D-08 OVMax= 1.47D-05

 Cycle  13  Pass 1  IDiag  1:
 RMSU=  6.77D-08    CP:  1.00D+00  1.01D+00  4.53D-01  4.58D-01  7.25D-01
 E= -1651.14321175153     Delta-E=       -0.000000002775 Rises=F Damp=F
 DIIS: error= 4.84D-07 at cycle   6 NSaved=   6.
 NSaved= 6 IEnMin= 6 EnMin= -1651.14321175153     IErMin= 6 ErrMin= 4.84D-07
 ErrMax= 4.84D-07 EMaxC= 1.00D-01 BMatC= 2.10D-10 BMatP= 3.03D-09
 IDIUse=1 WtCom= 1.00D+00 WtEn= 0.00D+00
 Coeff-Com: -0.909D-03 0.686D-01 0.537D-01 0.865D-01 0.245D+00 0.547D+00
 Coeff:     -0.909D-03 0.686D-01 0.537D-01 0.865D-01 0.245D+00 0.547D+00
 Gap=     0.176 Goal=   None    Shift=    0.000
 RMSDP=3.54D-08 MaxDP=1.98D-06 DE=-2.77D-09 OVMax= 4.63D-06

 Cycle  14  Pass 1  IDiag  1:
 RMSU=  1.88D-08    CP:  1.00D+00  1.01D+00  4.52D-01  4.66D-01  7.63D-01
                    CP:  8.04D-01
 E= -1651.14321175176     Delta-E=       -0.000000000229 Rises=F Damp=F
 DIIS: error= 1.35D-07 at cycle   7 NSaved=   7.
 NSaved= 7 IEnMin= 7 EnMin= -1651.14321175176     IErMin= 7 ErrMin= 1.35D-07
 ErrMax= 1.35D-07 EMaxC= 1.00D-01 BMatC= 2.28D-11 BMatP= 2.10D-10
 IDIUse=1 WtCom= 1.00D+00 WtEn= 0.00D+00
 Coeff-Com: -0.179D-03 0.114D-01 0.878D-02 0.161D-01 0.746D-01 0.295D+00
 Coeff-Com:  0.594D+00
 Coeff:     -0.179D-03 0.114D-01 0.878D-02 0.161D-01 0.746D-01 0.295D+00
 Coeff:      0.594D+00
 Gap=     0.176 Goal=   None    Shift=    0.000
 RMSDP=1.25D-08 MaxDP=7.28D-07 DE=-2.29D-10 OVMax= 1.58D-06

 Cycle  15  Pass 1  IDiag  1:
 RMSU=  6.39D-09    CP:  1.00D+00  1.01D+00  4.52D-01  4.64D-01  7.71D-01
                    CP:  8.42D-01  7.22D-01
 E= -1651.14321175179     Delta-E=       -0.000000000031 Rises=F Damp=F
 DIIS: error= 5.53D-08 at cycle   8 NSaved=   8.
 NSaved= 8 IEnMin= 8 EnMin= -1651.14321175179     IErMin= 8 ErrMin= 5.53D-08
 ErrMax= 5.53D-08 EMaxC= 1.00D-01 BMatC= 3.76D-12 BMatP= 2.28D-11
 IDIUse=1 WtCom= 1.00D+00 WtEn= 0.00D+00
 Coeff-Com:  0.395D-04-0.418D-02-0.338D-02-0.436D-02 0.418D-02 0.863D-01
 Coeff-Com:  0.344D+00 0.578D+00
 Coeff:      0.395D-04-0.418D-02-0.338D-02-0.436D-02 0.418D-02 0.863D-01
 Coeff:      0.344D+00 0.578D+00
 Gap=     0.176 Goal=   None    Shift=    0.000
 RMSDP=4.87D-09 MaxDP=2.61D-07 DE=-3.09D-11 OVMax= 6.83D-07

 SCF Done:  E(RB3LYP) =  -1651.14321175     A.U. after   15 cycles
             Convg  =    0.4868D-08             -V/T =  2.0056
 KE= 1.641948870154D+03 PE=-9.400400228175D+03 EE= 3.336436870194D+03
 Leave Link  502 at Sat Sep 10 09:48:51 2022, MaxMem=  209715200 cpu:    5016.6
 (Enter /opt/gaussian/l601.exe)
 Copying SCF densities to generalized density rwf, IOpCl= 0 IROHF=0.

 **********************************************************************

            Population analysis using the SCF density.

 **********************************************************************

 Orbital symmetries:
       Occupied  (A) (A) (A) (A) (A) (A) (A) (A) (A) (A) (A) (A)
                 (A) (A) (A) (A) (A) (A) (A) (A) (A) (A) (A) (A)
                 (A) (A) (A) (A) (A) (A) (A) (A) (A) (A) (A) (A)
                 (A) (A) (A) (A) (A) (A) (A) (A) (A) (A) (A) (A)
                 (A) (A) (A) (A) (A) (A) (A) (A) (A) (A) (A) (A)
                 (A) (A) (A) (A) (A) (A) (A) (A) (A) (A) (A) (A)
                 (A) (A) (A) (A) (A) (A) (A) (A) (A) (A) (A) (A)
                 (A) (A) (A) (A) (A) (A) (A) (A) (A) (A) (A) (A)
                 (A) (A) (A) (A) (A) (A) (A) (A) (A) (A) (A) (A)
       Virtual   (A) (A) (A) (A) (A) (A) (A) (A) (A) (A) (A) (A)
                 (A) (A) (A) (A) (A) (A) (A) (A) (A) (A) (A) (A)
                 (A) (A) (A) (A) (A) (A) (A) (A) (A) (A) (A) (A)
                 (A) (A) (A) (A) (A) (A) (A) (A) (A) (A) (A) (A)
                 (A) (A) (A) (A) (A) (A) (A) (A) (A) (A) (A) (A)
                 (A) (A) (A) (A) (A) (A) (A) (A) (A) (A) (A) (A)
                 (A) (A) (A) (A) (A) (A) (A) (A) (A) (A) (A) (A)
                 (A) (A) (A) (A) (A) (A) (A) (A) (A) (A) (A) (A)
                 (A) (A) (A) (A) (A) (A) (A) (A) (A) (A) (A) (A)
                 (A) (A) (A) (A) (A) (A) (A) (A) (A) (A) (A) (A)
                 (A) (A) (A) (A) (A) (A) (A) (A) (A) (A) (A) (A)
                 (A) (A) (A) (A) (A) (A) (A) (A) (A) (A) (A) (A)
                 (A) (A) (A) (A) (A) (A) (A) (A) (A) (A) (A) (A)
                 (A) (A) (A) (A) (A) (A) (A) (A) (A) (A) (A) (A)
                 (A) (A) (A) (A) (A) (A) (A) (A) (A) (A) (A) (A)
                 (A) (A) (A) (A) (A) (A) (A) (A) (A) (A) (A) (A)
                 (A) (A) (A) (A) (A) (A) (A) (A) (A) (A) (A) (A)
                 (A) (A) (A) (A) (A) (A) (A) (A) (A) (A) (A) (A)
                 (A) (A) (A) (A) (A) (A) (A) (A) (A) (A) (A) (A)
                 (A) (A) (A) (A) (A) (A) (A) (A) (A) (A) (A) (A)
                 (A) (A) (A) (A) (A) (A) (A) (A) (A) (A) (A) (A)
                 (A) (A) (A) (A) (A) (A) (A) (A) (A) (A) (A) (A)
                 (A) (A) (A) (A) (A) (A) (A) (A) (A) (A) (A) (A)
                 (A) (A) (A) (A) (A) (A) (A) (A) (A) (A) (A) (A)
                 (A) (A) (A) (A) (A) (A) (A) (A) (A) (A) (A) (A)
                 (A) (A) (A) (A) (A) (A) (A) (A) (A) (A) (A) (A)
                 (A) (A) (A) (A) (A) (A) (A) (A) (A) (A) (A) (A)
                 (A) (A) (A) (A) (A) (A) (A) (A) (A) (A) (A) (A)
                 (A) (A) (A) (A) (A) (A) (A) (A) (A) (A) (A) (A)
                 (A) (A) (A) (A) (A) (A) (A) (A) (A) (A) (A) (A)
                 (A) (A) (A) (A) (A) (A) (A) (A) (A) (A) (A) (A)
                 (A) (A) (A) (A) (A) (A) (A) (A) (A) (A) (A) (A)
                 (A) (A) (A) (A) (A) (A) (A) (A) (A) (A) (A) (A)
                 (A) (A) (A) (A) (A) (A) (A) (A) (A) (A)
 The electronic state is 1-A.
 Alpha  occ. eigenvalues --  -88.92432 -19.12600 -14.41056 -14.40920 -14.38747
 Alpha  occ. eigenvalues --  -14.38712 -14.34877 -14.34530 -10.30724 -10.25858
 Alpha  occ. eigenvalues --  -10.25569 -10.24004 -10.23288 -10.23012 -10.23005
 Alpha  occ. eigenvalues --  -10.22916 -10.22114 -10.21235 -10.20848 -10.20717
 Alpha  occ. eigenvalues --  -10.20705 -10.20152 -10.20071 -10.19866 -10.19803
 Alpha  occ. eigenvalues --  -10.19641 -10.19539 -10.19488 -10.19479 -10.19235
 Alpha  occ. eigenvalues --   -7.98636  -5.94960  -5.94580  -5.94271  -1.09184
 Alpha  occ. eigenvalues --   -1.05809  -1.05163  -0.96569  -0.92242  -0.89844
 Alpha  occ. eigenvalues --   -0.86521  -0.86174  -0.82350  -0.80616  -0.78486
 Alpha  occ. eigenvalues --   -0.77723  -0.76790  -0.75596  -0.74983  -0.74557
 Alpha  occ. eigenvalues --   -0.73325  -0.70276  -0.65770  -0.64644  -0.62599
 Alpha  occ. eigenvalues --   -0.62030  -0.60986  -0.60039  -0.58750  -0.58209
 Alpha  occ. eigenvalues --   -0.56817  -0.56021  -0.54998  -0.53771  -0.52605
 Alpha  occ. eigenvalues --   -0.52239  -0.51676  -0.50761  -0.47901  -0.47688
 Alpha  occ. eigenvalues --   -0.46507  -0.46393  -0.45862  -0.45241  -0.44757
 Alpha  occ. eigenvalues --   -0.44448  -0.44251  -0.43907  -0.43143  -0.42892
 Alpha  occ. eigenvalues --   -0.42440  -0.42205  -0.41067  -0.40528  -0.40257
 Alpha  occ. eigenvalues --   -0.39337  -0.38794  -0.37657  -0.37596  -0.37316
 Alpha  occ. eigenvalues --   -0.36453  -0.36176  -0.35381  -0.35195  -0.32819
 Alpha  occ. eigenvalues --   -0.31242  -0.30896  -0.29371  -0.27567  -0.27034
 Alpha  occ. eigenvalues --   -0.26677  -0.26390  -0.26145  -0.25901  -0.25516
 Alpha  occ. eigenvalues --   -0.24699  -0.23231  -0.21530
 Alpha virt. eigenvalues --   -0.03966  -0.03465  -0.03373  -0.01651   0.00621
 Alpha virt. eigenvalues --    0.01050   0.01654   0.01780   0.02388   0.03794
 Alpha virt. eigenvalues --    0.04835   0.04933   0.06186   0.06598   0.06868
 Alpha virt. eigenvalues --    0.07431   0.07665   0.08424   0.08867   0.09072
 Alpha virt. eigenvalues --    0.10353   0.10844   0.11177   0.11326   0.12820
 Alpha virt. eigenvalues --    0.13537   0.13723   0.14642   0.14968   0.15716
 Alpha virt. eigenvalues --    0.16296   0.16886   0.17749   0.18033   0.19706
 Alpha virt. eigenvalues --    0.20384   0.20637   0.20977   0.21821   0.24361
 Alpha virt. eigenvalues --    0.24598   0.25173   0.25596   0.26011   0.26655
 Alpha virt. eigenvalues --    0.27356   0.28604   0.28816   0.30144   0.30368
 Alpha virt. eigenvalues --    0.30957   0.31563   0.32405   0.33368   0.34926
 Alpha virt. eigenvalues --    0.35757   0.36500   0.37025   0.38383   0.40039
 Alpha virt. eigenvalues --    0.40515   0.41166   0.41754   0.42664   0.43529
 Alpha virt. eigenvalues --    0.43922   0.44340   0.44697   0.45285   0.45552
 Alpha virt. eigenvalues --    0.45862   0.46165   0.46554   0.46859   0.47014
 Alpha virt. eigenvalues --    0.47213   0.47676   0.47994   0.48452   0.48802
 Alpha virt. eigenvalues --    0.48934   0.49529   0.49794   0.50225   0.50826
 Alpha virt. eigenvalues --    0.51187   0.51207   0.51855   0.52149   0.52536
 Alpha virt. eigenvalues --    0.52697   0.53262   0.53560   0.53780   0.54654
 Alpha virt. eigenvalues --    0.54820   0.55008   0.55294   0.55479   0.56549
 Alpha virt. eigenvalues --    0.57095   0.57699   0.58222   0.58679   0.59382
 Alpha virt. eigenvalues --    0.59424   0.59918   0.60192   0.60520   0.61305
 Alpha virt. eigenvalues --    0.61714   0.62031   0.63042   0.63515   0.64393
 Alpha virt. eigenvalues --    0.64528   0.64871   0.65160   0.65378   0.65869
 Alpha virt. eigenvalues --    0.66464   0.66646   0.67267   0.67935   0.68245
 Alpha virt. eigenvalues --    0.68525   0.69525   0.70275   0.70791   0.71370
 Alpha virt. eigenvalues --    0.71717   0.72572   0.72734   0.73534   0.74034
 Alpha virt. eigenvalues --    0.74630   0.75146   0.75263   0.76245   0.77135
 Alpha virt. eigenvalues --    0.77856   0.78308   0.79419   0.80227   0.81180
 Alpha virt. eigenvalues --    0.81820   0.82370   0.83398   0.83799   0.84705
 Alpha virt. eigenvalues --    0.85651   0.85893   0.87010   0.87683   0.88068
 Alpha virt. eigenvalues --    0.88841   0.89279   0.89568   0.90014   0.91219
 Alpha virt. eigenvalues --    0.91656   0.92256   0.92987   0.93407   0.93676
 Alpha virt. eigenvalues --    0.94081   0.94840   0.94956   0.95941   0.96958
 Alpha virt. eigenvalues --    0.98031   0.98338   0.99073   0.99607   1.00271
 Alpha virt. eigenvalues --    1.00590   1.01044   1.01326   1.01535   1.02864
 Alpha virt. eigenvalues --    1.03028   1.03874   1.04339   1.04888   1.05119
 Alpha virt. eigenvalues --    1.05428   1.05886   1.06792   1.07209   1.07580
 Alpha virt. eigenvalues --    1.08589   1.08915   1.10111   1.10423   1.10928
 Alpha virt. eigenvalues --    1.12162   1.12608   1.14029   1.14373   1.17048
 Alpha virt. eigenvalues --    1.17558   1.18348   1.19104   1.20291   1.22956
 Alpha virt. eigenvalues --    1.23612   1.23868   1.23895   1.24876   1.26106
 Alpha virt. eigenvalues --    1.26855   1.28332   1.28764   1.29646   1.30860
 Alpha virt. eigenvalues --    1.31174   1.31821   1.33568   1.34039   1.34314
 Alpha virt. eigenvalues --    1.35425   1.36228   1.37207   1.38356   1.39283
 Alpha virt. eigenvalues --    1.40695   1.42468   1.43572   1.44925   1.46078
 Alpha virt. eigenvalues --    1.47018   1.47351   1.47947   1.49064   1.49149
 Alpha virt. eigenvalues --    1.49939   1.50679   1.50836   1.51417   1.52059
 Alpha virt. eigenvalues --    1.52804   1.54110   1.54634   1.55230   1.55765
 Alpha virt. eigenvalues --    1.56384   1.56937   1.57264   1.58156   1.58893
 Alpha virt. eigenvalues --    1.59065   1.59684   1.59814   1.60819   1.61124
 Alpha virt. eigenvalues --    1.61722   1.62305   1.62858   1.63794   1.64539
 Alpha virt. eigenvalues --    1.64810   1.65079   1.65471   1.66187   1.67227
 Alpha virt. eigenvalues --    1.67674   1.67869   1.68314   1.69130   1.69287
 Alpha virt. eigenvalues --    1.69952   1.70977   1.71371   1.71806   1.73085
 Alpha virt. eigenvalues --    1.73234   1.73865   1.74007   1.74755   1.75227
 Alpha virt. eigenvalues --    1.75309   1.77214   1.77572   1.77858   1.78869
 Alpha virt. eigenvalues --    1.79106   1.79377   1.79622   1.80588   1.81125
 Alpha virt. eigenvalues --    1.81785   1.82561   1.83203   1.83623   1.84605
 Alpha virt. eigenvalues --    1.84673   1.85313   1.85953   1.86354   1.86894
 Alpha virt. eigenvalues --    1.87687   1.88236   1.89595   1.89990   1.90774
 Alpha virt. eigenvalues --    1.91623   1.92199   1.92908   1.93508   1.94393
 Alpha virt. eigenvalues --    1.95353   1.96243   1.97054   1.97571   1.98021
 Alpha virt. eigenvalues --    1.98547   1.99530   1.99696   2.00375   2.01629
 Alpha virt. eigenvalues --    2.02718   2.03495   2.03718   2.04321   2.04908
 Alpha virt. eigenvalues --    2.06534   2.08068   2.08097   2.08741   2.10219
 Alpha virt. eigenvalues --    2.11438   2.12507   2.13984   2.14728   2.16020
 Alpha virt. eigenvalues --    2.17515   2.18449   2.18879   2.22011   2.22822
 Alpha virt. eigenvalues --    2.24113   2.25232   2.26605   2.28011   2.28651
 Alpha virt. eigenvalues --    2.29490   2.31794   2.33026   2.33605   2.33856
 Alpha virt. eigenvalues --    2.35707   2.36448   2.38080   2.39574   2.40093
 Alpha virt. eigenvalues --    2.41245   2.41682   2.42289   2.43735   2.44001
 Alpha virt. eigenvalues --    2.44413   2.45382   2.45994   2.46951   2.48269
 Alpha virt. eigenvalues --    2.49876   2.49990   2.52016   2.53072   2.55399
 Alpha virt. eigenvalues --    2.57504   2.58513   2.59435   2.61324   2.62724
 Alpha virt. eigenvalues --    2.63317   2.64443   2.66576   2.68615   2.70164
 Alpha virt. eigenvalues --    2.70426   2.70980   2.71382   2.73869   2.77506
 Alpha virt. eigenvalues --    2.78962   2.79887   2.82024   2.83751   2.86694
 Alpha virt. eigenvalues --    2.87249   2.93579   2.94438   2.96190   2.97848
 Alpha virt. eigenvalues --    2.99298   3.03626   3.07729   3.07854   3.10131
 Alpha virt. eigenvalues --    3.14872   3.30142   3.40810   3.48999   3.52626
 Alpha virt. eigenvalues --    3.53941
          Condensed to atoms (all electrons):
              1          2          3          4          5          6
     1  O    7.614064   0.760171  -0.089676  -0.003358  -0.000014   0.000012
     2  C    0.760171   4.635238   0.286048  -0.041019  -0.000471  -0.000323
     3  C   -0.089676   0.286048   4.799070   0.366578  -0.049332   0.006653
     4  N   -0.003358  -0.041019   0.366578   6.505727   0.292991  -0.113383
     5  N   -0.000014  -0.000471  -0.049332   0.292991   6.547859   0.459592
     6  N    0.000012  -0.000323   0.006653  -0.113383   0.459592   6.430950
     7  C   -0.000931  -0.000922   0.010505  -0.004971  -0.126173   0.508841
     8  C   -0.000021   0.000020  -0.000447   0.007304   0.000535  -0.050861
     9  C    0.000015  -0.000002   0.000039   0.000507   0.000119   0.004324
    10  C    0.000021   0.000067  -0.000350   0.002489  -0.000122  -0.000691
    11  C    0.004511   0.002033  -0.005752  -0.059440   0.003345   0.011637
    12  C    0.009762   0.001699  -0.075652   0.322250  -0.091181  -0.072637
    13  N   -0.068143   0.372816  -0.073897   0.001540  -0.000023   0.000000
    14  C    0.002667  -0.053277   0.007008   0.000113   0.000029   0.000000
    15  C   -0.000103  -0.000524  -0.008195   0.000069   0.000000   0.000000
    16  C   -0.000003  -0.000080  -0.000483  -0.000001   0.000000   0.000000
    17  C    0.000000  -0.000002   0.000064   0.000000   0.000000   0.000000
    18  S    0.000000  -0.000101   0.000098   0.000000   0.000000   0.000000
    19  C   -0.000232   0.000409  -0.003330  -0.000005  -0.000001   0.000000
    20  C   -0.008594  -0.053950   0.006780  -0.000008   0.000001   0.000000
    21  C   -0.000461   0.003282  -0.000659   0.000002   0.000000   0.000000
    22  C    0.000032   0.000315   0.000005   0.000000   0.000000   0.000000
    23  C   -0.000019  -0.000044   0.000000   0.000000   0.000000   0.000000
    24  C    0.000045   0.000225   0.000002   0.000000   0.000000   0.000000
    25  C    0.001952  -0.012782   0.000538  -0.000021  -0.000001   0.000000
    26  C    0.000000   0.000001   0.000000   0.000000   0.000000   0.000000
    27  C    0.000000   0.000000   0.000000   0.000000   0.000000   0.000000
    28  N    0.000000   0.000000   0.000000   0.000000   0.000000   0.000000
    29  N    0.000000   0.000000   0.000000   0.000000   0.000000   0.000000
    30  C    0.000000   0.000000   0.000000   0.000000   0.000000   0.000000
    31  H    0.001029  -0.006150   0.335092  -0.022737   0.023849   0.000143
    32  H    0.000983  -0.015901   0.352692  -0.021094   0.001835  -0.000340
    33  H    0.000000   0.000000   0.000003  -0.000009  -0.000557  -0.000943
    34  H    0.000000   0.000000  -0.000001   0.000003   0.000008  -0.000096
    35  H   -0.000004   0.000000  -0.000014  -0.000134   0.000005  -0.000008
    36  H    0.002903   0.000300   0.001817  -0.006217  -0.000273  -0.000234
    37  H    0.000287  -0.015253   0.013252   0.000469  -0.000231   0.000002
    38  H   -0.000167   0.005971  -0.000848  -0.000009   0.000000   0.000000
    39  H    0.000000  -0.000021  -0.000026   0.000000   0.000000   0.000000
    40  H    0.000000   0.000000   0.000000   0.000000   0.000000   0.000000
    41  H    0.000189   0.002369  -0.000259   0.000004   0.000000   0.000000
    42  H   -0.000009  -0.001009  -0.000020   0.000000   0.000000   0.000000
    43  H    0.000000   0.000004   0.000000   0.000000   0.000000   0.000000
    44  H   -0.000018  -0.000012   0.000000   0.000000   0.000000   0.000000
    45  H    0.012861   0.000284   0.000180  -0.000005   0.000001   0.000000
    46  H    0.000000   0.000000   0.000000   0.000000   0.000000   0.000000
    47  H    0.000000   0.000000   0.000000   0.000000   0.000000   0.000000
    48  H    0.000000   0.000000   0.000000   0.000000   0.000000   0.000000
              7          8          9         10         11         12
     1  O   -0.000931  -0.000021   0.000015   0.000021   0.004511   0.009762
     2  C   -0.000922   0.000020  -0.000002   0.000067   0.002033   0.001699
     3  C    0.010505  -0.000447   0.000039  -0.000350  -0.005752  -0.075652
     4  N   -0.004971   0.007304   0.000507   0.002489  -0.059440   0.322250
     5  N   -0.126173   0.000535   0.000119  -0.000122   0.003345  -0.091181
     6  N    0.508841  -0.050861   0.004324  -0.000691   0.011637  -0.072637
     7  C    4.981563   0.427484   0.028572  -0.078400  -0.016197   0.281309
     8  C    0.427484   4.779113   0.497599   0.013900  -0.072168   0.013755
     9  C    0.028572   0.497599   4.760202   0.464044   0.007112  -0.089361
    10  C   -0.078400   0.013900   0.464044   4.719029   0.513211   0.027173
    11  C   -0.016197  -0.072168   0.007112   0.513211   4.854618   0.393242
    12  C    0.281309   0.013755  -0.089361   0.027173   0.393242   5.060384
    13  N   -0.000009   0.000000   0.000000  -0.000001  -0.000026   0.000434
    14  C    0.000001   0.000000   0.000000   0.000000  -0.000001   0.000012
    15  C    0.000000   0.000000   0.000000   0.000000  -0.000005  -0.000023
    16  C    0.000000   0.000000   0.000000   0.000000   0.000000   0.000000
    17  C    0.000000   0.000000   0.000000   0.000000   0.000001   0.000000
    18  S    0.000000   0.000000   0.000000   0.000000  -0.000017  -0.000001
    19  C   -0.000001   0.000000   0.000000   0.000001  -0.000125  -0.000041
    20  C    0.000000   0.000000   0.000000   0.000000  -0.000001   0.000002
    21  C    0.000000   0.000000   0.000000   0.000000   0.000000   0.000001
    22  C    0.000000   0.000000   0.000000   0.000000   0.000000   0.000000
    23  C    0.000000   0.000000   0.000000   0.000000   0.000000   0.000000
    24  C    0.000000   0.000000   0.000000   0.000000   0.000000   0.000000
    25  C    0.000000   0.000000   0.000000   0.000000   0.000001  -0.000004
    26  C    0.000000   0.000000   0.000000   0.000000   0.000000   0.000000
    27  C    0.000000   0.000000   0.000000   0.000000   0.000000   0.000000
    28  N    0.000000   0.000000   0.000000   0.000000   0.000000   0.000000
    29  N    0.000000   0.000000   0.000000   0.000000   0.000000   0.000000
    30  C    0.000000   0.000000   0.000000   0.000000   0.000000   0.000000
    31  H   -0.000677  -0.000022   0.000003   0.000016   0.000332   0.010719
    32  H    0.000854   0.000025  -0.000018   0.000023   0.001725  -0.001079
    33  H   -0.041204   0.376953  -0.058708   0.010141  -0.001368   0.015973
    34  H    0.010793  -0.048382   0.389371  -0.051183   0.011380  -0.000932
    35  H   -0.000741   0.010988  -0.050251   0.386142  -0.046963   0.010764
    36  H    0.009581  -0.000017   0.008710  -0.044605   0.365817  -0.029439
    37  H   -0.000002   0.000000   0.000000   0.000000  -0.000001  -0.000014
    38  H    0.000000   0.000000   0.000000   0.000000   0.000000   0.000001
    39  H    0.000000   0.000000   0.000000   0.000000   0.000000   0.000000
    40  H    0.000000   0.000000   0.000000   0.000000   0.000000   0.000000
    41  H    0.000000   0.000000   0.000000   0.000000  -0.000026  -0.000006
    42  H    0.000000   0.000000   0.000000   0.000000   0.000000   0.000000
    43  H    0.000000   0.000000   0.000000   0.000000   0.000000   0.000000
    44  H    0.000000   0.000000   0.000000   0.000000   0.000000   0.000000
    45  H   -0.000001   0.000000   0.000000   0.000000   0.000000   0.000020
    46  H    0.000000   0.000000   0.000000   0.000000   0.000000   0.000000
    47  H    0.000000   0.000000   0.000000   0.000000   0.000000   0.000000
    48  H    0.000000   0.000000   0.000000   0.000000   0.000000   0.000000
             13         14         15         16         17         18
     1  O   -0.068143   0.002667  -0.000103  -0.000003   0.000000   0.000000
     2  C    0.372816  -0.053277  -0.000524  -0.000080  -0.000002  -0.000101
     3  C   -0.073897   0.007008  -0.008195  -0.000483   0.000064   0.000098
     4  N    0.001540   0.000113   0.000069  -0.000001   0.000000   0.000000
     5  N   -0.000023   0.000029   0.000000   0.000000   0.000000   0.000000
     6  N    0.000000   0.000000   0.000000   0.000000   0.000000   0.000000
     7  C   -0.000009   0.000001   0.000000   0.000000   0.000000   0.000000
     8  C    0.000000   0.000000   0.000000   0.000000   0.000000   0.000000
     9  C    0.000000   0.000000   0.000000   0.000000   0.000000   0.000000
    10  C   -0.000001   0.000000   0.000000   0.000000   0.000000   0.000000
    11  C   -0.000026  -0.000001  -0.000005   0.000000   0.000001  -0.000017
    12  C    0.000434   0.000012  -0.000023   0.000000   0.000000  -0.000001
    13  N    6.542780   0.363649  -0.044532   0.003914  -0.000188   0.000111
    14  C    0.363649   4.671546   0.380268  -0.069378   0.007685   0.008731
    15  C   -0.044532   0.380268   4.891224   0.452459  -0.007858  -0.083368
    16  C    0.003914  -0.069378   0.452459   4.757280   0.548758  -0.091546
    17  C   -0.000188   0.007685  -0.007858   0.548758   4.955311   0.366285
    18  S    0.000111   0.008731  -0.083368  -0.091546   0.366285  15.358543
    19  C    0.001994  -0.091796   0.551112  -0.039105  -0.103050   0.357747
    20  C    0.325870  -0.058786  -0.004726   0.000051   0.000001  -0.000036
    21  C   -0.055176  -0.001183  -0.004400  -0.000135   0.000021   0.000035
    22  C    0.003867   0.000011   0.000228   0.000002   0.000000  -0.000003
    23  C    0.000389  -0.000027  -0.000003   0.000000   0.000000   0.000000
    24  C    0.003733   0.000125   0.000007   0.000000   0.000000   0.000000
    25  C   -0.048252   0.002555  -0.000555   0.000013   0.000000   0.000000
    26  C    0.000000  -0.000001   0.000000   0.000000   0.000000   0.000000
    27  C    0.000000   0.000000   0.000000   0.000000   0.000000   0.000000
    28  N    0.000000   0.000000   0.000000   0.000000   0.000000   0.000000
    29  N    0.000000   0.000000   0.000000   0.000000   0.000000   0.000000
    30  C    0.000000   0.000000   0.000000   0.000000   0.000000   0.000000
    31  H   -0.000706  -0.000889  -0.000990  -0.000071  -0.000012   0.000003
    32  H   -0.001352   0.003276   0.004171   0.000518  -0.000215  -0.000377
    33  H    0.000000   0.000000   0.000000   0.000000   0.000000   0.000000
    34  H    0.000000   0.000000   0.000000   0.000000   0.000000   0.000000
    35  H    0.000000   0.000000   0.000000   0.000000   0.000000   0.000000
    36  H   -0.000070  -0.000023   0.000070  -0.000009  -0.000006   0.000114
    37  H   -0.017876   0.353374  -0.025857  -0.006299   0.000153  -0.000132
    38  H   -0.011187   0.351528  -0.020194  -0.000626   0.000073  -0.000034
    39  H    0.000169  -0.008318  -0.049977   0.402332  -0.055964   0.008169
    40  H    0.000002  -0.000201   0.006837  -0.016361   0.387426  -0.043346
    41  H    0.003671  -0.019101  -0.005890   0.011157   0.001935  -0.042602
    42  H   -0.012722   0.009036  -0.003740  -0.000060  -0.000184  -0.000085
    43  H   -0.000147   0.000017   0.000007  -0.000001   0.000000   0.000000
    44  H   -0.000136   0.000005   0.000000   0.000000   0.000000   0.000000
    45  H   -0.011404  -0.000577  -0.000039   0.000000   0.000000   0.000000
    46  H    0.000000   0.000000   0.000000   0.000000   0.000000   0.000000
    47  H    0.000000   0.000000   0.000000   0.000000   0.000000   0.000000
    48  H    0.000000   0.000000   0.000000   0.000000   0.000000   0.000000
             19         20         21         22         23         24
     1  O   -0.000232  -0.008594  -0.000461   0.000032  -0.000019   0.000045
     2  C    0.000409  -0.053950   0.003282   0.000315  -0.000044   0.000225
     3  C   -0.003330   0.006780  -0.000659   0.000005   0.000000   0.000002
     4  N   -0.000005  -0.000008   0.000002   0.000000   0.000000   0.000000
     5  N   -0.000001   0.000001   0.000000   0.000000   0.000000   0.000000
     6  N    0.000000   0.000000   0.000000   0.000000   0.000000   0.000000
     7  C   -0.000001   0.000000   0.000000   0.000000   0.000000   0.000000
     8  C    0.000000   0.000000   0.000000   0.000000   0.000000   0.000000
     9  C    0.000000   0.000000   0.000000   0.000000   0.000000   0.000000
    10  C    0.000001   0.000000   0.000000   0.000000   0.000000   0.000000
    11  C   -0.000125  -0.000001   0.000000   0.000000   0.000000   0.000000
    12  C   -0.000041   0.000002   0.000001   0.000000   0.000000   0.000000
    13  N    0.001994   0.325870  -0.055176   0.003867   0.000389   0.003733
    14  C   -0.091796  -0.058786  -0.001183   0.000011  -0.000027   0.000125
    15  C    0.551112  -0.004726  -0.004400   0.000228  -0.000003   0.000007
    16  C   -0.039105   0.000051  -0.000135   0.000002   0.000000   0.000000
    17  C   -0.103050   0.000001   0.000021   0.000000   0.000000   0.000000
    18  S    0.357747  -0.000036   0.000035  -0.000003   0.000000   0.000000
    19  C    5.069768   0.000300  -0.003995  -0.000096   0.000002  -0.000001
    20  C    0.000300   4.911114   0.438468   0.007860  -0.077259   0.013596
    21  C   -0.003995   0.438468   4.832286   0.493903   0.015437  -0.073157
    22  C   -0.000096   0.007860   0.493903   4.862807   0.470511  -0.026881
    23  C    0.000002  -0.077259   0.015437   0.470511   5.062503   0.456511
    24  C   -0.000001   0.013596  -0.073157  -0.026881   0.456511   4.867682
    25  C    0.000014   0.470014  -0.035579  -0.068625   0.016384   0.489405
    26  C    0.000000   0.000134   0.009524  -0.085614   0.248005  -0.086132
    27  C    0.000000   0.000003   0.000159  -0.020683  -0.101038   0.009853
    28  N    0.000000   0.000000  -0.000004  -0.000018   0.007666  -0.000136
    29  N    0.000000   0.000000   0.000001  -0.000051   0.014743  -0.000468
    30  C    0.000000  -0.000005  -0.000176   0.007387  -0.078075  -0.015391
    31  H    0.000239   0.000039   0.000012   0.000000   0.000000  -0.000003
    32  H    0.002372  -0.000505   0.000064  -0.000001   0.000000   0.000001
    33  H    0.000000   0.000000   0.000000   0.000000   0.000000   0.000000
    34  H    0.000000   0.000000   0.000000   0.000000   0.000000   0.000000
    35  H   -0.000001   0.000000   0.000000   0.000000   0.000000   0.000000
    36  H    0.000830   0.000010   0.000003   0.000000   0.000000   0.000000
    37  H    0.005427   0.007302   0.000048  -0.000040   0.000001  -0.000004
    38  H   -0.002021  -0.011522   0.013254   0.000997  -0.000072  -0.000181
    39  H    0.011643  -0.000016  -0.000002   0.000000   0.000000   0.000000
    40  H    0.003332   0.000000   0.000000   0.000000   0.000000   0.000000
    41  H    0.383304   0.001138   0.001794   0.000253  -0.000007  -0.000028
    42  H    0.005296  -0.043347   0.374000  -0.039423   0.009415  -0.000157
    43  H    0.000001   0.011330  -0.044759   0.378773  -0.041679   0.013210
    44  H    0.000000   0.011187  -0.000630   0.012917  -0.043626   0.384948
    45  H    0.000006  -0.038566   0.010562  -0.000206   0.009483  -0.038992
    46  H    0.000000  -0.000006   0.000300   0.004539  -0.013096  -0.000365
    47  H    0.000000  -0.000011   0.000011  -0.000492  -0.018612   0.004697
    48  H    0.000000   0.000000   0.000000   0.000013  -0.000349   0.000004
             25         26         27         28         29         30
     1  O    0.001952   0.000000   0.000000   0.000000   0.000000   0.000000
     2  C   -0.012782   0.000001   0.000000   0.000000   0.000000   0.000000
     3  C    0.000538   0.000000   0.000000   0.000000   0.000000   0.000000
     4  N   -0.000021   0.000000   0.000000   0.000000   0.000000   0.000000
     5  N   -0.000001   0.000000   0.000000   0.000000   0.000000   0.000000
     6  N    0.000000   0.000000   0.000000   0.000000   0.000000   0.000000
     7  C    0.000000   0.000000   0.000000   0.000000   0.000000   0.000000
     8  C    0.000000   0.000000   0.000000   0.000000   0.000000   0.000000
     9  C    0.000000   0.000000   0.000000   0.000000   0.000000   0.000000
    10  C    0.000000   0.000000   0.000000   0.000000   0.000000   0.000000
    11  C    0.000001   0.000000   0.000000   0.000000   0.000000   0.000000
    12  C   -0.000004   0.000000   0.000000   0.000000   0.000000   0.000000
[...]
    27  C    0.000000   0.000000   0.000000   0.000000   0.000000  -0.000007
    28  N    0.000000   0.000000   0.000000   0.000000   0.000000   0.000000
    29  N    0.000000   0.000000   0.000000   0.000000   0.000000   0.000000
    30  C    0.000000   0.000000   0.000000   0.000000   0.000000   0.000004
    31  H    0.001822   0.000304  -0.000011   0.000000   0.000038  -0.000004
    32  H   -0.005945   0.000677   0.000001   0.000002  -0.000292   0.000018
    33  H    0.000000   0.000000   0.000000   0.000000   0.000000   0.000000
    34  H    0.000000   0.000000   0.000000   0.000000   0.000000   0.000000
    35  H    0.000000   0.000000   0.000000   0.000000   0.000000   0.000000
    36  H   -0.000014   0.000000   0.000000   0.000000   0.000301  -0.000001
    37  H    0.679250  -0.030341   0.002893   0.000004   0.000010   0.000692
    38  H   -0.030341   0.657955   0.001003   0.000004  -0.000027  -0.003154
    39  H    0.002893   0.001003   0.724009  -0.008695  -0.000145  -0.000024
    40  H    0.000004   0.000004  -0.008695   0.651682  -0.000128   0.000001
    41  H    0.000010  -0.000027  -0.000145  -0.000128   0.638057  -0.000092
    42  H    0.000692  -0.003154  -0.000024   0.000001  -0.000092   0.737740
    43  H   -0.000001   0.000017   0.000000   0.000000   0.000002  -0.017750
    44  H    0.000000   0.000003   0.000000   0.000000   0.000000   0.000059
    45  H    0.000016   0.000045   0.000000   0.000000   0.000001  -0.000251
    46  H    0.000000   0.000000   0.000000   0.000000   0.000000   0.000008
    47  H    0.000000   0.000000   0.000000   0.000000   0.000000   0.000000
    48  H    0.000000   0.000000   0.000000   0.000000   0.000000   0.000000
             43         44         45         46         47         48
     1  O    0.000000  -0.000018   0.012861   0.000000   0.000000   0.000000
     2  C    0.000004  -0.000012   0.000284   0.000000   0.000000   0.000000
     3  C    0.000000   0.000000   0.000180   0.000000   0.000000   0.000000
     4  N    0.000000   0.000000  -0.000005   0.000000   0.000000   0.000000
     5  N    0.000000   0.000000   0.000001   0.000000   0.000000   0.000000
     6  N    0.000000   0.000000   0.000000   0.000000   0.000000   0.000000
     7  C    0.000000   0.000000  -0.000001   0.000000   0.000000   0.000000
     8  C    0.000000   0.000000   0.000000   0.000000   0.000000   0.000000
     9  C    0.000000   0.000000   0.000000   0.000000   0.000000   0.000000
    10  C    0.000000   0.000000   0.000000   0.000000   0.000000   0.000000
    11  C    0.000000   0.000000   0.000000   0.000000   0.000000   0.000000
    12  C    0.000000   0.000000   0.000020   0.000000   0.000000   0.000000
    13  N   -0.000147  -0.000136  -0.011404   0.000000   0.000000   0.000000
    14  C    0.000017   0.000005  -0.000577   0.000000   0.000000   0.000000
    15  C    0.000007   0.000000  -0.000039   0.000000   0.000000   0.000000
    16  C   -0.000001   0.000000   0.000000   0.000000   0.000000   0.000000
    17  C    0.000000   0.000000   0.000000   0.000000   0.000000   0.000000
    18  S    0.000000   0.000000   0.000000   0.000000   0.000000   0.000000
    19  C    0.000001   0.000000   0.000006   0.000000   0.000000   0.000000
    20  C    0.011330   0.011187  -0.038566  -0.000006  -0.000011   0.000000
    21  C   -0.044759  -0.000630   0.010562   0.000300   0.000011   0.000000
    22  C    0.378773   0.012917  -0.000206   0.004539  -0.000492   0.000013
    23  C   -0.041679  -0.043626   0.009483  -0.013096  -0.018612  -0.000349
    24  C    0.013210   0.384948  -0.038992  -0.000365   0.004697   0.000004
    25  C   -0.000708  -0.044850   0.379681   0.000007   0.000319   0.000000
    26  C   -0.026823  -0.026340  -0.000331  -0.022356  -0.034849   0.008655
    27  C    0.006350   0.000076   0.000004   0.384360   0.015649  -0.037989
    28  N    0.000024  -0.000025   0.000000  -0.030059   0.003431   0.382972
    29  N   -0.000001   0.000049   0.000000   0.003942  -0.029029  -0.029955
    30  C   -0.000130   0.005214  -0.000005   0.007380   0.388442   0.007081
    31  H    0.000000   0.000000  -0.000070   0.000000   0.000000   0.000000
    32  H    0.000000   0.000000   0.000001   0.000000   0.000000   0.000000
    33  H    0.000000   0.000000   0.000000   0.000000   0.000000   0.000000
    34  H    0.000000   0.000000   0.000000   0.000000   0.000000   0.000000
    35  H    0.000000   0.000000   0.000000   0.000000   0.000000   0.000000
    36  H    0.000000   0.000000   0.000002   0.000000   0.000000   0.000000
    37  H   -0.000001   0.000000   0.000016   0.000000   0.000000   0.000000
    38  H    0.000017   0.000003   0.000045   0.000000   0.000000   0.000000
    39  H    0.000000   0.000000   0.000000   0.000000   0.000000   0.000000
    40  H    0.000000   0.000000   0.000000   0.000000   0.000000   0.000000
    41  H    0.000002   0.000000   0.000001   0.000000   0.000000   0.000000
    42  H   -0.017750   0.000059  -0.000251   0.000008   0.000000   0.000000
    43  H    0.771013  -0.000257   0.000051   0.000097  -0.000021   0.000017
    44  H   -0.000257   0.755224  -0.016811  -0.000014   0.000178   0.000001
    45  H    0.000051  -0.016811   0.709154   0.000000   0.000010   0.000000
    46  H    0.000097  -0.000014   0.000000   0.673802  -0.000188  -0.004756
    47  H   -0.000021   0.000178   0.000010  -0.000188   0.684705  -0.000457
    48  H    0.000017   0.000001   0.000000  -0.004756  -0.000457   0.574028
 Mulliken atomic charges:
              1
     1  O   -0.239751
     2  C    0.130589
     3  C    0.122516
     4  N   -0.227632
     5  N   -0.061792
     6  N   -0.182640
     7  C    0.010729
     8  C    0.044244
     9  C    0.037723
    10  C    0.039094
    11  C    0.033126
    12  C    0.212868
    13  N   -0.279094
    14  C    0.141920
    15  C   -0.025473
    16  C    0.047673
    17  C   -0.100234
    18  S    0.161812
    19  C   -0.149996
    20  C    0.092135
    21  C    0.027151
    22  C   -0.002287
    23  C    0.062857
    24  C   -0.002150
    25  C    0.082337
    26  C   -0.060364
    27  C    0.089081
    28  N    0.002869
    29  N   -0.171290
    30  C    0.090950
    31  H    0.060418
    32  H    0.060385
    33  H   -0.022885
    34  H   -0.027645
    35  H   -0.025850
    36  H   -0.031602
    37  H    0.037015
    38  H    0.047884
    39  H   -0.027018
    40  H    0.019439
    41  H    0.024344
    42  H   -0.023931
    43  H   -0.048638
    44  H   -0.037141
    45  H   -0.015104
    46  H   -0.003594
    47  H   -0.013783
    48  H    0.100736
 Sum of Mulliken atomic charges =   0.00000
 Mulliken charges with hydrogens summed into heavy atoms:
              1
     1  O   -0.239751
     2  C    0.130589
     3  C    0.243319
     4  N   -0.227632
     5  N   -0.061792
     6  N   -0.182640
     7  C    0.010729
     8  C    0.021358
     9  C    0.010078
    10  C    0.013245
    11  C    0.001524
    12  C    0.212868
    13  N   -0.279094
    14  C    0.226819
    15  C   -0.025473
    16  C    0.020655
    17  C   -0.080794
    18  S    0.161812
    19  C   -0.125653
    20  C    0.092135
    21  C    0.003220
    22  C   -0.050924
    23  C    0.062857
    24  C   -0.039291
    25  C    0.067233
    26  C   -0.060364
    27  C    0.085486
    28  N    0.103605
    29  N   -0.171290
    30  C    0.077167
 Sum of Mulliken charges with hydrogens summed into heavy atoms =   0.00000
 Electronic spatial extent (au):  <R**2>=          17482.7925
 Charge=              0.0000 electrons
 Dipole moment (field-independent basis, Debye):
    X=             -3.4513    Y=              6.8335    Z=              0.8192  Tot=              7.6993
 Quadrupole moment (field-independent basis, Debye-Ang):
   XX=           -170.5710   YY=           -175.3447   ZZ=           -179.4211
   XY=             -5.8223   XZ=             14.0833   YZ=             -8.5199
 Traceless Quadrupole moment (field-independent basis, Debye-Ang):
   XX=              4.5413   YY=             -0.2324   ZZ=             -4.3088
   XY=             -5.8223   XZ=             14.0833   YZ=             -8.5199
 Octapole moment (field-independent basis, Debye-Ang**2):
  XXX=           -291.7920  YYY=             72.8292  ZZZ=             18.8955  XYY=             47.7199
  XXY=            127.1335  XXZ=             76.6729  XZZ=              2.4672  YZZ=             21.7043
  YYZ=             -7.7100  XYZ=            -55.9427
 Hexadecapole moment (field-independent basis, Debye-Ang**3):
 XXXX=         -14426.8210 YYYY=          -5326.4587 ZZZZ=          -1511.7801 XXXY=          -1011.7637
 XXXZ=            262.3066 YYYX=             91.3390 YYYZ=            -36.2021 ZZZX=            108.5110
 ZZZY=            -66.4915 XXYY=          -4001.7289 XXZZ=          -3221.6060 YYZZ=          -1220.1351
 XXYZ=           -107.6799 YYXZ=            112.7911 ZZXY=             25.9735
 N-N= 2.770871276075D+03 E-N=-9.400400225192D+03  KE= 1.641948870154D+03
 No NMR shielding tensors so no spin-rotation constants.
 Leave Link  601 at Sat Sep 10 09:48:52 2022, MaxMem=  209715200 cpu:       3.5
 (Enter /opt/gaussian/l602.exe)
 Breneman (CHELPG) radii used.
 Read replacement radii for each type of atom:
 Rad(35) =   1.900000000000D+00
 Atom Element Radius
    1     8    1.70
    2     6    1.50
    3     6    1.50
    4     7    1.70
    5     7    1.70
    6     7    1.70
    7     6    1.50
    8     6    1.50
    9     6    1.50
   10     6    1.50
   11     6    1.50
   12     6    1.50
   13     7    1.70
   14     6    1.50
   15     6    1.50
   16     6    1.50
   17     6    1.50
   18    16    2.00
   19     6    1.50
   20     6    1.50
   21     6    1.50
   22     6    1.50
   23     6    1.50
   24     6    1.50
   25     6    1.50
   26     6    1.50
   27     6    1.50
   28     7    1.70
   29     7    1.70
   30     6    1.50
   31     1    1.45
   32     1    1.45
   33     1    1.45
   34     1    1.45
   35     1    1.45
   36     1    1.45
   37     1    1.45
   38     1    1.45
   39     1    1.45
   40     1    1.45
   41     1    1.45
   42     1    1.45
   43     1    1.45
   44     1    1.45
   45     1    1.45
   46     1    1.45
   47     1    1.45
   48     1    1.45
 Generate Potential Derived Charges using the Breneman model, NDens= 1.
 Grid spacing= 0.300 Box extension= 2.800
 NStep X,Y,Z=   71     52     40   Total possible points=      147680
 Number of Points to Fit=   26934

 **********************************************************************

            Electrostatic Properties Using The SCF Density

 **********************************************************************

       Atomic Center    1 is at   0.851210 -1.449470 -0.140990
       Atomic Center    2 is at   0.949440 -0.373190 -0.701330
       Atomic Center    3 is at   2.326650  0.142260 -1.168350
       Atomic Center    4 is at   3.366880 -0.833340 -0.963620
       Atomic Center    5 is at   3.943530 -1.427110 -2.054070
       Atomic Center    6 is at   4.864110 -2.239950 -1.665330
       Atomic Center    7 is at   4.922060 -2.205430 -0.285250
       Atomic Center    8 is at   5.757490 -2.890900  0.614510
       Atomic Center    9 is at   5.585800 -2.635440  1.967590
       Atomic Center   10 is at   4.602070 -1.722360  2.426710
       Atomic Center   11 is at   3.765040 -1.040490  1.552810
       Atomic Center   12 is at   3.947800 -1.298270  0.184150
       Atomic Center   13 is at  -0.130830  0.461140 -0.960570
       Atomic Center   14 is at   0.062130  1.796350 -1.540130
       Atomic Center   15 is at   0.516320  2.872560 -0.574490
       Atomic Center   16 is at   0.952270  4.168470 -1.014140
       Atomic Center   17 is at   1.303290  4.995770  0.018610
       Atomic Center   18 is at   1.114250  4.213160  1.557370
       Atomic Center   19 is at   0.553510  2.755880  0.794000
       Atomic Center   20 is at  -1.469770  0.050960 -0.638830
       Atomic Center   21 is at  -2.397740  0.991540 -0.164300
       Atomic Center   22 is at  -3.713810  0.618670  0.107600
       Atomic Center   23 is at  -4.155590 -0.702040 -0.080510
       Atomic Center   24 is at  -3.212980 -1.633760 -0.554690
       Atomic Center   25 is at  -1.896400 -1.273610 -0.830030
       Atomic Center   26 is at  -5.540120 -1.101630  0.206620
       Atomic Center   27 is at  -6.679070 -0.300910  0.241610
       Atomic Center   28 is at  -7.717690 -1.119590  0.550590
       Atomic Center   29 is at  -7.354640 -2.404340  0.726110
       Atomic Center   30 is at  -6.040060 -2.400410  0.517160
       Atomic Center   31 is at   2.321520  0.344340 -2.248550
       Atomic Center   32 is at   2.577570  1.081130 -0.649440
       Atomic Center   33 is at   6.507430 -3.592860  0.246870
       Atomic Center   34 is at   6.213880 -3.147380  2.699500
       Atomic Center   35 is at   4.495660 -1.557470  3.501250
       Atomic Center   36 is at   2.996730 -0.357290  1.915260
       Atomic Center   37 is at   0.776730  1.734390 -2.375720
       Atomic Center   38 is at  -0.894310  2.088370 -1.998210
       Atomic Center   39 is at   1.002690  4.467050 -2.062590
       Atomic Center   40 is at   1.668410  6.019530 -0.033370
       Atomic Center   41 is at   0.275390  1.895400  1.399020
       Atomic Center   42 is at  -2.092350  2.022460  0.019950
       Atomic Center   43 is at  -4.400910  1.370430  0.502110
       Atomic Center   44 is at  -3.519900 -2.665720 -0.736070
       Atomic Center   45 is at  -1.198270 -2.023920 -1.192950
       Atomic Center   46 is at  -6.824010  0.759020  0.051510
       Atomic Center   47 is at  -5.481420 -3.329060  0.616120
       Atomic Center   48 is at  -8.692060 -0.864980  0.647530
   26934 points will be used for fitting atomic charges
 Fitting point charges to electrostatic potential
 Charges from ESP fit, RMS=   0.00433 RRMS=   0.23707:
 Charge=   0.00000 Dipole=    -3.3613     6.8798     0.7663 Tot=     7.6953
              1
     1  O   -0.513343
     2  C    0.617486
     3  C   -0.012042
     4  N    0.300367
     5  N   -0.228838
     6  N   -0.346432
     7  C    0.424472
     8  C   -0.272749
     9  C   -0.045191
    10  C   -0.105219
    11  C   -0.136532
    12  C   -0.074759
    13  N   -0.466941
    14  C    0.123689
    15  C    0.164247
    16  C   -0.220158
    17  C   -0.140897
    18  S    0.009112
    19  C   -0.187457
    20  C    0.265695
    21  C   -0.131081
    22  C   -0.100264
    23  C    0.037848
    24  C   -0.117058
    25  C   -0.168851
    26  C   -0.036475
    27  C   -0.170500
    28  N    0.067473
    29  N   -0.442312
    30  C    0.125732
    31  H    0.012100
    32  H   -0.027960
    33  H    0.130663
    34  H    0.084027
    35  H    0.092267
    36  H    0.106741
    37  H    0.070208
    38  H    0.023085
    39  H    0.114929
    40  H    0.164512
    41  H    0.161076
    42  H    0.050708
    43  H    0.094900
    44  H    0.089205
    45  H    0.144991
    46  H    0.128041
    47  H    0.089953
    48  H    0.251534
 Charges from ESP fit with hydrogens summed into heavy atoms:
              1
     1  O   -0.513343
     2  C    0.617486
     3  C   -0.027902
     4  N    0.300367
     5  N   -0.228838
     6  N   -0.346432
     7  C    0.424472
     8  C   -0.142085
     9  C    0.038835
    10  C   -0.012952
    11  C   -0.029791
    12  C   -0.074759
    13  N   -0.466941
    14  C    0.216982
    15  C    0.164247
    16  C   -0.105228
    17  C    0.023614
    18  S    0.009112
    19  C   -0.026381
    20  C    0.265695
    21  C   -0.080373
    22  C   -0.005363
    23  C    0.037848
    24  C   -0.027854
    25  C   -0.023861
    26  C   -0.036475
    27  C   -0.042459
    28  N    0.319006
    29  N   -0.442312
    30  C    0.215686
    31  H    0.000000
    32  H    0.000000
    33  H    0.000000
    34  H    0.000000
    35  H    0.000000
    36  H    0.000000
    37  H    0.000000
    38  H    0.000000
    39  H    0.000000
    40  H    0.000000
    41  H    0.000000
    42  H    0.000000
    43  H    0.000000
    44  H    0.000000
    45  H    0.000000
    46  H    0.000000
    47  H    0.000000
    48  H    0.000000
 -----------------------------------------------------------------

              Electrostatic Properties (Atomic Units)

 -----------------------------------------------------------------
    Center     Electric         -------- Electric Field --------
               Potential          X             Y             Z
 -----------------------------------------------------------------
    1 Atom    -22.364118
    2 Atom    -14.635549
    3 Atom    -14.684122
    4 Atom    -18.295408
    5 Atom    -18.333000
    6 Atom    -18.371420
    7 Atom    -14.739503
    8 Atom    -14.750132
    9 Atom    -14.753481
   10 Atom    -14.748059
   11 Atom    -14.743924
   12 Atom    -14.716766
   13 Atom    -18.314561
   14 Atom    -14.680290
   15 Atom    -14.725599
   16 Atom    -14.733981
   17 Atom    -14.714161
   18 Atom    -59.172150
   19 Atom    -14.716863
   20 Atom    -14.703550
   21 Atom    -14.746184
   22 Atom    -14.748206
   23 Atom    -14.738584
   24 Atom    -14.751873
   25 Atom    -14.752027
   26 Atom    -14.751111
   27 Atom    -14.714517
   28 Atom    -18.291930
   29 Atom    -18.367282
   30 Atom    -14.738541
   31 Atom     -1.055669
   32 Atom     -1.059900
   33 Atom     -1.091340
   34 Atom     -1.097209
   35 Atom     -1.093883
   36 Atom     -1.083537
   37 Atom     -1.065388
   38 Atom     -1.065588
   39 Atom     -1.063823
   40 Atom     -1.050689
   41 Atom     -1.051445
   42 Atom     -1.081815
   43 Atom     -1.088183
   44 Atom     -1.093819
   45 Atom     -1.095857
   46 Atom     -1.053300
   47 Atom     -1.085267
   48 Atom     -0.976121
 -----------------------------------------------------------------
 Leave Link  602 at Sat Sep 10 09:49:05 2022, MaxMem=  209715200 cpu:      98.0
 (Enter /opt/gaussian/l9999.exe)
 1\1\GINC-LQCAPF-6\SP\RB3LYP\CC-pVDZ\C22H18N6O1S1\LQCAPF-6\10-Sep-2022\
 0\\#p b3lyp/cc-pvdz pop=(chelpg,readradii)\\Mol19.log\\0,1\O,0,0.85121
 ,-1.44947,-0.14099\C,0,0.94944,-0.37319,-0.70133\C,0,2.32665,0.14226,-
 1.16835\N,0,3.36688,-0.83334,-0.96362\N,0,3.94353,-1.42711,-2.05407\N,
 0,4.86411,-2.23995,-1.66533\C,0,4.92206,-2.20543,-0.28525\C,0,5.75749,
 -2.8909,0.61451\C,0,5.5858,-2.63544,1.96759\C,0,4.60207,-1.72236,2.426
 71\C,0,3.76504,-1.04049,1.55281\C,0,3.9478,-1.29827,0.18415\N,0,-0.130
 83,0.46114,-0.96057\C,0,0.06213,1.79635,-1.54013\C,0,0.51632,2.87256,-
 0.57449\C,0,0.95227,4.16847,-1.01414\C,0,1.30329,4.99577,0.01861\S,0,1
 .11425,4.21316,1.55737\C,0,0.55351,2.75588,0.794\C,0,-1.46977,0.05096,
 -0.63883\C,0,-2.39774,0.99154,-0.1643\C,0,-3.71381,0.61867,0.1076\C,0,
 -4.15559,-0.70204,-0.08051\C,0,-3.21298,-1.63376,-0.55469\C,0,-1.8964,
 -1.27361,-0.83003\C,0,-5.54012,-1.10163,0.20662\C,0,-6.67907,-0.30091,
 0.24161\N,0,-7.71769,-1.11959,0.55059\N,0,-7.35464,-2.40434,0.72611\C,
 0,-6.04006,-2.40041,0.51716\H,0,2.32152,0.34434,-2.24855\H,0,2.57757,1
 .08113,-0.64944\H,0,6.50743,-3.59286,0.24687\H,0,6.21388,-3.14738,2.69
 95\H,0,4.49566,-1.55747,3.50125\H,0,2.99673,-0.35729,1.91526\H,0,0.776
 73,1.73439,-2.37572\H,0,-0.89431,2.08837,-1.99821\H,0,1.00269,4.46705,
 -2.06259\H,0,1.66841,6.01953,-0.03337\H,0,0.27539,1.8954,1.39902\H,0,-
 2.09235,2.02246,0.01995\H,0,-4.40091,1.37043,0.50211\H,0,-3.5199,-2.66
 572,-0.73607\H,0,-1.19827,-2.02392,-1.19295\H,0,-6.82401,0.75902,0.051
 51\H,0,-5.48142,-3.32906,0.61612\H,0,-8.69206,-0.86498,0.64753\\Versio
 n=EM64L-G09RevC.01\State=1-A\HF=-1651.1432118\RMSD=4.868e-09\Dipole=-1
 .357842,2.6885248,0.322306\Quadrupole=3.3763188,-0.1728016,-3.2035172,
 -4.3287312,10.4706191,-6.3343357\PG=C01 [X(C22H18N6O1S1)]\\@


 FRICTION IS A DRAG,
 AND ENTROPY AIN'T WHAT IT USED TO BE.
 Job cpu time:  0 days  1 hours 25 minutes 51.1 seconds.
 File lengths (MBytes):  RWF=    147 Int=      0 D2E=      0 Chk=     10 Scr=      1
 Normal termination of Gaussian 09 at Sat Sep 10 09:49:05 2022.
