 Entering Gaussian System, Link 0=g09
 Input=Mol15.gjf
 Output=Mol15.log
 Initial command:
 /opt/gaussian/l1.exe /home/scr/lqcapf-6/Gau-551118.inp -scrdir=/home/scr/lqcapf-6/
 Entering Link 1 = /opt/gaussian/l1.exe PID=    551120.
  
 Copyright (c) 1988,1990,1992,1993,1995,1998,2003,2009,2011,
            Gaussian, Inc.  All Rights Reserved.
  
 This is part of the Gaussian(R) 09 program.  It is based on
 the Gaussian(R) 03 system (copyright 2003, Gaussian, Inc.),
 the Gaussian(R) 98 system (copyright 1998, Gaussian, Inc.),
 the Gaussian(R) 94 system (copyright 1995, Gaussian, Inc.),
 the Gaussian 92(TM) system (copyright 1992, Gaussian, Inc.),
 the Gaussian 90(TM) system (copyright 1990, Gaussian, Inc.),
 the Gaussian 88(TM) system (copyright 1988, Gaussian, Inc.),
 the Gaussian 86(TM) system (copyright 1986, Carnegie Mellon
 University), and the Gaussian 82(TM) system (copyright 1983,
 Carnegie Mellon University). Gaussian is a federally registered
 trademark of Gaussian, Inc.
  
 This software contains proprietary and confidential information,
 including trade secrets, belonging to Gaussian, Inc.
  
 This software is provided under written license and may be
 used, copied, transmitted, or stored only in accord with that
 written license.
  
 The following legend is applicable only to US Government
 contracts under FAR:
  
                    RESTRICTED RIGHTS LEGEND
  
 Use, reproduction and disclosure by the US Government is
 subject to restrictions as set forth in subparagraphs (a)
 and (c) of the Commercial Computer Software - Restricted
 Rights clause in FAR 52.227-19.
  
 Gaussian, Inc.
 340 Quinnipiac St., Bldg. 40, Wallingford CT 06492
  
  
 ---------------------------------------------------------------
 Warning -- This program may not be used in any manner that
 competes with the business of Gaussian, Inc. or will provide
 assistance to any competitor of Gaussian, Inc.  The licensee
 of this program is prohibited from giving any competitor of
 Gaussian, Inc. access to this program.  By using this program,
 the user acknowledges that Gaussian, Inc. is engaged in the
 business of creating and licensing software in the field of
 computational chemistry and represents and warrants to the
 licensee that it is not a competitor of Gaussian, Inc. and that
 it will not use this program in any manner prohibited above.
 ---------------------------------------------------------------
  

 Cite this work as:
 Gaussian 09, Revision C.01,
 M. J. Frisch, G. W. Trucks, H. B. Schlegel, G. E. Scuseria, 
 M. A. Robb, J. R. Cheeseman, G. Scalmani, V. Barone, B. Mennucci, 
 G. A. Petersson, H. Nakatsuji, M. Caricato, X. Li, H. P. Hratchian, 
 A. F. Izmaylov, J. Bloino, G. Zheng, J. L. Sonnenberg, M. Hada, 
 M. Ehara, K. Toyota, R. Fukuda, J. Hasegawa, M. Ishida, T. Nakajima, 
 Y. Honda, O. Kitao, H. Nakai, T. Vreven, J. A. Montgomery, Jr., 
 J. E. Peralta, F. Ogliaro, M. Bearpark, J. J. Heyd, E. Brothers, 
 K. N. Kudin, V. N. Staroverov, T. Keith, R. Kobayashi, J. Normand, 
 K. Raghavachari, A. Rendell, J. C. Burant, S. S. Iyengar, J. Tomasi, 
 M. Cossi, N. Rega, J. M. Millam, M. Klene, J. E. Knox, J. B. Cross, 
 V. Bakken, C. Adamo, J. Jaramillo, R. Gomperts, R. E. Stratmann, 
 O. Yazyev, A. J. Austin, R. Cammi, C. Pomelli, J. W. Ochterski, 
 R. L. Martin, K. Morokuma, V. G. Zakrzewski, G. A. Voth, 
 P. Salvador, J. J. Dannenberg, S. Dapprich, A. D. Daniels, 
 O. Farkas, J. B. Foresman, J. V. Ortiz, J. Cioslowski, 
 and D. J. Fox, Gaussian, Inc., Wallingford CT, 2010.
 
 ******************************************
 Gaussian 09:  EM64L-G09RevC.01 23-Sep-2011
                10-Sep-2022 
 ******************************************
 %nprocshared=8
 Will use up to    8 processors via shared memory.
 %mem=1600MB
 ---------------------------------------
 #p b3lyp/cc-pvdz pop=(chelpg,readradii)
 ---------------------------------------
 1/38=1/1;
 2/12=2,17=6,18=5,40=1/2;
 3/5=16,11=2,16=1,25=1,30=1,74=-5/1,2,3;
 4//1;
 5/5=2,38=5/2;
 6/7=2,8=2,9=2,10=2,15=8,20=103,28=1/1,2;
 99/5=1,9=1/99;
 Leave Link    1 at Sat Sep 10 08:44:58 2022, MaxMem=  209715200 cpu:       0.2
 (Enter /opt/gaussian/l101.exe)
 ---------
 Mol15.log
 ---------
 Charge =  0 Multiplicity = 1
 Symbolic Z-Matrix:
 O                     1.00363  -1.44103  -0.13562 
 C                     1.14944  -0.38094  -0.71457 
 C                     2.54864   0.06657  -1.18727 
 N                     3.54758  -0.94239  -0.94434 
 N                     4.09411  -1.60688  -2.00919 
 N                     4.97478  -2.44654  -1.58668 
 C                     5.03449  -2.35992  -0.20889 
 C                     5.83527  -3.04888   0.71917 
 C                     5.67557  -2.73214   2.06077 
 C                     4.73767  -1.75459   2.48119 
 C                     3.9353   -1.06781   1.57899 
 C                     4.10527  -1.38878   0.22216 
 N                     0.10583   0.49562  -0.99121 
 C                     0.36039   1.81446  -1.58496 
 C                     0.85346   2.88128  -0.62823 
 C                     1.34379   4.15378  -1.07882 
 C                     1.7231    4.97674  -0.05262 
 S                     1.49475   4.21844   1.49296 
 C                     0.87934   2.77717   0.74155 
 C                    -1.24967   0.14969  -0.67014 
 C                    -2.1393    1.14159  -0.22748 
 C                    -3.47315   0.83389   0.03959 
 C                    -3.96717  -0.47112  -0.11686 
 C                    -3.06424  -1.45571  -0.55985 
 C                    -1.73258  -1.1603   -0.83294 
 C                    -5.38434  -0.83628   0.16193 
 C                    -6.32336   0.08818   0.65898 
 C                    -7.63239  -0.32562   0.89618 
 C                    -7.98286  -1.65131   0.63481 
 C                    -6.98661  -2.5002    0.14521 
 N                    -5.72906  -2.11651  -0.08633 
 H                     2.55597   0.23397  -2.27347 
 H                     2.83419   1.01037  -0.69621 
 H                     6.55029  -3.8005    0.38137 
 H                     6.27754  -3.24485   2.81377 
 H                     4.63938  -1.54191   3.54807 
 H                     3.20235  -0.33291   1.91264 
 H                     1.07754   1.71091  -2.41409 
 H                    -0.57885   2.14187  -2.05439 
 H                     1.41112   4.43915  -2.13 
 H                     2.12962   5.9843   -0.11303 
 H                     0.5628    1.93528   1.35383 
 H                    -1.79342   2.16425  -0.07282 
 H                    -4.12354   1.64051   0.3799 
 H                    -3.43642  -2.47079  -0.69359 
 H                    -1.06389  -1.94972  -1.16696 
 H                    -6.03994   1.1203    0.86421 
 H                    -8.36994   0.38161   1.2829 
 H                    -8.99566  -2.02062   0.80537 
 H                    -7.21322  -3.54955  -0.07309 
 
 NAtoms=     50 NQM=        0 NQMF=       0 NMMI=     50 NMMIF=      0
                NMic=       0 NMicF=      0.
                    Isotopes and Nuclear Properties:
 (Nuclear quadrupole moments (NQMom) in fm**2, nuclear magnetic moments (NMagM)
  in nuclear magnetons)

  Atom         1           2           3           4           5           6           7           8           9          10
 IAtWgt=          16          12          12          14          14          14          12          12          12          12
 AtmWgt=  15.9949146  12.0000000  12.0000000  14.0030740  14.0030740  14.0030740  12.0000000  12.0000000  12.0000000  12.0000000
 NucSpn=           0           0           0           2           2           2           0           0           0           0
 AtZEff=   0.0000000   0.0000000   0.0000000   0.0000000   0.0000000   0.0000000   0.0000000   0.0000000   0.0000000   0.0000000
 NQMom=    0.0000000   0.0000000   0.0000000   2.0440000   2.0440000   2.0440000   0.0000000   0.0000000   0.0000000   0.0000000
 NMagM=    0.0000000   0.0000000   0.0000000   0.4037610   0.4037610   0.4037610   0.0000000   0.0000000   0.0000000   0.0000000

  Atom        11          12          13          14          15          16          17          18          19          20
 IAtWgt=          12          12          14          12          12          12          12          32          12          12
 AtmWgt=  12.0000000  12.0000000  14.0030740  12.0000000  12.0000000  12.0000000  12.0000000  31.9720718  12.0000000  12.0000000
 NucSpn=           0           0           2           0           0           0           0           0           0           0
 AtZEff=   0.0000000   0.0000000   0.0000000   0.0000000   0.0000000   0.0000000   0.0000000   0.0000000   0.0000000   0.0000000
 NQMom=    0.0000000   0.0000000   2.0440000   0.0000000   0.0000000   0.0000000   0.0000000   0.0000000   0.0000000   0.0000000
 NMagM=    0.0000000   0.0000000   0.4037610   0.0000000   0.0000000   0.0000000   0.0000000   0.0000000   0.0000000   0.0000000

  Atom        21          22          23          24          25          26          27          28          29          30
 IAtWgt=          12          12          12          12          12          12          12          12          12          12
 AtmWgt=  12.0000000  12.0000000  12.0000000  12.0000000  12.0000000  12.0000000  12.0000000  12.0000000  12.0000000  12.0000000
 NucSpn=           0           0           0           0           0           0           0           0           0           0
 AtZEff=   0.0000000   0.0000000   0.0000000   0.0000000   0.0000000   0.0000000   0.0000000   0.0000000   0.0000000   0.0000000
 NQMom=    0.0000000   0.0000000   0.0000000   0.0000000   0.0000000   0.0000000   0.0000000   0.0000000   0.0000000   0.0000000
 NMagM=    0.0000000   0.0000000   0.0000000   0.0000000   0.0000000   0.0000000   0.0000000   0.0000000   0.0000000   0.0000000

  Atom        31          32          33          34          35          36          37          38          39          40
 IAtWgt=          14           1           1           1           1           1           1           1           1           1
 AtmWgt=  14.0030740   1.0078250   1.0078250   1.0078250   1.0078250   1.0078250   1.0078250   1.0078250   1.0078250   1.0078250
 NucSpn=           2           1           1           1           1           1           1           1           1           1
 AtZEff=   0.0000000   0.0000000   0.0000000   0.0000000   0.0000000   0.0000000   0.0000000   0.0000000   0.0000000   0.0000000
 NQMom=    2.0440000   0.0000000   0.0000000   0.0000000   0.0000000   0.0000000   0.0000000   0.0000000   0.0000000   0.0000000
 NMagM=    0.4037610   2.7928460   2.7928460   2.7928460   2.7928460   2.7928460   2.7928460   2.7928460   2.7928460   2.7928460

  Atom        41          42          43          44          45          46          47          48          49          50
 IAtWgt=           1           1           1           1           1           1           1           1           1           1
 AtmWgt=   1.0078250   1.0078250   1.0078250   1.0078250   1.0078250   1.0078250   1.0078250   1.0078250   1.0078250   1.0078250
 NucSpn=           1           1           1           1           1           1           1           1           1           1
 AtZEff=   0.0000000   0.0000000   0.0000000   0.0000000   0.0000000   0.0000000   0.0000000   0.0000000   0.0000000   0.0000000
 NQMom=    0.0000000   0.0000000   0.0000000   0.0000000   0.0000000   0.0000000   0.0000000   0.0000000   0.0000000   0.0000000
 NMagM=    2.7928460   2.7928460   2.7928460   2.7928460   2.7928460   2.7928460   2.7928460   2.7928460   2.7928460   2.7928460
 Leave Link  101 at Sat Sep 10 08:44:58 2022, MaxMem=  209715200 cpu:       0.7
 (Enter /opt/gaussian/l202.exe)
                          Input orientation:                          
 ---------------------------------------------------------------------
 Center     Atomic      Atomic             Coordinates (Angstroms)
 Number     Number       Type             X           Y           Z
 ---------------------------------------------------------------------
      1          8           0        1.003630   -1.441030   -0.135620
      2          6           0        1.149440   -0.380940   -0.714570
      3          6           0        2.548640    0.066570   -1.187270
      4          7           0        3.547580   -0.942390   -0.944340
      5          7           0        4.094110   -1.606880   -2.009190
      6          7           0        4.974780   -2.446540   -1.586680
      7          6           0        5.034490   -2.359920   -0.208890
      8          6           0        5.835270   -3.048880    0.719170
      9          6           0        5.675570   -2.732140    2.060770
     10          6           0        4.737670   -1.754590    2.481190
     11          6           0        3.935300   -1.067810    1.578990
     12          6           0        4.105270   -1.388780    0.222160
     13          7           0        0.105830    0.495620   -0.991210
     14          6           0        0.360390    1.814460   -1.584960
     15          6           0        0.853460    2.881280   -0.628230
     16          6           0        1.343790    4.153780   -1.078820
     17          6           0        1.723100    4.976740   -0.052620
     18         16           0        1.494750    4.218440    1.492960
     19          6           0        0.879340    2.777170    0.741550
     20          6           0       -1.249670    0.149690   -0.670140
     21          6           0       -2.139300    1.141590   -0.227480
     22          6           0       -3.473150    0.833890    0.039590
     23          6           0       -3.967170   -0.471120   -0.116860
     24          6           0       -3.064240   -1.455710   -0.559850
     25          6           0       -1.732580   -1.160300   -0.832940
     26          6           0       -5.384340   -0.836280    0.161930
     27          6           0       -6.323360    0.088180    0.658980
     28          6           0       -7.632390   -0.325620    0.896180
     29          6           0       -7.982860   -1.651310    0.634810
     30          6           0       -6.986610   -2.500200    0.145210
     31          7           0       -5.729060   -2.116510   -0.086330
     32          1           0        2.555970    0.233970   -2.273470
     33          1           0        2.834190    1.010370   -0.696210
     34          1           0        6.550290   -3.800500    0.381370
     35          1           0        6.277540   -3.244850    2.813770
     36          1           0        4.639380   -1.541910    3.548070
     37          1           0        3.202350   -0.332910    1.912640
     38          1           0        1.077540    1.710910   -2.414090
     39          1           0       -0.578850    2.141870   -2.054390
     40          1           0        1.411120    4.439150   -2.130000
     41          1           0        2.129620    5.984300   -0.113030
     42          1           0        0.562800    1.935280    1.353830
     43          1           0       -1.793420    2.164250   -0.072820
     44          1           0       -4.123540    1.640510    0.379900
     45          1           0       -3.436420   -2.470790   -0.693590
     46          1           0       -1.063890   -1.949720   -1.166960
     47          1           0       -6.039940    1.120300    0.864210
     48          1           0       -8.369940    0.381610    1.282900
     49          1           0       -8.995660   -2.020620    0.805370
     50          1           0       -7.213220   -3.549550   -0.073090
 ---------------------------------------------------------------------
                    Distance matrix (angstroms):
                    1          2          3          4          5
     1  O    0.000000
     2  C    1.216649   0.000000
     3  C    2.401225   1.543202   0.000000
     4  N    2.715576   2.473681   1.440450   0.000000
     5  N    3.617850   3.442390   2.421666   1.368995   0.000000
     6  N    4.345878   4.434017   3.515879   2.170707   1.288070
     7  C    4.134920   4.389270   3.608952   2.182013   2.166210
     8  C    5.163390   5.579473   4.913500   3.526768   3.543297
     9  C    5.321477   5.806592   5.306622   4.094171   4.509080
    10  C    4.570456   4.997518   4.643929   3.716213   4.538667
    11  C    3.416704   3.673312   3.295730   2.556023   3.631921
    12  C    3.122644   3.260389   2.554923   1.367847   2.242011
    13  N    2.299716   1.390687   2.487940   3.730377   4.622031
    14  C    3.621127   2.489972   2.828730   4.262487   5.081949
    15  C    4.352882   3.276757   3.332980   4.688140   5.705475
    16  C    5.683945   4.553475   4.262477   5.553893   6.450973
    17  C    6.458506   5.428812   5.106732   6.257794   7.265942
    18  S    5.909575   5.113387   5.052954   6.065370   7.277093
    19  C    4.310230   3.488108   3.722131   4.878202   6.092718
    20  C    2.809531   2.457493   3.834252   4.927619   5.782264
    21  C    4.068952   3.656660   4.904452   6.098972   7.041589
    22  C    5.024691   4.838689   6.193216   7.308484   8.210864
    23  C    5.064576   5.152193   6.625003   7.574846   8.357936
    24  C    4.089958   4.351341   5.849394   6.642853   7.305163
    25  C    2.837589   2.987884   4.467617   5.285829   5.960983
    26  C    6.423427   6.608015   8.097385   9.000794   9.754414
    27  C    7.526929   7.612454   9.062091  10.053266  10.886507
    28  C    8.768671   8.928500  10.399421  11.347231  12.148811
    29  C    9.021906   9.318453  10.825136  11.659645  12.363087
    30  C    8.065026   8.451378   9.964176  10.704347  11.323507
    31  N    6.766670   7.121843   8.631235   9.389930  10.022564
    32  H    3.128224   2.187832   1.099048   2.033150   2.413389
    33  H    3.110398   2.185055   1.101561   2.093744   3.187681
    34  H    6.049778   6.485650   5.781701   4.352306   4.069345
    35  H    6.306092   6.851903   6.393631   5.184341   5.541774
    36  H    5.176720   5.630065   5.420502   4.661888   5.584324
    37  H    3.202760   3.334513   3.193174   2.941596   4.218884
    38  H    3.889938   2.696178   2.524495   3.911683   4.502374
    39  H    4.361547   3.338664   3.852267   5.269943   5.990970
    40  H    6.222549   5.030426   4.615425   5.910264   6.615702
    41  H    7.510252   6.468298   6.029021   7.119039   8.067258
    42  H    3.716485   3.160269   3.727308   4.740409   6.027184
    43  H    4.563494   3.943382   4.949318   6.239955   7.254927
    44  H    6.004125   5.752255   7.032161   8.201894   9.153309
    45  H    4.591926   5.039645   6.519422   7.153680   7.693245
    46  H    2.365812   2.750374   4.137174   4.725455   5.237543
    47  H    7.561214   7.512220   8.892841   9.972266  10.880851
    48  H    9.653913   9.756534  11.198945  12.195936  13.043945
    49  H   10.060178  10.388543  11.899489  12.710505  13.395335
    50  H    8.483301   8.965805  10.469557  11.106357  11.635212
                    6          7          8          9         10
     6  N    0.000000
     7  C    1.381801   0.000000
     8  C    2.533812   1.406133   0.000000
     9  C    3.725126   2.387653   1.387703   0.000000
    10  C    4.133108   2.773275   2.446350   1.418455   0.000000
    11  C    3.605951   2.464606   2.876424   2.455737   1.389039
    12  C    2.268657   1.411512   2.448643   2.766034   2.374229
    13  N    5.719927   5.749593   6.950925   7.124256   6.210873
    14  C    6.280822   6.416091   7.676940   7.887589   6.959330
    15  C    6.803644   6.717666   7.861343   7.873624   6.800505
    16  C    7.550247   7.536998   8.676662   8.719933   7.687713
    17  C    8.248142   8.050857   9.050756   8.917133   7.798630
    18  S    8.125069   7.661649   8.500165   8.130943   6.868058
    19  C    7.034233   6.675200   7.648830   7.422712   6.200799
    20  C    6.806191   6.782445   7.896671   7.982591   7.028898
    21  C    8.082836   7.982743   9.058143   9.017431   7.938354
    22  C    9.207252   9.090770  10.108631  10.025010   8.948698
    23  C    9.274757   9.198148  10.170134  10.140844   9.174497
    24  C    8.164678   8.156604   9.131011   9.213099   8.378965
    25  C    6.871042   6.900852   7.952870   8.107091   7.293886
    26  C   10.628356  10.536176  11.449269  11.380751  10.424843
    27  C   11.794734  11.651058  12.556952  12.405384  11.360574
    28  C   13.023196  12.876700  13.741373  13.573850  12.552792
    29  C   13.170719  13.063895  13.888882  13.775132  12.854247
    30  C   12.086239  12.027132  12.846443  12.808355  11.977958
    31  N   10.813517  10.766999  11.629784  11.621300  10.783116
    32  H    3.675249   4.139302   5.521486   6.108629   5.596515
    33  H    4.162366   4.054338   5.242832   5.448005   4.622133
    34  H    2.861584   2.172862   1.091006   2.174146   3.446822
    35  H    4.658159   3.385963   2.149734   1.091901   2.168567
    36  H    5.224606   3.865230   3.421080   2.168501   1.092303
    37  H    4.455803   3.459248   3.966501   3.448922   2.168324
    38  H    5.758253   6.090322   7.423538   7.804290   7.026379
    39  H    7.219076   7.428430   8.705025   8.933548   8.001204
    40  H    7.772232   7.940203   9.152129   9.336781   8.407819
    41  H    9.019182   8.835919   9.799119   9.657924   8.568683
    42  H    6.878409   6.394282   7.283103   6.958807   5.684683
    43  H    8.328246   8.191885   9.273666   9.182192   8.033393
    44  H   10.166162  10.010975  11.012873  10.861305   9.719216
    45  H    8.458515   8.485490   9.396505   9.522771   8.798177
    46  H    6.073593   6.186792   7.236301   7.513371   6.856032
    47  H   11.834410  11.657893  12.586648  12.390570  11.271047
    48  H   13.939673  13.763000  14.624433  14.407528  13.334492
    49  H   14.180145  14.070855  14.866783  14.742024  13.837756
    50  H   12.331056  12.306099  13.082104  13.089783  12.351923
                   11         12         13         14         15
    11  C    0.000000
    12  C    1.404599   0.000000
    13  N    4.869813   4.584621   0.000000
    14  C    5.576562   5.248862   1.468564   0.000000
    15  C    5.474018   5.434229   2.526278   1.515439   0.000000
    16  C    6.406628   6.327582   3.862946   2.587600   1.436214
    17  C    6.640223   6.802212   4.855610   3.768960   2.340631
    18  S    5.823068   6.314322   4.686106   4.066876   2.588184
    19  C    4.982376   5.294481   2.967532   2.570753   1.373974
    20  C    5.781419   5.642559   1.435317   2.490110   3.447680
    21  C    6.711598   6.752748   2.457879   2.923005   3.484786
    22  C    7.802009   7.899750   3.739796   4.277465   4.832944
    23  C    8.104380   8.131502   4.276494   5.109498   5.893943
    24  C    7.329302   7.212343   3.747413   4.844889   5.844872
    25  C    6.160424   5.936828   2.479289   3.714196   4.802487
    26  C    9.429600   9.505871   5.765905   6.563533   7.304434
    27  C   10.364499  10.541753   6.650084   7.258638   7.808013
    28  C   11.611569  11.804968   8.007292   8.638318   9.198787
    29  C   11.969732  12.098020   8.525266   9.303159  10.011004
    30  C   11.108357  11.147689   7.782615   8.694147   9.540715
    31  N    9.862703   9.866043   6.456622   7.401339   8.282580
    32  H    4.294023   3.355863   2.777740   2.791517   3.551564
    33  H    3.272279   2.866177   2.792121   2.748840   2.725476
    34  H    3.967375   3.438003   7.865856   8.585400   8.838515
    35  H    3.427867   3.857486   8.158370   8.941930   8.876794
    36  H    2.144242   3.372002   6.731246   7.478166   7.165144
    37  H    1.090237   2.188115   4.325187   4.992108   4.722745
    38  H    5.642053   5.071986   2.108492   1.101128   2.146922
    39  H    6.624277   6.291991   2.075880   1.099879   2.152248
    40  H    7.103147   6.837826   4.307209   2.879253   2.234560
    41  H    7.473665   7.640540   5.915449   4.762806   3.394517
    42  H    4.521394   4.987900   2.789383   2.948229   2.215392
    43  H    6.781808   6.892429   2.689780   2.654773   2.797961
    44  H    8.585902   8.770108   4.591109   4.898629   5.227463
    45  H    7.840614   7.673750   4.629871   5.794279   6.859446
    46  H    5.771474   5.381870   2.716398   4.046276   5.225421
    47  H   10.237390  10.470578   6.450062   6.887998   7.269621
    48  H   12.393846  12.644774   8.776289   9.300341   9.745351
    49  H   12.989075  13.129117   9.612299  10.390245  11.094548
    50  H   11.540273  11.526678   8.412778   9.403080  10.331267
                   16         17         18         19         20
    16  C    0.000000
    17  C    1.369024   0.000000
    18  S    2.577018   1.736658   0.000000
    19  C    2.329059   2.486110   1.737989   0.000000
    20  C    4.788088   5.702552   5.363354   3.664588   0.000000
    21  C    4.682946   5.445832   5.062928   3.567398   1.404014
    22  C    5.956125   6.646256   6.184456   4.818014   2.432223
    23  C    7.107838   7.877974   7.376724   5.897196   2.841888
    24  C    7.153072   8.034446   7.562698   5.929818   2.425312
    25  C    6.145238   7.086176   6.690016   4.980443   1.405624
    26  C    8.468051   9.184385   8.639659   7.254424   4.331278
    27  C    8.850663   9.441923   8.881296   7.688717   5.245252
    28  C   10.224356  10.795390  10.213193   9.060947   6.589263
    29  C   11.118543  11.773244  11.181032   9.907644   7.091004
    30  C   10.731694  11.480541  10.903670   9.491018   6.371750
    31  N    9.504040  10.288344   9.737001   8.264650   5.053853
    32  H    4.273345   5.302803   5.584638   4.285942   4.130456
    33  H    3.499816   4.169031   4.108318   3.001695   4.173651
    34  H    9.618231  10.026468   9.544502   8.692246   8.806194
    35  H    9.707413   9.826172   8.962160   8.348616   8.962110
    36  H    8.044247   7.997653   6.877049   6.377218   7.438798
    37  H    5.703811   5.851736   4.879223   4.054679   5.169539
    38  H    2.796685   4.081536   4.661203   3.336803   3.300708
    39  H    2.948909   4.164438   4.603874   3.216707   2.516928
    40  H    1.091306   2.168373   3.630640   3.360174   5.254566
    41  H    2.213839   1.088157   2.469924   3.546715   6.765548
    42  H    3.383707   3.546107   2.469961   1.088055   3.251128
    43  H    3.848682   4.502935   4.181319   2.860510   2.170462
    44  H    6.191614   6.745421   6.280908   5.143111   3.403565
    45  H    8.178248   9.082797   8.593209   6.944530   3.413113
    46  H    6.561814   7.548835   7.188046   5.455460   2.165379
    47  H    8.215646   8.716507   8.171007   7.115947   5.122792
    48  H   10.684734  11.169973  10.586666   9.569794   7.386907
    49  H   12.189242  12.829303  12.224866  10.979002   8.178492
    50  H   11.557474  12.351350  11.773824  10.304395   7.043066
                   21         22         23         24         25
    21  C    0.000000
    22  C    1.394690   0.000000
    23  C    2.440119   1.404131   0.000000
    24  C    2.777040   2.401833   1.407459   0.000000
    25  C    2.414684   2.787057   2.445635   1.391102   0.000000
    26  C    3.820196   2.541079   1.489777   2.507494   3.798698
    27  C    4.404752   3.010552   2.542907   3.806705   4.985959
    28  C    5.795632   4.401987   3.805425   4.925964   6.204378
    29  C    6.533837   5.183434   4.252484   5.065402   6.439051
    30  C    6.074368   4.844761   3.647309   4.119837   5.509713
    31  N    4.849899   3.716160   2.410912   2.786062   4.176556
    32  H    5.201481   6.485402   6.906481   6.113777   4.734002
    33  H    4.997252   6.352565   6.984909   6.394656   5.058250
    34  H   10.015185  11.048246  11.043096   9.940982   8.777878
    35  H    9.966607  10.927404  11.010734  10.092135   9.044659
    36  H    8.210143   9.152431   9.415466   8.730876   7.742141
    37  H    5.940327   7.030792   7.452516   6.829644   5.707567
    38  H    3.931087   5.243900   5.957149   5.533537   4.317483
    39  H    2.602530   3.804279   4.697068   4.620973   3.705045
    40  H    5.205667   6.446791   7.555759   7.565950   6.551264
    41  H    6.456672   7.611902   8.879376   9.084579   8.153537
    42  H    3.229834   4.385109   5.336133   5.321316   4.430953
    43  H    1.090590   2.145690   3.416475   3.867337   3.410882
    44  H    2.134254   1.090621   2.174903   3.404677   3.877139
    45  H    3.866402   3.385234   2.147788   1.089400   2.154036
    46  H    3.405191   3.874117   3.423157   2.148029   1.087152
    47  H    4.050584   2.711169   2.791324   4.185518   5.160892
    48  H    6.455981   5.072369   4.697963   5.909478   7.135041
    49  H    7.620763   6.263606   5.342019   6.112667   7.495101
    50  H    6.911968   5.763277   4.473867   4.672808   6.026882
                   26         27         28         29         30
    26  C    0.000000
    27  C    1.408348   0.000000
    28  C    2.419427   1.393217   0.000000
    29  C    2.764090   2.404236   1.395922   0.000000
    30  C    2.310017   2.720950   2.389516   1.397439   0.000000
    31  N    1.348871   2.401945   2.792003   2.411653   1.335013
    32  H    8.374075   9.352167  10.684685  11.094112  10.216973
    33  H    8.467039   9.303101  10.670983  11.218945  10.463279
    34  H   12.299193  13.451013  14.611237  14.693390  13.601258
    35  H   12.199709  13.211165  14.341730  14.513657  13.550402
    36  H   10.603717  11.453633  12.613811  12.954536  12.151602
    37  H    8.777791   9.617075  10.882318  11.334900  10.565787
    38  H    7.408100   8.176205   9.537726  10.133665   9.450607
    39  H    6.072412   6.676782   8.034102   8.742961   8.212578
    40  H    8.902886   9.302233  10.660482  11.531901  11.128928
    41  H   10.151626  10.335042  11.667495  12.693465  12.456287
    42  H    6.668631   7.163365   8.513651   9.295640   8.838995
    43  H    4.685402   5.036462   6.421214   7.305368   6.983828
    44  H    2.787762   2.706810   4.055150   5.078918   5.039616
    45  H    2.682896   4.088055   4.973458   4.806902   3.648054
    46  H    4.655318   5.928669   7.073856   7.155946   6.091259
    47  H    2.179728   1.089825   2.151187   3.392548   3.810665
    48  H    3.413742   2.159599   1.092569   2.168551   3.393047
    49  H    3.854648   3.407294   2.177103   1.091441   2.168430
    50  H    3.280529   3.815869   3.392479   2.167206   1.095510
                   31         32         33         34         35
    31  N    0.000000
    32  H    8.885385   0.000000
    33  H    9.136661   1.779874   0.000000
    34  H   12.403105   6.267353   6.173739   0.000000
    35  H   12.403313   7.199464   6.502578   2.509922   0.000000
    36  H   11.001981   6.433092   5.271315   4.333681   2.474423
    37  H    9.324548   4.273485   2.957371   5.057437   4.329922
    38  H    8.148461   2.094488   2.554934   8.254770   8.884260
    39  H    6.966471   3.676299   3.843668   9.595276   9.986281
    40  H    9.906333   4.360597   3.979625  10.030448  10.352138
    41  H   11.286394   6.157562   5.057321  10.748445  10.533215
    42  H    7.620929   4.474873   3.196457   8.348346   7.850059
    43  H    5.815011   5.242713   4.809868  10.266549  10.135638
    44  H    4.112209   7.323563   7.068599  11.980619  11.746188
    45  H    2.398015   6.761692   7.172101  10.132031  10.356725
    46  H    4.791596   4.369926   4.917191   7.987393   8.451045
    47  H    3.387789   9.193491   9.010948  13.526319  13.212707
    48  H    3.884539  11.491087  11.394944  15.521471  15.167183
    49  H    3.387477  12.165631  12.303942  15.653252  15.453254
    50  H    2.063131  10.704848  11.051317  13.773297  13.799544
                   36         37         38         39         40
    36  H    0.000000
    37  H    2.490255   0.000000
    38  H    7.669087   5.235705   0.000000
    39  H    8.496336   6.013263   1.748925   0.000000
    40  H    8.856366   6.505690   2.763200   3.040262   0.000000
    41  H    8.737642   6.720211   4.966247   5.086153   2.640435
    42  H    5.789995   3.524795   3.809530   3.600279   4.373338
    43  H    8.259987   5.927527   3.732221   2.324285   4.435790
    44  H    9.846515   7.740306   5.904453   4.329198   6.690624
    45  H    9.169135   7.445551   6.389254   5.594114   8.562079
    46  H    7.411147   5.504436   4.420551   4.214725   6.918871
    47  H   11.328651   9.414401   7.858409   6.275774   8.688979
    48  H   13.344412  11.611417  10.231796   8.656622  11.125675
    49  H   13.916389  12.363893  11.214214   9.815663  12.595479
    50  H   12.554981  11.080343  10.094029   8.962850  11.934381
                   41         42         43         44         45
    41  H    0.000000
    42  H    4.582703   0.000000
    43  H    5.475823   2.763970   0.000000
    44  H    7.629777   4.795541   2.430786   0.000000
    45  H   10.139349   6.292785   4.956652   4.304335   0.000000
    46  H    8.617305   4.908536   4.319040   4.964271   2.474771
    47  H    9.557992   6.670839   4.472224   2.043958   4.701168
    48  H   11.982467   9.067126   6.947402   4.520194   6.031776
    49  H   13.736596  10.359252   8.375955   6.109210   5.775351
    50  H   13.348579   9.622159   7.875388   6.057066   3.976551
                   46         47         48         49         50
    46  H    0.000000
    47  H    6.189648   0.000000
    48  H    8.050794   2.479892   0.000000
    49  H    8.173621   4.313365   2.527898   0.000000
    50  H    6.447501   4.905366   4.316333   2.507272   0.000000
 Stoichiometry    C24H19N5OS
 Framework group  C1[X(C24H19N5OS)]
 Deg. of freedom   144
 Full point group                 C1      NOp   1
 Largest Abelian subgroup         C1      NOp   1
 Largest concise Abelian subgroup C1      NOp   1
                         Standard orientation:                         
 ---------------------------------------------------------------------
 Center     Atomic      Atomic             Coordinates (Angstroms)
 Number     Number       Type             X           Y           Z
 ---------------------------------------------------------------------
      1          8           0        1.003631   -1.441030   -0.135620
      2          6           0        1.149440   -0.380940   -0.714570
      3          6           0        2.548640    0.066571   -1.187270
      4          7           0        3.547580   -0.942389   -0.944340
      5          7           0        4.094111   -1.606879   -2.009190
      6          7           0        4.974781   -2.446539   -1.586680
      7          6           0        5.034491   -2.359919   -0.208890
      8          6           0        5.835271   -3.048878    0.719170
      9          6           0        5.675571   -2.732138    2.060770
     10          6           0        4.737671   -1.754589    2.481190
     11          6           0        3.935300   -1.067809    1.578990
     12          6           0        4.105270   -1.388779    0.222160
     13          7           0        0.105830    0.495620   -0.991210
     14          6           0        0.360389    1.814460   -1.584960
     15          6           0        0.853459    2.881280   -0.628230
     16          6           0        1.343789    4.153780   -1.078820
     17          6           0        1.723098    4.976740   -0.052620
     18         16           0        1.494748    4.218440    1.492960
     19          6           0        0.879339    2.777170    0.741550
     20          6           0       -1.249670    0.149689   -0.670140
     21          6           0       -2.139300    1.141589   -0.227480
     22          6           0       -3.473150    0.833888    0.039590
     23          6           0       -3.967170   -0.471122   -0.116860
     24          6           0       -3.064239   -1.455711   -0.559850
     25          6           0       -1.732580   -1.160301   -0.832940
     26          6           0       -5.384340   -0.836282    0.161930
     27          6           0       -6.323360    0.088177    0.658980
     28          6           0       -7.632390   -0.325623    0.896180
     29          6           0       -7.982859   -1.651313    0.634810
     30          6           0       -6.986609   -2.500203    0.145210
     31          7           0       -5.729059   -2.116512   -0.086330
     32          1           0        2.555970    0.233971   -2.273470
     33          1           0        2.834190    1.010371   -0.696210
     34          1           0        6.550291   -3.800498    0.381370
     35          1           0        6.277541   -3.244848    2.813770
     36          1           0        4.639381   -1.541909    3.548070
     37          1           0        3.202350   -0.332909    1.912640
     38          1           0        1.077539    1.710910   -2.414090
     39          1           0       -0.578851    2.141869   -2.054390
     40          1           0        1.411118    4.439150   -2.130000
     41          1           0        2.129618    5.984300   -0.113030
     42          1           0        0.562799    1.935280    1.353830
     43          1           0       -1.793421    2.164249   -0.072820
     44          1           0       -4.123541    1.640508    0.379900
     45          1           0       -3.436419   -2.470792   -0.693590
     46          1           0       -1.063889   -1.949721   -1.166960
     47          1           0       -6.039940    1.120298    0.864210
     48          1           0       -8.369940    0.381607    1.282900
     49          1           0       -8.995659   -2.020624    0.805370
     50          1           0       -7.213219   -3.549553   -0.073090
 ---------------------------------------------------------------------
 Rotational constants (GHZ):      0.1859044      0.0665133      0.0544801
 Leave Link  202 at Sat Sep 10 08:44:58 2022, MaxMem=  209715200 cpu:       0.0
 (Enter /opt/gaussian/l301.exe)
 Standard basis: CC-pVDZ (5D, 7F)
 Ernie: Thresh=  0.10000D-02 Tol=  0.10000D-05 Strict=F.
 Ernie:  70 primitive shells out of 805 were deleted.
 There are   533 symmetry adapted basis functions of A   symmetry.
 Integral buffers will be    131072 words long.
 Raffenetti 2 integral format.
 Two-electron integral symmetry is turned on.
   533 basis functions,  1194 primitive gaussians,   564 cartesian basis functions
   111 alpha electrons      111 beta electrons
       nuclear repulsion energy      2880.2268429885 Hartrees.
 IExCor=  402 DFT=T Ex+Corr=B3LYP ExCW=0 ScaHFX=  0.200000
 ScaDFX=  0.800000  0.720000  1.000000  0.810000 ScalE2=  1.000000  1.000000
 IRadAn=      0 IRanWt=     -1 IRanGd=            0 ICorTp=0
 NAtoms=   50 NActive=   50 NUniq=   50 SFac= 1.00D+00 NAtFMM=   60 NAOKFM=F Big=F
 Leave Link  301 at Sat Sep 10 08:44:58 2022, MaxMem=  209715200 cpu:       0.3
 (Enter /opt/gaussian/l302.exe)
 NPDir=0 NMtPBC=     1 NCelOv=     1 NCel=       1 NClECP=     1 NCelD=      1
         NCelK=      1 NCelE2=     1 NClLst=     1 CellRange=     0.0.
 One-electron integrals computed using PRISM.
 NBasis=   533 RedAO= T  NBF=   533
 NBsUse=   533 1.00D-06 NBFU=   533
 Precomputing XC quadrature grid using
 IXCGrd= 2 IRadAn=           0 IRanWt=          -1 IRanGd=           0 AccXCQ= 0.00D+00.
 NRdTot=    3229 NPtTot=      412988 NUsed=      436254 NTot=      436286
 NSgBfM=   538   538   540   540   540 NAtAll=    50    50.
 Leave Link  302 at Sat Sep 10 08:44:59 2022, MaxMem=  209715200 cpu:       8.1
 (Enter /opt/gaussian/l303.exe)
 DipDrv:  MaxL=1.
 Leave Link  303 at Sat Sep 10 08:45:00 2022, MaxMem=  209715200 cpu:       1.1
 (Enter /opt/gaussian/l401.exe)
 Harris functional with IExCor=  402 diagonalized for initial guess.
 ExpMin= 1.22D-01 ExpMax= 1.11D+05 ExpMxC= 1.07D+03 IAcc=2 IRadAn=         4 AccDes= 0.00D+00
 HarFok:  IExCor=  402 AccDes= 0.00D+00 IRadAn=         4 IDoV= 1
 ScaDFX=  1.000000  1.000000  1.000000  1.000000
 FoFCou: FMM=F IPFlag=           0 FMFlag=      100000 FMFlg1=           0
         NFxFlg=           0 DoJE=T BraDBF=F KetDBF=T FulRan=T
         Omega=  0.000000  0.000000  1.000000  0.000000  0.000000 ICntrl=     500 IOpCl=  0
         NMat0=    1 NMatS0=    1 NMatT0=    0 NMatD0=    1 NMtDS0=    0 NMtDT0=    0
         I1Cent=           4 NGrid=           0.
 Petite list used in FoFCou.
 Harris En= -1673.00555710334    
 Initial guess orbital symmetries:
       Occupied  (A) (A) (A) (A) (A) (A) (A) (A) (A) (A) (A) (A)
                 (A) (A) (A) (A) (A) (A) (A) (A) (A) (A) (A) (A)
                 (A) (A) (A) (A) (A) (A) (A) (A) (A) (A) (A) (A)
                 (A) (A) (A) (A) (A) (A) (A) (A) (A) (A) (A) (A)
                 (A) (A) (A) (A) (A) (A) (A) (A) (A) (A) (A) (A)
                 (A) (A) (A) (A) (A) (A) (A) (A) (A) (A) (A) (A)
                 (A) (A) (A) (A) (A) (A) (A) (A) (A) (A) (A) (A)
                 (A) (A) (A) (A) (A) (A) (A) (A) (A) (A) (A) (A)
                 (A) (A) (A) (A) (A) (A) (A) (A) (A) (A) (A) (A)
                 (A) (A) (A)
       Virtual   (A) (A) (A) (A) (A) (A) (A) (A) (A) (A) (A) (A)
                 (A) (A) (A) (A) (A) (A) (A) (A) (A) (A) (A) (A)
                 (A) (A) (A) (A) (A) (A) (A) (A) (A) (A) (A) (A)
                 (A) (A) (A) (A) (A) (A) (A) (A) (A) (A) (A) (A)
                 (A) (A) (A) (A) (A) (A) (A) (A) (A) (A) (A) (A)
                 (A) (A) (A) (A) (A) (A) (A) (A) (A) (A) (A) (A)
                 (A) (A) (A) (A) (A) (A) (A) (A) (A) (A) (A) (A)
                 (A) (A) (A) (A) (A) (A) (A) (A) (A) (A) (A) (A)
                 (A) (A) (A) (A) (A) (A) (A) (A) (A) (A) (A) (A)
                 (A) (A) (A) (A) (A) (A) (A) (A) (A) (A) (A) (A)
                 (A) (A) (A) (A) (A) (A) (A) (A) (A) (A) (A) (A)
                 (A) (A) (A) (A) (A) (A) (A) (A) (A) (A) (A) (A)
                 (A) (A) (A) (A) (A) (A) (A) (A) (A) (A) (A) (A)
                 (A) (A) (A) (A) (A) (A) (A) (A) (A) (A) (A) (A)
                 (A) (A) (A) (A) (A) (A) (A) (A) (A) (A) (A) (A)
                 (A) (A) (A) (A) (A) (A) (A) (A) (A) (A) (A) (A)
                 (A) (A) (A) (A) (A) (A) (A) (A) (A) (A) (A) (A)
                 (A) (A) (A) (A) (A) (A) (A) (A) (A) (A) (A) (A)
                 (A) (A) (A) (A) (A) (A) (A) (A) (A) (A) (A) (A)
                 (A) (A) (A) (A) (A) (A) (A) (A) (A) (A) (A) (A)
                 (A) (A) (A) (A) (A) (A) (A) (A) (A) (A) (A) (A)
                 (A) (A) (A) (A) (A) (A) (A) (A) (A) (A) (A) (A)
                 (A) (A) (A) (A) (A) (A) (A) (A) (A) (A) (A) (A)
                 (A) (A) (A) (A) (A) (A) (A) (A) (A) (A) (A) (A)
                 (A) (A) (A) (A) (A) (A) (A) (A) (A) (A) (A) (A)
                 (A) (A) (A) (A) (A) (A) (A) (A) (A) (A) (A) (A)
                 (A) (A) (A) (A) (A) (A) (A) (A) (A) (A) (A) (A)
                 (A) (A) (A) (A) (A) (A) (A) (A) (A) (A) (A) (A)
                 (A) (A) (A) (A) (A) (A) (A) (A) (A) (A) (A) (A)
                 (A) (A) (A) (A) (A) (A) (A) (A) (A) (A) (A) (A)
                 (A) (A) (A) (A) (A) (A) (A) (A) (A) (A) (A) (A)
                 (A) (A) (A) (A) (A) (A) (A) (A) (A) (A) (A) (A)
                 (A) (A) (A) (A) (A) (A) (A) (A) (A) (A) (A) (A)
                 (A) (A) (A) (A) (A) (A) (A) (A) (A) (A) (A) (A)
                 (A) (A) (A) (A) (A) (A) (A) (A) (A) (A) (A) (A)
                 (A) (A)
 The electronic state of the initial guess is 1-A.
 Leave Link  401 at Sat Sep 10 08:45:03 2022, MaxMem=  209715200 cpu:      24.3
 (Enter /opt/gaussian/l502.exe)
 Closed shell SCF:
 Requested convergence on RMS density matrix=1.00D-08 within 128 cycles.
 Requested convergence on MAX density matrix=1.00D-06.
 Requested convergence on             energy=1.00D-06.
 No special actions if energy rises.
 Using DIIS extrapolation, IDIIS=  1040.
 Integral symmetry usage will be decided dynamically.
       435791 words used for storage of precomputed grid.
 IEnd=     1416999 IEndB=     1416999 NGot=   209715200 MDV=   208633502
 LenX=   208633502 LenY=   208314842
 Fock matrices will be formed incrementally for  20 cycles.
 Integral accuracy reduced to 1.0D-05 until final iterations.

 Cycle   1  Pass 0  IDiag  1:
 FoFCou: FMM=F IPFlag=           0 FMFlag=      100000 FMFlg1=           0
         NFxFlg=           0 DoJE=F BraDBF=F KetDBF=F FulRan=T
         Omega=  0.000000  0.000000  1.000000  0.000000  0.000000 ICntrl=       0 IOpCl=  0
         NMat0=    1 NMatS0=    1 NMatT0=    0 NMatD0=    1 NMtDS0=    0 NMtDT0=    0
         I1Cent=           0 NGrid=           0.
 Symmetry not used in FoFCou.
 E= -1672.57135680587    
 DIIS: error= 2.42D-02 at cycle   1 NSaved=   1.
 NSaved= 1 IEnMin= 1 EnMin= -1672.57135680587     IErMin= 1 ErrMin= 2.42D-02
 ErrMax= 2.42D-02 EMaxC= 1.00D-01 BMatC= 5.95D-01 BMatP= 5.95D-01
 IDIUse=3 WtCom= 7.58D-01 WtEn= 2.42D-01
 Coeff-Com:  0.100D+01
 Coeff-En:   0.100D+01
 Coeff:      0.100D+01
 Gap=     0.296 Goal=   None    Shift=    0.000
 GapD=    0.296 DampG=1.000 DampE=0.500 DampFc=0.5000 IDamp=-1.
 Damping current iteration by 5.00D-01
 RMSDP=4.17D-03 MaxDP=2.02D-01              OVMax= 2.90D-01

 Cycle   2  Pass 0  IDiag  1:
 RMSU=  1.45D-03    CP:  9.78D-01
 E= -1672.73492693217     Delta-E=       -0.163570126295 Rises=F Damp=T
 DIIS: error= 8.46D-03 at cycle   2 NSaved=   2.
 NSaved= 2 IEnMin= 2 EnMin= -1672.73492693217     IErMin= 2 ErrMin= 8.46D-03
 ErrMax= 8.46D-03 EMaxC= 1.00D-01 BMatC= 1.15D-01 BMatP= 5.95D-01
 IDIUse=3 WtCom= 9.15D-01 WtEn= 8.46D-02
 Coeff-Com:  0.243D+00 0.757D+00
 Coeff-En:   0.365D+00 0.635D+00
 Coeff:      0.253D+00 0.747D+00
 Gap=     0.259 Goal=   None    Shift=    0.000
 RMSDP=1.43D-03 MaxDP=6.54D-02 DE=-1.64D-01 OVMax= 3.12D-01

 Cycle   3  Pass 0  IDiag  1:
 RMSU=  9.49D-04    CP:  9.63D-01  7.96D-01
 E= -1673.14538574435     Delta-E=       -0.410458812176 Rises=F Damp=F
 DIIS: error= 9.43D-03 at cycle   3 NSaved=   3.
 NSaved= 3 IEnMin= 3 EnMin= -1673.14538574435     IErMin= 2 ErrMin= 8.46D-03
 ErrMax= 9.43D-03 EMaxC= 1.00D-01 BMatC= 8.97D-02 BMatP= 1.15D-01
 IDIUse=3 WtCom= 9.06D-01 WtEn= 9.43D-02
 Coeff-Com:  0.777D-01 0.460D+00 0.462D+00
 Coeff-En:   0.000D+00 0.000D+00 0.100D+01
 Coeff:      0.703D-01 0.417D+00 0.513D+00
 Gap=     0.173 Goal=   None    Shift=    0.000
 RMSDP=7.44D-04 MaxDP=5.59D-02 DE=-4.10D-01 OVMax= 8.15D-02

 Cycle   4  Pass 0  IDiag  1:
 RMSU=  3.98D-04    CP:  9.67D-01  8.63D-01  6.54D-01
 E= -1673.21069831283     Delta-E=       -0.065312568485 Rises=F Damp=F
 DIIS: error= 4.29D-03 at cycle   4 NSaved=   4.
 NSaved= 4 IEnMin= 4 EnMin= -1673.21069831283     IErMin= 4 ErrMin= 4.29D-03
 ErrMax= 4.29D-03 EMaxC= 1.00D-01 BMatC= 2.00D-02 BMatP= 8.97D-02
 IDIUse=3 WtCom= 9.57D-01 WtEn= 4.29D-02
 Coeff-Com:  0.186D-01 0.137D+00 0.332D+00 0.513D+00
 Coeff-En:   0.000D+00 0.000D+00 0.209D+00 0.791D+00
 Coeff:      0.178D-01 0.131D+00 0.326D+00 0.525D+00
 Gap=     0.168 Goal=   None    Shift=    0.000
 RMSDP=3.29D-04 MaxDP=1.96D-02 DE=-6.53D-02 OVMax= 4.02D-02

 Cycle   5  Pass 0  IDiag  1:
 RMSU=  1.46D-04    CP:  9.66D-01  8.41D-01  7.17D-01  5.78D-01
 E= -1673.22662729648     Delta-E=       -0.015928983652 Rises=F Damp=F
 DIIS: error= 1.86D-03 at cycle   5 NSaved=   5.
 NSaved= 5 IEnMin= 5 EnMin= -1673.22662729648     IErMin= 5 ErrMin= 1.86D-03
 ErrMax= 1.86D-03 EMaxC= 1.00D-01 BMatC= 2.17D-03 BMatP= 2.00D-02
 IDIUse=3 WtCom= 9.81D-01 WtEn= 1.86D-02
 Coeff-Com:  0.362D-02 0.260D-01 0.147D+00 0.339D+00 0.485D+00
 Coeff-En:   0.000D+00 0.000D+00 0.000D+00 0.956D-01 0.904D+00
 Coeff:      0.355D-02 0.255D-01 0.144D+00 0.334D+00 0.493D+00
 Gap=     0.168 Goal=   None    Shift=    0.000
 RMSDP=1.22D-04 MaxDP=7.05D-03 DE=-1.59D-02 OVMax= 1.74D-02

 Cycle   6  Pass 0  IDiag  1:
 RMSU=  3.80D-05    CP:  9.66D-01  8.41D-01  7.34D-01  6.57D-01  5.24D-01
 E= -1673.22885984831     Delta-E=       -0.002232551823 Rises=F Damp=F
 DIIS: error= 5.68D-04 at cycle   6 NSaved=   6.
 NSaved= 6 IEnMin= 6 EnMin= -1673.22885984831     IErMin= 6 ErrMin= 5.68D-04
 ErrMax= 5.68D-04 EMaxC= 1.00D-01 BMatC= 1.94D-04 BMatP= 2.17D-03
 IDIUse=3 WtCom= 9.94D-01 WtEn= 5.68D-03
 Coeff-Com:  0.289D-03-0.337D-02 0.434D-01 0.132D+00 0.290D+00 0.537D+00
 Coeff-En:   0.000D+00 0.000D+00 0.000D+00 0.000D+00 0.364D-01 0.964D+00
 Coeff:      0.287D-03-0.335D-02 0.431D-01 0.131D+00 0.289D+00 0.540D+00
 Gap=     0.168 Goal=   None    Shift=    0.000
 RMSDP=3.09D-05 MaxDP=2.40D-03 DE=-2.23D-03 OVMax= 4.02D-03

 Cycle   7  Pass 0  IDiag  1:
 RMSU=  1.41D-05    CP:  9.66D-01  8.42D-01  7.35D-01  6.53D-01  5.84D-01
                    CP:  6.34D-01
 E= -1673.22904978411     Delta-E=       -0.000189935799 Rises=F Damp=F
 DIIS: error= 1.63D-04 at cycle   7 NSaved=   7.
 NSaved= 7 IEnMin= 7 EnMin= -1673.22904978411     IErMin= 7 ErrMin= 1.63D-04
 ErrMax= 1.63D-04 EMaxC= 1.00D-01 BMatC= 1.94D-05 BMatP= 1.94D-04
 IDIUse=3 WtCom= 9.98D-01 WtEn= 1.63D-03
 Coeff-Com:  0.609D-04-0.418D-02 0.117D-01 0.434D-01 0.118D+00 0.312D+00
 Coeff-Com:  0.519D+00
 Coeff-En:   0.000D+00 0.000D+00 0.000D+00 0.000D+00 0.000D+00 0.327D-01
 Coeff-En:   0.967D+00
 Coeff:      0.608D-04-0.417D-02 0.117D-01 0.434D-01 0.118D+00 0.311D+00
 Coeff:      0.520D+00
 Gap=     0.168 Goal=   None    Shift=    0.000
 RMSDP=9.74D-06 MaxDP=7.35D-04 DE=-1.90D-04 OVMax= 1.12D-03

 Initial convergence to 1.0D-05 achieved.  Increase integral accuracy.
 Cycle   8  Pass 1  IDiag  1:
 E= -1673.22903874539     Delta-E=        0.000011038715 Rises=F Damp=F
 DIIS: error= 1.77D-04 at cycle   1 NSaved=   1.
 NSaved= 1 IEnMin= 1 EnMin= -1673.22903874539     IErMin= 1 ErrMin= 1.77D-04
 ErrMax= 1.77D-04 EMaxC= 1.00D-01 BMatC= 1.16D-05 BMatP= 1.16D-05
 IDIUse=3 WtCom= 9.98D-01 WtEn= 1.77D-03
 Coeff-Com:  0.100D+01
 Coeff-En:   0.100D+01
 Coeff:      0.100D+01
 Gap=     0.168 Goal=   None    Shift=    0.000
 RMSDP=9.74D-06 MaxDP=7.35D-04 DE= 1.10D-05 OVMax= 9.66D-04

 Cycle   9  Pass 1  IDiag  1:
 RMSU=  8.85D-05    CP:  1.00D+00
 E= -1673.22904325817     Delta-E=       -0.000004512784 Rises=F Damp=F
 DIIS: error= 1.01D-04 at cycle   2 NSaved=   2.
 NSaved= 2 IEnMin= 2 EnMin= -1673.22904325817     IErMin= 2 ErrMin= 1.01D-04
 ErrMax= 1.01D-04 EMaxC= 1.00D-01 BMatC= 6.38D-06 BMatP= 1.16D-05
 IDIUse=3 WtCom= 9.99D-01 WtEn= 1.01D-03
 Coeff-Com:  0.390D+00 0.610D+00
 Coeff-En:   0.273D+00 0.727D+00
 Coeff:      0.390D+00 0.610D+00
 Gap=     0.168 Goal=   None    Shift=    0.000
 RMSDP=9.79D-06 MaxDP=4.51D-04 DE=-4.51D-06 OVMax= 1.16D-03

 Cycle  10  Pass 1  IDiag  1:
 RMSU=  6.91D-06    CP:  1.00D+00  1.00D+00
 E= -1673.22904332643     Delta-E=       -0.000000068252 Rises=F Damp=F
 DIIS: error= 1.05D-04 at cycle   3 NSaved=   3.
 NSaved= 3 IEnMin= 3 EnMin= -1673.22904332643     IErMin= 2 ErrMin= 1.01D-04
 ErrMax= 1.05D-04 EMaxC= 1.00D-01 BMatC= 6.24D-06 BMatP= 6.38D-06
 IDIUse=3 WtCom= 9.99D-01 WtEn= 1.05D-03
 Coeff-Com:  0.325D-02 0.496D+00 0.500D+00
 Coeff-En:   0.000D+00 0.498D+00 0.502D+00
 Coeff:      0.324D-02 0.496D+00 0.500D+00
 Gap=     0.168 Goal=   None    Shift=    0.000
 RMSDP=5.23D-06 MaxDP=2.48D-04 DE=-6.83D-08 OVMax= 6.53D-04

 Cycle  11  Pass 1  IDiag  1:
 RMSU=  7.88D-07    CP:  1.00D+00  1.01D+00  4.87D-01
 E= -1673.22905006891     Delta-E=       -0.000006742481 Rises=F Damp=F
 DIIS: error= 1.21D-05 at cycle   4 NSaved=   4.
 NSaved= 4 IEnMin= 4 EnMin= -1673.22905006891     IErMin= 4 ErrMin= 1.21D-05
 ErrMax= 1.21D-05 EMaxC= 1.00D-01 BMatC= 1.26D-07 BMatP= 6.24D-06
 IDIUse=1 WtCom= 1.00D+00 WtEn= 0.00D+00
 Coeff-Com: -0.345D-02 0.314D+00 0.326D+00 0.363D+00
 Coeff:     -0.345D-02 0.314D+00 0.326D+00 0.363D+00
 Gap=     0.168 Goal=   None    Shift=    0.000
 RMSDP=7.34D-07 MaxDP=4.81D-05 DE=-6.74D-06 OVMax= 7.60D-05

 Cycle  12  Pass 1  IDiag  1:
 RMSU=  2.20D-07    CP:  1.00D+00  1.01D+00  5.02D-01  4.19D-01
 E= -1673.22905019038     Delta-E=       -0.000000121474 Rises=F Damp=F
 DIIS: error= 1.88D-06 at cycle   5 NSaved=   5.
 NSaved= 5 IEnMin= 5 EnMin= -1673.22905019038     IErMin= 5 ErrMin= 1.88D-06
 ErrMax= 1.88D-06 EMaxC= 1.00D-01 BMatC= 4.25D-09 BMatP= 1.26D-07
 IDIUse=1 WtCom= 1.00D+00 WtEn= 0.00D+00
 Coeff-Com: -0.230D-02 0.170D+00 0.177D+00 0.226D+00 0.429D+00
 Coeff:     -0.230D-02 0.170D+00 0.177D+00 0.226D+00 0.429D+00
 Gap=     0.168 Goal=   None    Shift=    0.000
 RMSDP=1.50D-07 MaxDP=9.86D-06 DE=-1.21D-07 OVMax= 1.51D-05

 Cycle  13  Pass 1  IDiag  1:
 RMSU=  7.85D-08    CP:  1.00D+00  1.01D+00  5.04D-01  4.40D-01  6.89D-01
 E= -1673.22905019427     Delta-E=       -0.000000003893 Rises=F Damp=F
 DIIS: error= 4.36D-07 at cycle   6 NSaved=   6.
 NSaved= 6 IEnMin= 6 EnMin= -1673.22905019427     IErMin= 6 ErrMin= 4.36D-07
 ErrMax= 4.36D-07 EMaxC= 1.00D-01 BMatC= 2.88D-10 BMatP= 4.25D-09
 IDIUse=1 WtCom= 1.00D+00 WtEn= 0.00D+00
 Coeff-Com: -0.937D-03 0.633D-01 0.657D-01 0.899D-01 0.248D+00 0.534D+00
 Coeff:     -0.937D-03 0.633D-01 0.657D-01 0.899D-01 0.248D+00 0.534D+00
 Gap=     0.168 Goal=   None    Shift=    0.000
 RMSDP=4.03D-08 MaxDP=2.87D-06 DE=-3.89D-09 OVMax= 4.64D-06

 Cycle  14  Pass 1  IDiag  1:
 RMSU=  2.23D-08    CP:  1.00D+00  1.01D+00  5.03D-01  4.47D-01  7.19D-01
                    CP:  8.14D-01
 E= -1673.22905019446     Delta-E=       -0.000000000186 Rises=F Damp=F
 DIIS: error= 1.58D-07 at cycle   7 NSaved=   7.
 NSaved= 7 IEnMin= 7 EnMin= -1673.22905019446     IErMin= 7 ErrMin= 1.58D-07
 ErrMax= 1.58D-07 EMaxC= 1.00D-01 BMatC= 3.33D-11 BMatP= 2.88D-10
 IDIUse=1 WtCom= 1.00D+00 WtEn= 0.00D+00
 Coeff-Com: -0.241D-03 0.142D-01 0.146D-01 0.221D-01 0.863D-01 0.302D+00
 Coeff-Com:  0.561D+00
 Coeff:     -0.241D-03 0.142D-01 0.146D-01 0.221D-01 0.863D-01 0.302D+00
 Coeff:      0.561D+00
 Gap=     0.168 Goal=   None    Shift=    0.000
 RMSDP=1.47D-08 MaxDP=7.86D-07 DE=-1.86D-10 OVMax= 1.96D-06

 Cycle  15  Pass 1  IDiag  1:
 RMSU=  7.37D-09    CP:  1.00D+00  1.01D+00  5.03D-01  4.46D-01  7.32D-01
                    CP:  8.41D-01  7.13D-01
 E= -1673.22905019452     Delta-E=       -0.000000000055 Rises=F Damp=F
 DIIS: error= 7.21D-08 at cycle   8 NSaved=   8.
 NSaved= 8 IEnMin= 8 EnMin= -1673.22905019452     IErMin= 8 ErrMin= 7.21D-08
 ErrMax= 7.21D-08 EMaxC= 1.00D-01 BMatC= 5.45D-12 BMatP= 3.33D-11
 IDIUse=1 WtCom= 1.00D+00 WtEn= 0.00D+00
 Coeff-Com:  0.336D-04-0.344D-02-0.369D-02-0.374D-02 0.512D-02 0.823D-01
 Coeff-Com:  0.330D+00 0.593D+00
 Coeff:      0.336D-04-0.344D-02-0.369D-02-0.374D-02 0.512D-02 0.823D-01
 Coeff:      0.330D+00 0.593D+00
 Gap=     0.168 Goal=   None    Shift=    0.000
 RMSDP=5.80D-09 MaxDP=3.09D-07 DE=-5.55D-11 OVMax= 8.00D-07

 SCF Done:  E(RB3LYP) =  -1673.22905019     A.U. after   15 cycles
             Convg  =    0.5796D-08             -V/T =  2.0057
 KE= 1.663774934562D+03 PE=-9.669063690486D+03 EE= 3.451832862741D+03
 Leave Link  502 at Sat Sep 10 08:57:21 2022, MaxMem=  209715200 cpu:    5462.0
 (Enter /opt/gaussian/l601.exe)
 Copying SCF densities to generalized density rwf, IOpCl= 0 IROHF=0.

 **********************************************************************

            Population analysis using the SCF density.

 **********************************************************************

 Orbital symmetries:
       Occupied  (A) (A) (A) (A) (A) (A) (A) (A) (A) (A) (A) (A)
                 (A) (A) (A) (A) (A) (A) (A) (A) (A) (A) (A) (A)
                 (A) (A) (A) (A) (A) (A) (A) (A) (A) (A) (A) (A)
                 (A) (A) (A) (A) (A) (A) (A) (A) (A) (A) (A) (A)
                 (A) (A) (A) (A) (A) (A) (A) (A) (A) (A) (A) (A)
                 (A) (A) (A) (A) (A) (A) (A) (A) (A) (A) (A) (A)
                 (A) (A) (A) (A) (A) (A) (A) (A) (A) (A) (A) (A)
                 (A) (A) (A) (A) (A) (A) (A) (A) (A) (A) (A) (A)
                 (A) (A) (A) (A) (A) (A) (A) (A) (A) (A) (A) (A)
                 (A) (A) (A)
       Virtual   (A) (A) (A) (A) (A) (A) (A) (A) (A) (A) (A) (A)
                 (A) (A) (A) (A) (A) (A) (A) (A) (A) (A) (A) (A)
                 (A) (A) (A) (A) (A) (A) (A) (A) (A) (A) (A) (A)
                 (A) (A) (A) (A) (A) (A) (A) (A) (A) (A) (A) (A)
                 (A) (A) (A) (A) (A) (A) (A) (A) (A) (A) (A) (A)
                 (A) (A) (A) (A) (A) (A) (A) (A) (A) (A) (A) (A)
                 (A) (A) (A) (A) (A) (A) (A) (A) (A) (A) (A) (A)
                 (A) (A) (A) (A) (A) (A) (A) (A) (A) (A) (A) (A)
                 (A) (A) (A) (A) (A) (A) (A) (A) (A) (A) (A) (A)
                 (A) (A) (A) (A) (A) (A) (A) (A) (A) (A) (A) (A)
                 (A) (A) (A) (A) (A) (A) (A) (A) (A) (A) (A) (A)
                 (A) (A) (A) (A) (A) (A) (A) (A) (A) (A) (A) (A)
                 (A) (A) (A) (A) (A) (A) (A) (A) (A) (A) (A) (A)
                 (A) (A) (A) (A) (A) (A) (A) (A) (A) (A) (A) (A)
                 (A) (A) (A) (A) (A) (A) (A) (A) (A) (A) (A) (A)
                 (A) (A) (A) (A) (A) (A) (A) (A) (A) (A) (A) (A)
                 (A) (A) (A) (A) (A) (A) (A) (A) (A) (A) (A) (A)
                 (A) (A) (A) (A) (A) (A) (A) (A) (A) (A) (A) (A)
                 (A) (A) (A) (A) (A) (A) (A) (A) (A) (A) (A) (A)
                 (A) (A) (A) (A) (A) (A) (A) (A) (A) (A) (A) (A)
                 (A) (A) (A) (A) (A) (A) (A) (A) (A) (A) (A) (A)
                 (A) (A) (A) (A) (A) (A) (A) (A) (A) (A) (A) (A)
                 (A) (A) (A) (A) (A) (A) (A) (A) (A) (A) (A) (A)
                 (A) (A) (A) (A) (A) (A) (A) (A) (A) (A) (A) (A)
                 (A) (A) (A) (A) (A) (A) (A) (A) (A) (A) (A) (A)
                 (A) (A) (A) (A) (A) (A) (A) (A) (A) (A) (A) (A)
                 (A) (A) (A) (A) (A) (A) (A) (A) (A) (A) (A) (A)
                 (A) (A) (A) (A) (A) (A) (A) (A) (A) (A) (A) (A)
                 (A) (A) (A) (A) (A) (A) (A) (A) (A) (A) (A) (A)
                 (A) (A) (A) (A) (A) (A) (A) (A) (A) (A) (A) (A)
                 (A) (A) (A) (A) (A) (A) (A) (A) (A) (A) (A) (A)
                 (A) (A) (A) (A) (A) (A) (A) (A) (A) (A) (A) (A)
                 (A) (A) (A) (A) (A) (A) (A) (A) (A) (A) (A) (A)
                 (A) (A) (A) (A) (A) (A) (A) (A) (A) (A) (A) (A)
                 (A) (A) (A) (A) (A) (A) (A) (A) (A) (A) (A) (A)
                 (A) (A)
 The electronic state is 1-A.
 Alpha  occ. eigenvalues --  -88.92466 -19.12716 -14.40937 -14.38834 -14.38760
 Alpha  occ. eigenvalues --  -14.34542 -14.32845 -10.30825 -10.25919 -10.25624
 Alpha  occ. eigenvalues --  -10.24276 -10.23716 -10.23319 -10.23054 -10.22938
 Alpha  occ. eigenvalues --  -10.22780 -10.22158 -10.21391 -10.21268 -10.20863
 Alpha  occ. eigenvalues --  -10.20389 -10.20258 -10.20193 -10.20183 -10.20131
 Alpha  occ. eigenvalues --  -10.20071 -10.19827 -10.19656 -10.19326 -10.19250
 Alpha  occ. eigenvalues --  -10.19030  -7.98670  -5.94994  -5.94614  -5.94306
 Alpha  occ. eigenvalues --   -1.09205  -1.05930  -0.96698  -0.94852  -0.92272
 Alpha  occ. eigenvalues --   -0.89883  -0.86261  -0.86137  -0.80938  -0.79769
 Alpha  occ. eigenvalues --   -0.78340  -0.77526  -0.76699  -0.75492  -0.74798
 Alpha  occ. eigenvalues --   -0.74582  -0.73084  -0.70322  -0.66075  -0.64669
 Alpha  occ. eigenvalues --   -0.64209  -0.62276  -0.61860  -0.60837  -0.59098
 Alpha  occ. eigenvalues --   -0.58558  -0.56932  -0.56049  -0.54063  -0.53360
 Alpha  occ. eigenvalues --   -0.52647  -0.52277  -0.51564  -0.50693  -0.49357
 Alpha  occ. eigenvalues --   -0.48552  -0.47513  -0.46461  -0.46152  -0.45278
 Alpha  occ. eigenvalues --   -0.45149  -0.44914  -0.44337  -0.44119  -0.43258
 Alpha  occ. eigenvalues --   -0.43052  -0.42433  -0.42226  -0.41381  -0.41196
 Alpha  occ. eigenvalues --   -0.40816  -0.40299  -0.39382  -0.38902  -0.38244
 Alpha  occ. eigenvalues --   -0.37498  -0.37168  -0.36501  -0.36313  -0.36153
 Alpha  occ. eigenvalues --   -0.35374  -0.35030  -0.32831  -0.31244  -0.30922
 Alpha  occ. eigenvalues --   -0.29206  -0.27585  -0.27271  -0.26715  -0.26395
 Alpha  occ. eigenvalues --   -0.26002  -0.25838  -0.25580  -0.24716  -0.23268
 Alpha  occ. eigenvalues --   -0.22302
 Alpha virt. eigenvalues --   -0.05512  -0.03978  -0.03498  -0.03175  -0.00979
 Alpha virt. eigenvalues --   -0.00268   0.00950   0.01672   0.02352   0.03101
 Alpha virt. eigenvalues --    0.03798   0.04920   0.05388   0.06280   0.06847
 Alpha virt. eigenvalues --    0.07222   0.07639   0.08797   0.09039   0.09341
 Alpha virt. eigenvalues --    0.10378   0.10974   0.11279   0.11336   0.12024
 Alpha virt. eigenvalues --    0.12358   0.13399   0.13540   0.13935   0.15288
 Alpha virt. eigenvalues --    0.15607   0.16220   0.16402   0.18016   0.18382
 Alpha virt. eigenvalues --    0.19128   0.19931   0.20851   0.21380   0.23191
 Alpha virt. eigenvalues --    0.23380   0.24287   0.24408   0.24765   0.25547
 Alpha virt. eigenvalues --    0.26537   0.26997   0.28006   0.28324   0.29570
 Alpha virt. eigenvalues --    0.29729   0.30341   0.31040   0.31648   0.33197
 Alpha virt. eigenvalues --    0.33654   0.35166   0.35625   0.36538   0.37495
 Alpha virt. eigenvalues --    0.37869   0.39913   0.40532   0.40749   0.41249
 Alpha virt. eigenvalues --    0.42111   0.43262   0.43617   0.44130   0.44224
 Alpha virt. eigenvalues --    0.44405   0.45229   0.45788   0.45952   0.46302
 Alpha virt. eigenvalues --    0.46469   0.46642   0.46784   0.47065   0.47135
 Alpha virt. eigenvalues --    0.47265   0.47679   0.48128   0.48643   0.49163
 Alpha virt. eigenvalues --    0.49609   0.49710   0.49924   0.50273   0.50597
 Alpha virt. eigenvalues --    0.50918   0.51317   0.51536   0.51714   0.52103
 Alpha virt. eigenvalues --    0.52345   0.52645   0.53089   0.53695   0.53878
 Alpha virt. eigenvalues --    0.54415   0.54961   0.55212   0.55470   0.55698
 Alpha virt. eigenvalues --    0.56389   0.57222   0.57888   0.58184   0.58559
 Alpha virt. eigenvalues --    0.59198   0.59614   0.59870   0.60378   0.61002
 Alpha virt. eigenvalues --    0.61108   0.61444   0.61954   0.63015   0.63192
 Alpha virt. eigenvalues --    0.64037   0.64608   0.64981   0.65058   0.65521
 Alpha virt. eigenvalues --    0.65903   0.66512   0.66687   0.66870   0.67529
 Alpha virt. eigenvalues --    0.67693   0.68326   0.68946   0.69207   0.69423
 Alpha virt. eigenvalues --    0.70068   0.71093   0.71637   0.72493   0.73318
 Alpha virt. eigenvalues --    0.73623   0.74229   0.74526   0.75213   0.75816
 Alpha virt. eigenvalues --    0.77069   0.77855   0.78405   0.79506   0.80615
 Alpha virt. eigenvalues --    0.81606   0.82570   0.83229   0.84081   0.84534
 Alpha virt. eigenvalues --    0.85384   0.86078   0.86827   0.87180   0.87576
 Alpha virt. eigenvalues --    0.87855   0.88748   0.88875   0.89573   0.90007
 Alpha virt. eigenvalues --    0.90856   0.91014   0.91872   0.92141   0.93205
 Alpha virt. eigenvalues --    0.93455   0.93689   0.94257   0.94887   0.94943
 Alpha virt. eigenvalues --    0.95679   0.96552   0.97011   0.97047   0.98481
 Alpha virt. eigenvalues --    0.98923   0.99491   0.99900   1.00381   1.00923
 Alpha virt. eigenvalues --    1.01136   1.01272   1.01808   1.02141   1.02755
 Alpha virt. eigenvalues --    1.04029   1.04090   1.04396   1.04916   1.05203
 Alpha virt. eigenvalues --    1.06281   1.07018   1.07358   1.08234   1.08930
 Alpha virt. eigenvalues --    1.09401   1.10400   1.10740   1.11002   1.12018
 Alpha virt. eigenvalues --    1.12236   1.13795   1.16018   1.16923   1.17666
 Alpha virt. eigenvalues --    1.18168   1.18764   1.19446   1.19997   1.21619
 Alpha virt. eigenvalues --    1.23237   1.23711   1.23998   1.24200   1.26503
 Alpha virt. eigenvalues --    1.27424   1.28880   1.30174   1.30786   1.31215
 Alpha virt. eigenvalues --    1.33248   1.34095   1.34342   1.35429   1.35636
 Alpha virt. eigenvalues --    1.36933   1.38403   1.38738   1.39201   1.40910
 Alpha virt. eigenvalues --    1.42249   1.43638   1.43846   1.45471   1.46294
 Alpha virt. eigenvalues --    1.47024   1.47857   1.48412   1.48614   1.48987
 Alpha virt. eigenvalues --    1.49708   1.49945   1.50613   1.50765   1.51529
 Alpha virt. eigenvalues --    1.52300   1.52384   1.53824   1.55078   1.55682
 Alpha virt. eigenvalues --    1.55949   1.56907   1.57180   1.58098   1.58524
 Alpha virt. eigenvalues --    1.58720   1.59029   1.59349   1.60096   1.60508
 Alpha virt. eigenvalues --    1.61047   1.61908   1.62118   1.63316   1.63679
 Alpha virt. eigenvalues --    1.63802   1.64316   1.65061   1.65199   1.65414
 Alpha virt. eigenvalues --    1.65924   1.66385   1.67052   1.67454   1.68002
 Alpha virt. eigenvalues --    1.68410   1.68893   1.69248   1.70002   1.70175
 Alpha virt. eigenvalues --    1.70624   1.71447   1.72421   1.72629   1.73357
 Alpha virt. eigenvalues --    1.74208   1.74993   1.75342   1.76259   1.77082
 Alpha virt. eigenvalues --    1.77594   1.78129   1.78509   1.78939   1.79526
 Alpha virt. eigenvalues --    1.79901   1.80531   1.81473   1.81906   1.82382
 Alpha virt. eigenvalues --    1.83224   1.83565   1.84444   1.84636   1.84818
 Alpha virt. eigenvalues --    1.85266   1.85725   1.87054   1.87222   1.87382
 Alpha virt. eigenvalues --    1.88858   1.89543   1.90062   1.91063   1.91529
 Alpha virt. eigenvalues --    1.91906   1.92451   1.93940   1.94340   1.95093
 Alpha virt. eigenvalues --    1.95748   1.96675   1.97513   1.97912   1.98424
 Alpha virt. eigenvalues --    1.98429   1.99104   1.99821   2.00399   2.00938
 Alpha virt. eigenvalues --    2.02489   2.03352   2.03843   2.04643   2.05099
 Alpha virt. eigenvalues --    2.05874   2.06492   2.07631   2.08441   2.10061
 Alpha virt. eigenvalues --    2.10950   2.12616   2.12898   2.14679   2.15199
 Alpha virt. eigenvalues --    2.16035   2.17470   2.18674   2.20211   2.21441
 Alpha virt. eigenvalues --    2.22060   2.24349   2.25080   2.27361   2.28663
 Alpha virt. eigenvalues --    2.29431   2.32122   2.33103   2.33827   2.34401
 Alpha virt. eigenvalues --    2.35659   2.36928   2.37500   2.38015   2.39647
 Alpha virt. eigenvalues --    2.40077   2.41312   2.43001   2.43175   2.44003
 Alpha virt. eigenvalues --    2.45291   2.45793   2.45992   2.46875   2.47525
 Alpha virt. eigenvalues --    2.48193   2.49295   2.49950   2.52008   2.53081
 Alpha virt. eigenvalues --    2.56462   2.58639   2.59535   2.61244   2.62095
 Alpha virt. eigenvalues --    2.63138   2.64247   2.66159   2.68362   2.68978
 Alpha virt. eigenvalues --    2.70308   2.70394   2.70934   2.72023   2.73832
 Alpha virt. eigenvalues --    2.76410   2.77889   2.79643   2.80255   2.82509
 Alpha virt. eigenvalues --    2.85887   2.88029   2.90093   2.93069   2.93626
 Alpha virt. eigenvalues --    2.96259   2.98197   3.03598   3.07094   3.08870
 Alpha virt. eigenvalues --    3.10237   3.14866   3.40324   3.43271   3.49257
 Alpha virt. eigenvalues --    3.53906   3.57302
          Condensed to atoms (all electrons):
              1          2          3          4          5          6
     1  O    7.609513   0.761245  -0.089480  -0.003436  -0.000008   0.000012
     2  C    0.761245   4.636318   0.285941  -0.041257  -0.000555  -0.000322
     3  C   -0.089480   0.285941   4.798111   0.366659  -0.048848   0.006671
     4  N   -0.003436  -0.041257   0.366659   6.506393   0.292387  -0.113331
     5  N   -0.000008  -0.000555  -0.048848   0.292387   6.547542   0.459913
     6  N    0.000012  -0.000322   0.006671  -0.113331   0.459913   6.430245
     7  C   -0.000951  -0.000953   0.010582  -0.004857  -0.125979   0.508923
     8  C   -0.000021   0.000021  -0.000453   0.007291   0.000542  -0.050814
     9  C    0.000014  -0.000002   0.000040   0.000506   0.000119   0.004325
    10  C    0.000012   0.000068  -0.000350   0.002502  -0.000121  -0.000693
    11  C    0.004274   0.002052  -0.005689  -0.059705   0.003346   0.011625
    12  C    0.010136   0.001808  -0.075911   0.322269  -0.091319  -0.072717
    13  N   -0.068068   0.370478  -0.074048   0.001559  -0.000022   0.000000
    14  C    0.002662  -0.053218   0.007163   0.000116   0.000028   0.000000
    15  C   -0.000101  -0.000399  -0.008303   0.000068   0.000000   0.000000
    16  C   -0.000003  -0.000085  -0.000502  -0.000001   0.000000   0.000000
    17  C    0.000000  -0.000002   0.000062   0.000000   0.000000   0.000000
    18  S    0.000000  -0.000102   0.000103   0.000000   0.000000   0.000000
    19  C   -0.000240   0.000397  -0.003302  -0.000008  -0.000001   0.000000
    20  C   -0.008324  -0.054078   0.006847  -0.000007   0.000001   0.000000
    21  C   -0.000446   0.003565  -0.000662   0.000002   0.000000   0.000000
    22  C    0.000031   0.000319   0.000004   0.000000   0.000000   0.000000
    23  C   -0.000020  -0.000053   0.000000   0.000000   0.000000   0.000000
    24  C    0.000022   0.000166   0.000001   0.000000   0.000000   0.000000
    25  C    0.001556  -0.012888   0.000499  -0.000021  -0.000001   0.000000
    26  C    0.000000   0.000001   0.000000   0.000000   0.000000   0.000000
    27  C    0.000000   0.000000   0.000000   0.000000   0.000000   0.000000
    28  C    0.000000   0.000000   0.000000   0.000000   0.000000   0.000000
    29  C    0.000000   0.000000   0.000000   0.000000   0.000000   0.000000
    30  C    0.000000   0.000000   0.000000   0.000000   0.000000   0.000000
    31  N    0.000000   0.000000   0.000000   0.000000   0.000000   0.000000
    32  H    0.000955  -0.006314   0.335412  -0.022299   0.023352   0.000157
    33  H    0.001021  -0.015853   0.352737  -0.021021   0.001927  -0.000349
    34  H    0.000000   0.000000   0.000003  -0.000010  -0.000556  -0.000939
    35  H    0.000000   0.000000  -0.000001   0.000003   0.000008  -0.000096
    36  H   -0.000003   0.000000  -0.000014  -0.000134   0.000005  -0.000008
    37  H    0.002574   0.000254   0.001838  -0.006259  -0.000274  -0.000234
    38  H    0.000286  -0.015511   0.013705   0.000462  -0.000214   0.000002
    39  H   -0.000168   0.005953  -0.000884  -0.000010   0.000000   0.000000
    40  H    0.000000  -0.000021  -0.000026   0.000000   0.000000   0.000000
    41  H    0.000000   0.000000   0.000000   0.000000   0.000000   0.000000
    42  H    0.000206   0.002436  -0.000250   0.000005   0.000000   0.000000
    43  H   -0.000009  -0.001003  -0.000017   0.000000   0.000000   0.000000
    44  H    0.000000   0.000005   0.000000   0.000000   0.000000   0.000000
    45  H   -0.000014  -0.000005   0.000000   0.000000   0.000000   0.000000
    46  H    0.012896   0.000243   0.000196  -0.000006   0.000001   0.000000
    47  H    0.000000   0.000000   0.000000   0.000000   0.000000   0.000000
    48  H    0.000000   0.000000   0.000000   0.000000   0.000000   0.000000
    49  H    0.000000   0.000000   0.000000   0.000000   0.000000   0.000000
    50  H    0.000000   0.000000   0.000000   0.000000   0.000000   0.000000
              7          8          9         10         11         12
     1  O   -0.000951  -0.000021   0.000014   0.000012   0.004274   0.010136
     2  C   -0.000953   0.000021  -0.000002   0.000068   0.002052   0.001808
     3  C    0.010582  -0.000453   0.000040  -0.000350  -0.005689  -0.075911
     4  N   -0.004857   0.007291   0.000506   0.002502  -0.059705   0.322269
     5  N   -0.125979   0.000542   0.000119  -0.000121   0.003346  -0.091319
     6  N    0.508923  -0.050814   0.004325  -0.000693   0.011625  -0.072717
     7  C    4.981252   0.427491   0.028634  -0.078437  -0.016153   0.280952
     8  C    0.427491   4.778787   0.497434   0.014006  -0.072202   0.013874
     9  C    0.028634   0.497434   4.760033   0.464149   0.007181  -0.089469
    10  C   -0.078437   0.014006   0.464149   4.718362   0.513078   0.027636
    11  C   -0.016153  -0.072202   0.007181   0.513078   4.856431   0.392600
    12  C    0.280952   0.013874  -0.089469   0.027636   0.392600   5.061207
    13  N   -0.000010   0.000000   0.000000  -0.000001  -0.000029   0.000434
    14  C    0.000001   0.000000   0.000000   0.000000   0.000000   0.000012
    15  C    0.000000   0.000000   0.000000   0.000000  -0.000006  -0.000025
    16  C    0.000000   0.000000   0.000000   0.000000   0.000000   0.000000
    17  C    0.000000   0.000000   0.000000   0.000000   0.000001   0.000000
    18  S    0.000000   0.000000   0.000000   0.000000  -0.000023  -0.000001
    19  C   -0.000001   0.000000   0.000000   0.000002  -0.000153  -0.000047
    20  C    0.000000   0.000000   0.000000   0.000000  -0.000001   0.000001
    21  C    0.000000   0.000000   0.000000   0.000000   0.000000   0.000001
    22  C    0.000000   0.000000   0.000000   0.000000   0.000000   0.000000
    23  C    0.000000   0.000000   0.000000   0.000000   0.000000   0.000000
    24  C    0.000000   0.000000   0.000000   0.000000   0.000000   0.000000
    25  C    0.000000   0.000000   0.000000   0.000000   0.000000  -0.000004
    26  C    0.000000   0.000000   0.000000   0.000000   0.000000   0.000000
    27  C    0.000000   0.000000   0.000000   0.000000   0.000000   0.000000
    28  C    0.000000   0.000000   0.000000   0.000000   0.000000   0.000000
    29  C    0.000000   0.000000   0.000000   0.000000   0.000000   0.000000
    30  C    0.000000   0.000000   0.000000   0.000000   0.000000   0.000000
    31  N    0.000000   0.000000   0.000000   0.000000   0.000000   0.000000
    32  H   -0.000685  -0.000021   0.000003   0.000016   0.000332   0.010693
    33  H    0.000851   0.000026  -0.000018   0.000025   0.001713  -0.001274
    34  H   -0.041160   0.376973  -0.058687   0.010139  -0.001365   0.015976
    35  H    0.010788  -0.048360   0.389406  -0.051194   0.011393  -0.000934
    36  H   -0.000743   0.010989  -0.050222   0.386150  -0.047004   0.010790
    37  H    0.009560  -0.000021   0.008727  -0.044629   0.365888  -0.029887
    38  H   -0.000002   0.000000   0.000000   0.000000   0.000000  -0.000013
    39  H    0.000000   0.000000   0.000000   0.000000   0.000000   0.000001
    40  H    0.000000   0.000000   0.000000   0.000000   0.000000   0.000000
    41  H    0.000000   0.000000   0.000000   0.000000   0.000000   0.000000
    42  H    0.000000   0.000000   0.000000   0.000000  -0.000029  -0.000006
    43  H    0.000000   0.000000   0.000000   0.000000   0.000000   0.000000
    44  H    0.000000   0.000000   0.000000   0.000000   0.000000   0.000000
    45  H    0.000000   0.000000   0.000000   0.000000   0.000000   0.000000
    46  H   -0.000001   0.000000   0.000000   0.000000   0.000000   0.000020
    47  H    0.000000   0.000000   0.000000   0.000000   0.000000   0.000000
    48  H    0.000000   0.000000   0.000000   0.000000   0.000000   0.000000
    49  H    0.000000   0.000000   0.000000   0.000000   0.000000   0.000000
    50  H    0.000000   0.000000   0.000000   0.000000   0.000000   0.000000
             13         14         15         16         17         18
     1  O   -0.068068   0.002662  -0.000101  -0.000003   0.000000   0.000000
     2  C    0.370478  -0.053218  -0.000399  -0.000085  -0.000002  -0.000102
     3  C   -0.074048   0.007163  -0.008303  -0.000502   0.000062   0.000103
     4  N    0.001559   0.000116   0.000068  -0.000001   0.000000   0.000000
     5  N   -0.000022   0.000028   0.000000   0.000000   0.000000   0.000000
     6  N    0.000000   0.000000   0.000000   0.000000   0.000000   0.000000
     7  C   -0.000010   0.000001   0.000000   0.000000   0.000000   0.000000
     8  C    0.000000   0.000000   0.000000   0.000000   0.000000   0.000000
     9  C    0.000000   0.000000   0.000000   0.000000   0.000000   0.000000
    10  C   -0.000001   0.000000   0.000000   0.000000   0.000000   0.000000
    11  C   -0.000029   0.000000  -0.000006   0.000000   0.000001  -0.000023
    12  C    0.000434   0.000012  -0.000025   0.000000   0.000000  -0.000001
    13  N    6.542697   0.362966  -0.044359   0.003899  -0.000188   0.000111
    14  C    0.362966   4.672118   0.379746  -0.069465   0.007700   0.008739
    15  C   -0.044359   0.379746   4.891110   0.452815  -0.007977  -0.083307
    16  C    0.003899  -0.069465   0.452815   4.756747   0.548833  -0.091559
    17  C   -0.000188   0.007700  -0.007977   0.548833   4.954831   0.366362
    18  S    0.000111   0.008739  -0.083307  -0.091559   0.366362  15.358066
    19  C    0.001892  -0.091926   0.551282  -0.039057  -0.103008   0.357798
    20  C    0.329836  -0.058932  -0.004546   0.000059   0.000002  -0.000037
    21  C   -0.054269  -0.001434  -0.004527  -0.000151   0.000021   0.000038
    22  C    0.003875   0.000027   0.000228   0.000001  -0.000001  -0.000003
    23  C    0.000452  -0.000023  -0.000001   0.000000   0.000000   0.000000
    24  C    0.003237   0.000129   0.000004   0.000000   0.000000   0.000000
    25  C   -0.048792   0.002697  -0.000552   0.000013   0.000000   0.000000
    26  C    0.000003  -0.000001   0.000000   0.000000   0.000000   0.000000
    27  C    0.000000   0.000000   0.000000   0.000000   0.000000   0.000000
    28  C    0.000000   0.000000   0.000000   0.000000   0.000000   0.000000
    29  C    0.000000   0.000000   0.000000   0.000000   0.000000   0.000000
    30  C    0.000000   0.000000   0.000000   0.000000   0.000000   0.000000
    31  N    0.000000   0.000000   0.000000   0.000000   0.000000   0.000000
    32  H   -0.000542  -0.001023  -0.000889  -0.000074  -0.000011   0.000003
    33  H   -0.001400   0.003536   0.004047   0.000562  -0.000203  -0.000404
    34  H    0.000000   0.000000   0.000000   0.000000   0.000000   0.000000
    35  H    0.000000   0.000000   0.000000   0.000000   0.000000   0.000000
    36  H    0.000000   0.000000   0.000000   0.000000   0.000000   0.000000
    37  H   -0.000069  -0.000024   0.000078  -0.000011  -0.000008   0.000150
    38  H   -0.017662   0.353756  -0.025526  -0.006224   0.000154  -0.000131
    39  H   -0.011065   0.352110  -0.020280  -0.000723   0.000082  -0.000033
    40  H    0.000169  -0.008311  -0.049914   0.402422  -0.055871   0.008158
    41  H    0.000002  -0.000201   0.006829  -0.016322   0.387461  -0.043323
    42  H    0.003584  -0.019186  -0.005884   0.011145   0.001938  -0.042594
    43  H   -0.012609   0.009067  -0.003802  -0.000055  -0.000181  -0.000108
    44  H   -0.000146   0.000010   0.000005  -0.000001   0.000000   0.000000
    45  H   -0.000113   0.000005   0.000000   0.000000   0.000000   0.000000
    46  H   -0.011308  -0.000582  -0.000037   0.000000   0.000000   0.000000
    47  H    0.000000   0.000000   0.000000   0.000000   0.000000   0.000000
    48  H    0.000000   0.000000   0.000000   0.000000   0.000000   0.000000
    49  H    0.000000   0.000000   0.000000   0.000000   0.000000   0.000000
    50  H    0.000000   0.000000   0.000000   0.000000   0.000000   0.000000
             19         20         21         22         23         24
     1  O   -0.000240  -0.008324  -0.000446   0.000031  -0.000020   0.000022
     2  C    0.000397  -0.054078   0.003565   0.000319  -0.000053   0.000166
     3  C   -0.003302   0.006847  -0.000662   0.000004   0.000000   0.000001
     4  N   -0.000008  -0.000007   0.000002   0.000000   0.000000   0.000000
     5  N   -0.000001   0.000001   0.000000   0.000000   0.000000   0.000000
     6  N    0.000000   0.000000   0.000000   0.000000   0.000000   0.000000
     7  C   -0.000001   0.000000   0.000000   0.000000   0.000000   0.000000
     8  C    0.000000   0.000000   0.000000   0.000000   0.000000   0.000000
     9  C    0.000000   0.000000   0.000000   0.000000   0.000000   0.000000
    10  C    0.000002   0.000000   0.000000   0.000000   0.000000   0.000000
    11  C   -0.000153  -0.000001   0.000000   0.000000   0.000000   0.000000
    12  C   -0.000047   0.000001   0.000001   0.000000   0.000000   0.000000
    13  N    0.001892   0.329836  -0.054269   0.003875   0.000452   0.003237
    14  C   -0.091926  -0.058932  -0.001434   0.000027  -0.000023   0.000129
    15  C    0.551282  -0.004546  -0.004527   0.000228  -0.000001   0.000004
    16  C   -0.039057   0.000059  -0.000151   0.000001   0.000000   0.000000
    17  C   -0.103008   0.000002   0.000021  -0.000001   0.000000   0.000000
    18  S    0.357798  -0.000037   0.000038  -0.000003   0.000000   0.000000
    19  C    5.069675   0.000335  -0.003964  -0.000112   0.000002  -0.000001
    20  C    0.000335   4.915697   0.427068   0.014158  -0.084786   0.019938
    21  C   -0.003964   0.427068   4.846112   0.488894   0.020502  -0.076968
    22  C   -0.000112   0.014158   0.488894   4.918190   0.461148  -0.051718
    23  C    0.000002  -0.084786   0.020502   0.461148   5.181290   0.378124
[...]
    12  C    0.000000   0.000000   0.000000   0.000020   0.000000   0.000000
    13  N   -0.012609  -0.000146  -0.000113  -0.011308   0.000000   0.000000
    14  C    0.009067   0.000010   0.000005  -0.000582   0.000000   0.000000
    15  C   -0.003802   0.000005   0.000000  -0.000037   0.000000   0.000000
    16  C   -0.000055  -0.000001   0.000000   0.000000   0.000000   0.000000
    17  C   -0.000181   0.000000   0.000000   0.000000   0.000000   0.000000
    18  S   -0.000108   0.000000   0.000000   0.000000   0.000000   0.000000
    19  C    0.005097   0.000001   0.000000   0.000005   0.000000   0.000000
    20  C   -0.046113   0.011924   0.011710  -0.039772  -0.000060   0.000000
    21  C    0.372398  -0.050206  -0.001289   0.010533   0.001797  -0.000001
    22  C   -0.035493   0.383944   0.013647  -0.000222   0.006705  -0.000010
    23  C    0.010588  -0.040166  -0.044980   0.009565  -0.029883  -0.000201
    24  C    0.000067   0.012954   0.387508  -0.040630  -0.001063   0.000018
    25  C    0.009663  -0.000886  -0.053917   0.382543   0.000030   0.000000
    26  C   -0.000347  -0.031806  -0.037437  -0.000285  -0.024419   0.009236
    27  C    0.000055   0.006125   0.002122   0.000003   0.379589  -0.041532
    28  C    0.000000   0.001023   0.000027   0.000000  -0.050074   0.393335
    29  C    0.000000  -0.000023   0.000302   0.000000   0.009444  -0.056645
    30  C    0.000000  -0.000035   0.000543  -0.000001   0.000923   0.008825
    31  N    0.000002  -0.000003   0.040732  -0.000050   0.005419  -0.000443
    32  H   -0.000004   0.000000   0.000000  -0.000067   0.000000   0.000000
    33  H    0.000018   0.000000   0.000000  -0.000001   0.000000   0.000000
    34  H    0.000000   0.000000   0.000000   0.000000   0.000000   0.000000
    35  H    0.000000   0.000000   0.000000   0.000000   0.000000   0.000000
    36  H    0.000000   0.000000   0.000000   0.000000   0.000000   0.000000
    37  H   -0.000001   0.000000   0.000000   0.000002   0.000000   0.000000
    38  H    0.000709  -0.000001   0.000000   0.000012   0.000000   0.000000
    39  H   -0.003513   0.000037   0.000003   0.000043   0.000000   0.000000
    40  H   -0.000026   0.000000   0.000000   0.000000   0.000000   0.000000
    41  H    0.000001   0.000000   0.000000   0.000000   0.000000   0.000000
    42  H   -0.000094  -0.000004   0.000000   0.000001   0.000000   0.000000
    43  H    0.739247  -0.019098   0.000053  -0.000250   0.000086   0.000000
    44  H   -0.019098   0.778127  -0.000142   0.000050  -0.007602   0.000091
    45  H    0.000053  -0.000142   0.730279  -0.015918  -0.000151   0.000003
    46  H   -0.000250   0.000050  -0.015918   0.705734   0.000001   0.000000
    47  H    0.000086  -0.007602  -0.000151   0.000001   0.754569  -0.016337
    48  H    0.000000   0.000091   0.000003   0.000000  -0.016337   0.739223
    49  H    0.000000   0.000000  -0.000011   0.000000  -0.000250  -0.013974
    50  H    0.000000  -0.000001  -0.000555   0.000000   0.000134  -0.000328
             49         50
     1  O    0.000000   0.000000
     2  C    0.000000   0.000000
     3  C    0.000000   0.000000
     4  N    0.000000   0.000000
     5  N    0.000000   0.000000
     6  N    0.000000   0.000000
     7  C    0.000000   0.000000
     8  C    0.000000   0.000000
     9  C    0.000000   0.000000
    10  C    0.000000   0.000000
    11  C    0.000000   0.000000
    12  C    0.000000   0.000000
    13  N    0.000000   0.000000
    14  C    0.000000   0.000000
    15  C    0.000000   0.000000
    16  C    0.000000   0.000000
    17  C    0.000000   0.000000
    18  S    0.000000   0.000000
    19  C    0.000000   0.000000
    20  C    0.000000   0.000000
    21  C    0.000000   0.000000
    22  C    0.000002   0.000030
    23  C    0.000053  -0.000806
    24  C   -0.000007  -0.000098
    25  C    0.000000  -0.000004
    26  C    0.001005   0.000142
    27  C    0.008870   0.001423
    28  C   -0.043950   0.006341
    29  C    0.381561  -0.061144
    30  C   -0.038683   0.391436
    31  N    0.005149  -0.031359
    32  H    0.000000   0.000000
    33  H    0.000000   0.000000
    34  H    0.000000   0.000000
    35  H    0.000000   0.000000
    36  H    0.000000   0.000000
    37  H    0.000000   0.000000
    38  H    0.000000   0.000000
    39  H    0.000000   0.000000
    40  H    0.000000   0.000000
    41  H    0.000000   0.000000
    42  H    0.000000   0.000000
    43  H    0.000000   0.000000
    44  H    0.000000  -0.000001
    45  H   -0.000011  -0.000555
    46  H    0.000000   0.000000
    47  H   -0.000250   0.000134
    48  H   -0.013974  -0.000328
    49  H    0.732767  -0.009045
    50  H   -0.009045   0.714990
 Mulliken atomic charges:
              1
     1  O   -0.236121
     2  C    0.131350
     3  C    0.122169
     4  N   -0.227858
     5  N   -0.061273
     6  N   -0.182370
     7  C    0.010897
     8  C    0.044458
     9  C    0.037830
    10  C    0.039281
    11  C    0.032443
    12  C    0.213196
    13  N   -0.280494
    14  C    0.141739
    15  C   -0.025776
    16  C    0.047736
    17  C   -0.099996
    18  S    0.162098
    19  C   -0.149843
    20  C    0.103646
    21  C    0.025950
    22  C   -0.018751
    23  C    0.024767
    24  C    0.059266
    25  C    0.088282
    26  C    0.094539
    27  C    0.005291
    28  C    0.089075
    29  C   -0.013677
    30  C    0.108369
    31  N   -0.205119
    32  H    0.061369
    33  H    0.060240
    34  H   -0.022664
    35  H   -0.027543
    36  H   -0.025869
    37  H   -0.031878
    38  H    0.037643
    39  H    0.048623
    40  H   -0.026715
    41  H    0.019680
    42  H    0.024392
    43  H   -0.024327
    44  H   -0.044175
    45  H   -0.032404
    46  H   -0.012717
    47  H   -0.028856
    48  H   -0.021260
    49  H   -0.023487
    50  H   -0.011155
 Sum of Mulliken atomic charges =   0.00000
 Mulliken charges with hydrogens summed into heavy atoms:
              1
     1  O   -0.236121
     2  C    0.131350
     3  C    0.243778
     4  N   -0.227858
     5  N   -0.061273
     6  N   -0.182370
     7  C    0.010897
     8  C    0.021794
     9  C    0.010287
    10  C    0.013411
    11  C    0.000565
    12  C    0.213196
    13  N   -0.280494
    14  C    0.228005
    15  C   -0.025776
    16  C    0.021021
    17  C   -0.080316
    18  S    0.162098
    19  C   -0.125451
    20  C    0.103646
    21  C    0.001623
    22  C   -0.062926
    23  C    0.024767
    24  C    0.026862
    25  C    0.075565
    26  C    0.094539
    27  C   -0.023565
    28  C    0.067815
    29  C   -0.037165
    30  C    0.097214
    31  N   -0.205119
 Sum of Mulliken charges with hydrogens summed into heavy atoms =   0.00000
 Electronic spatial extent (au):  <R**2>=          18938.6714
 Charge=              0.0000 electrons
 Dipole moment (field-independent basis, Debye):
    X=             -3.4326    Y=              6.1753    Z=              1.5302  Tot=              7.2290
 Quadrupole moment (field-independent basis, Debye-Ang):
   XX=           -172.5796   YY=           -178.0514   ZZ=           -183.7006
   XY=              9.1075   XZ=              7.0810   YZ=            -10.3067
 Traceless Quadrupole moment (field-independent basis, Debye-Ang):
   XX=              5.5310   YY=              0.0591   ZZ=             -5.5901
   XY=              9.1075   XZ=              7.0810   YZ=            -10.3067
 Octapole moment (field-independent basis, Debye-Ang**2):
  XXX=           -289.4362  YYY=             63.5056  ZZZ=             14.2710  XYY=              5.8610
  XXY=              5.3014  XXZ=            123.8907  XZZ=              9.3760  YZZ=             22.3710
  YYZ=             -0.1309  XYZ=            -51.2244
 Hexadecapole moment (field-independent basis, Debye-Ang**3):
 XXXX=         -16851.4658 YYYY=          -5467.9097 ZZZZ=          -1551.2454 XXXY=            194.7129
 XXXZ=            -40.7534 YYYX=            262.4901 YYYZ=            -60.5938 ZZZX=            124.6097
 ZZZY=            -65.4943 XXYY=          -3867.1677 XXZZ=          -3545.5172 YYZZ=          -1253.3831
 XXYZ=           -220.1539 YYXZ=             81.8672 ZZXY=             31.0794
 N-N= 2.880226842988D+03 E-N=-9.669063696542D+03  KE= 1.663774934562D+03
 No NMR shielding tensors so no spin-rotation constants.
 Leave Link  601 at Sat Sep 10 08:57:21 2022, MaxMem=  209715200 cpu:       3.9
 (Enter /opt/gaussian/l602.exe)
 Breneman (CHELPG) radii used.
 Read replacement radii for each type of atom:
 Rad(35) =   1.900000000000D+00
 Atom Element Radius
    1     8    1.70
    2     6    1.50
    3     6    1.50
    4     7    1.70
    5     7    1.70
    6     7    1.70
    7     6    1.50
    8     6    1.50
    9     6    1.50
   10     6    1.50
   11     6    1.50
   12     6    1.50
   13     7    1.70
   14     6    1.50
   15     6    1.50
   16     6    1.50
   17     6    1.50
   18    16    2.00
   19     6    1.50
   20     6    1.50
   21     6    1.50
   22     6    1.50
   23     6    1.50
   24     6    1.50
   25     6    1.50
   26     6    1.50
   27     6    1.50
   28     6    1.50
   29     6    1.50
   30     6    1.50
   31     7    1.70
   32     1    1.45
   33     1    1.45
   34     1    1.45
   35     1    1.45
   36     1    1.45
   37     1    1.45
   38     1    1.45
   39     1    1.45
   40     1    1.45
   41     1    1.45
   42     1    1.45
   43     1    1.45
   44     1    1.45
   45     1    1.45
   46     1    1.45
   47     1    1.45
   48     1    1.45
   49     1    1.45
   50     1    1.45
 Generate Potential Derived Charges using the Breneman model, NDens= 1.
 Grid spacing= 0.300 Box extension= 2.800
 NStep X,Y,Z=   72     52     40   Total possible points=      149760
 Number of Points to Fit=   28053

 **********************************************************************

            Electrostatic Properties Using The SCF Density

 **********************************************************************

       Atomic Center    1 is at   1.003631 -1.441030 -0.135620
       Atomic Center    2 is at   1.149440 -0.380940 -0.714570
       Atomic Center    3 is at   2.548640  0.066571 -1.187270
       Atomic Center    4 is at   3.547580 -0.942389 -0.944340
       Atomic Center    5 is at   4.094111 -1.606879 -2.009190
       Atomic Center    6 is at   4.974781 -2.446539 -1.586680
       Atomic Center    7 is at   5.034491 -2.359919 -0.208890
       Atomic Center    8 is at   5.835271 -3.048878  0.719170
       Atomic Center    9 is at   5.675571 -2.732138  2.060770
       Atomic Center   10 is at   4.737671 -1.754589  2.481190
       Atomic Center   11 is at   3.935300 -1.067809  1.578990
       Atomic Center   12 is at   4.105270 -1.388779  0.222160
       Atomic Center   13 is at   0.105830  0.495620 -0.991210
       Atomic Center   14 is at   0.360389  1.814460 -1.584960
       Atomic Center   15 is at   0.853459  2.881280 -0.628230
       Atomic Center   16 is at   1.343789  4.153780 -1.078820
       Atomic Center   17 is at   1.723098  4.976740 -0.052620
       Atomic Center   18 is at   1.494748  4.218440  1.492960
       Atomic Center   19 is at   0.879339  2.777170  0.741550
       Atomic Center   20 is at  -1.249670  0.149689 -0.670140
       Atomic Center   21 is at  -2.139300  1.141589 -0.227480
       Atomic Center   22 is at  -3.473150  0.833888  0.039590
       Atomic Center   23 is at  -3.967170 -0.471122 -0.116860
       Atomic Center   24 is at  -3.064239 -1.455711 -0.559850
       Atomic Center   25 is at  -1.732580 -1.160301 -0.832940
       Atomic Center   26 is at  -5.384340 -0.836282  0.161930
       Atomic Center   27 is at  -6.323360  0.088177  0.658980
       Atomic Center   28 is at  -7.632390 -0.325623  0.896180
       Atomic Center   29 is at  -7.982859 -1.651313  0.634810
       Atomic Center   30 is at  -6.986609 -2.500203  0.145210
       Atomic Center   31 is at  -5.729059 -2.116512 -0.086330
       Atomic Center   32 is at   2.555970  0.233971 -2.273470
       Atomic Center   33 is at   2.834190  1.010371 -0.696210
       Atomic Center   34 is at   6.550291 -3.800498  0.381370
       Atomic Center   35 is at   6.277541 -3.244848  2.813770
       Atomic Center   36 is at   4.639381 -1.541909  3.548070
       Atomic Center   37 is at   3.202350 -0.332909  1.912640
       Atomic Center   38 is at   1.077539  1.710910 -2.414090
       Atomic Center   39 is at  -0.578851  2.141869 -2.054390
       Atomic Center   40 is at   1.411118  4.439150 -2.130000
       Atomic Center   41 is at   2.129618  5.984300 -0.113030
       Atomic Center   42 is at   0.562799  1.935280  1.353830
       Atomic Center   43 is at  -1.793421  2.164249 -0.072820
       Atomic Center   44 is at  -4.123541  1.640508  0.379900
       Atomic Center   45 is at  -3.436419 -2.470792 -0.693590
       Atomic Center   46 is at  -1.063889 -1.949721 -1.166960
       Atomic Center   47 is at  -6.039940  1.120298  0.864210
       Atomic Center   48 is at  -8.369940  0.381607  1.282900
       Atomic Center   49 is at  -8.995659 -2.020624  0.805370
       Atomic Center   50 is at  -7.213219 -3.549553 -0.073090
   28053 points will be used for fitting atomic charges
 Fitting point charges to electrostatic potential
 Charges from ESP fit, RMS=   0.00416 RRMS=   0.24498:
 Charge=   0.00000 Dipole=    -3.3699     6.2755     1.4415 Tot=     7.2675
              1
     1  O   -0.503705
     2  C    0.597515
     3  C   -0.000084
     4  N    0.312033
     5  N   -0.235289
     6  N   -0.337740
     7  C    0.404985
     8  C   -0.260170
     9  C   -0.041169
    10  C   -0.109359
    11  C   -0.142857
    12  C   -0.075307
    13  N   -0.447801
    14  C    0.140288
    15  C    0.145083
    16  C   -0.193349
    17  C   -0.154190
    18  S    0.012893
    19  C   -0.190750
    20  C    0.285662
    21  C   -0.113182
    22  C   -0.119942
    23  C   -0.137590
    24  C    0.068010
    25  C   -0.248896
    26  C    0.461471
    27  C   -0.320919
    28  C    0.105107
    29  C   -0.273633
    30  C    0.293006
    31  N   -0.496667
    32  H    0.010197
    33  H   -0.033833
    34  H    0.128241
    35  H    0.081595
    36  H    0.094837
    37  H    0.111076
    38  H    0.067188
    39  H    0.014078
    40  H    0.106671
    41  H    0.168182
    42  H    0.160516
    43  H    0.049752
    44  H    0.104132
    45  H    0.038291
    46  H    0.158323
    47  H    0.121388
    48  H    0.064375
    49  H    0.108940
    50  H    0.022595
 Charges from ESP fit with hydrogens summed into heavy atoms:
              1
     1  O   -0.503705
     2  C    0.597515
     3  C   -0.023719
     4  N    0.312033
     5  N   -0.235289
     6  N   -0.337740
     7  C    0.404985
     8  C   -0.131929
     9  C    0.040426
    10  C   -0.014522
    11  C   -0.031781
    12  C   -0.075307
    13  N   -0.447801
    14  C    0.221554
    15  C    0.145083
    16  C   -0.086678
    17  C    0.013992
    18  S    0.012893
    19  C   -0.030234
    20  C    0.285662
    21  C   -0.063430
    22  C   -0.015810
    23  C   -0.137590
    24  C    0.106300
    25  C   -0.090573
    26  C    0.461471
    27  C   -0.199531
    28  C    0.169483
    29  C   -0.164692
    30  C    0.315601
    31  N   -0.496667
    32  H    0.000000
    33  H    0.000000
    34  H    0.000000
    35  H    0.000000
    36  H    0.000000
    37  H    0.000000
    38  H    0.000000
    39  H    0.000000
    40  H    0.000000
    41  H    0.000000
    42  H    0.000000
    43  H    0.000000
    44  H    0.000000
    45  H    0.000000
    46  H    0.000000
    47  H    0.000000
    48  H    0.000000
    49  H    0.000000
    50  H    0.000000
 -----------------------------------------------------------------

              Electrostatic Properties (Atomic Units)

 -----------------------------------------------------------------
    Center     Electric         -------- Electric Field --------
               Potential          X             Y             Z
 -----------------------------------------------------------------
    1 Atom    -22.363034
    2 Atom    -14.634571
    3 Atom    -14.683563
    4 Atom    -18.295236
    5 Atom    -18.332882
    6 Atom    -18.371307
    7 Atom    -14.739356
    8 Atom    -14.749982
    9 Atom    -14.753338
   10 Atom    -14.747824
   11 Atom    -14.743602
   12 Atom    -14.716558
   13 Atom    -18.313386
   14 Atom    -14.679685
   15 Atom    -14.725159
   16 Atom    -14.733646
   17 Atom    -14.713852
   18 Atom    -59.171804
   19 Atom    -14.716436
   20 Atom    -14.701107
   21 Atom    -14.745977
   22 Atom    -14.745688
   23 Atom    -14.744933
   24 Atom    -14.757306
   25 Atom    -14.753902
   26 Atom    -14.707473
   27 Atom    -14.743406
   28 Atom    -14.733279
   29 Atom    -14.744789
   30 Atom    -14.717430
   31 Atom    -18.384967
   32 Atom     -1.055085
   33 Atom     -1.059301
   34 Atom     -1.091240
   35 Atom     -1.097083
   36 Atom     -1.093655
   37 Atom     -1.083056
   38 Atom     -1.064698
   39 Atom     -1.065009
   40 Atom     -1.063530
   41 Atom     -1.050423
   42 Atom     -1.051021
   43 Atom     -1.081475
   44 Atom     -1.085856
   45 Atom     -1.104675
   46 Atom     -1.098213
   47 Atom     -1.079894
   48 Atom     -1.077638
   49 Atom     -1.080066
   50 Atom     -1.093178
 -----------------------------------------------------------------
 Leave Link  602 at Sat Sep 10 08:57:36 2022, MaxMem=  209715200 cpu:     106.2
 (Enter /opt/gaussian/l9999.exe)
 1\1\GINC-LQCAPF-6\SP\RB3LYP\CC-pVDZ\C24H19N5O1S1\LQCAPF-6\10-Sep-2022\
 0\\#p b3lyp/cc-pvdz pop=(chelpg,readradii)\\Mol15.log\\0,1\O,0,1.00363
 ,-1.44103,-0.13562\C,0,1.14944,-0.38094,-0.71457\C,0,2.54864,0.06657,-
 1.18727\N,0,3.54758,-0.94239,-0.94434\N,0,4.09411,-1.60688,-2.00919\N,
 0,4.97478,-2.44654,-1.58668\C,0,5.03449,-2.35992,-0.20889\C,0,5.83527,
 -3.04888,0.71917\C,0,5.67557,-2.73214,2.06077\C,0,4.73767,-1.75459,2.4
 8119\C,0,3.9353,-1.06781,1.57899\C,0,4.10527,-1.38878,0.22216\N,0,0.10
 583,0.49562,-0.99121\C,0,0.36039,1.81446,-1.58496\C,0,0.85346,2.88128,
 -0.62823\C,0,1.34379,4.15378,-1.07882\C,0,1.7231,4.97674,-0.05262\S,0,
 1.49475,4.21844,1.49296\C,0,0.87934,2.77717,0.74155\C,0,-1.24967,0.149
 69,-0.67014\C,0,-2.1393,1.14159,-0.22748\C,0,-3.47315,0.83389,0.03959\
 C,0,-3.96717,-0.47112,-0.11686\C,0,-3.06424,-1.45571,-0.55985\C,0,-1.7
 3258,-1.1603,-0.83294\C,0,-5.38434,-0.83628,0.16193\C,0,-6.32336,0.088
 18,0.65898\C,0,-7.63239,-0.32562,0.89618\C,0,-7.98286,-1.65131,0.63481
 \C,0,-6.98661,-2.5002,0.14521\N,0,-5.72906,-2.11651,-0.08633\H,0,2.555
 97,0.23397,-2.27347\H,0,2.83419,1.01037,-0.69621\H,0,6.55029,-3.8005,0
 .38137\H,0,6.27754,-3.24485,2.81377\H,0,4.63938,-1.54191,3.54807\H,0,3
 .20235,-0.33291,1.91264\H,0,1.07754,1.71091,-2.41409\H,0,-0.57885,2.14
 187,-2.05439\H,0,1.41112,4.43915,-2.13\H,0,2.12962,5.9843,-0.11303\H,0
 ,0.5628,1.93528,1.35383\H,0,-1.79342,2.16425,-0.07282\H,0,-4.12354,1.6
 4051,0.3799\H,0,-3.43642,-2.47079,-0.69359\H,0,-1.06389,-1.94972,-1.16
 696\H,0,-6.03994,1.1203,0.86421\H,0,-8.36994,0.38161,1.2829\H,0,-8.995
 66,-2.02062,0.80537\H,0,-7.21322,-3.54955,-0.07309\\Version=EM64L-G09R
 evC.01\State=1-A\HF=-1673.2290502\RMSD=5.796e-09\Dipole=-1.3504733,2.4
 295509,0.6020379\Quadrupole=4.1121334,0.0439628,-4.1560962,6.7712025,5
 .264514,-7.6627872\PG=C01 [X(C24H19N5O1S1)]\\@


 THE SCIENTIFIC THEORIST IS NOT TO BE ENVIED. FOR NATURE, OR MORE
 PRECISELY EXPERIMENT, IS AN INEXORABLE AND NOT VERY FRIENDLY JUDGE OF HIS
 WORK.  IT NEVER SAYS "YES" TO A THEORY. IN THE MOST FAVORABLE CASES
 IT SAYS "MAYBE", AND IN THE GREAT MAJORITY OF CASES SIMPLY "NO"...
 PROBABLY EVERY THEORY WILL SOME DAY EXPERIENCE ITS "NO" - MOST
 THEORIES, SOON AFTER CONCEPTION.  -- A.EINSTEIN, NOV 11, 1922.
 Job cpu time:  0 days  1 hours 33 minutes 27.4 seconds.
 File lengths (MBytes):  RWF=    157 Int=      0 D2E=      0 Chk=     11 Scr=      1
 Normal termination of Gaussian 09 at Sat Sep 10 08:57:36 2022.
