 Entering Gaussian System, Link 0=g09
 Input=Mol14.gjf
 Output=Mol14.log
 Initial command:
 /opt/gaussian/l1.exe /home/scr/lqcapf-6/Gau-549964.inp -scrdir=/home/scr/lqcapf-6/
 Entering Link 1 = /opt/gaussian/l1.exe PID=    549966.
  
 Copyright (c) 1988,1990,1992,1993,1995,1998,2003,2009,2011,
            Gaussian, Inc.  All Rights Reserved.
  
 This is part of the Gaussian(R) 09 program.  It is based on
 the Gaussian(R) 03 system (copyright 2003, Gaussian, Inc.),
 the Gaussian(R) 98 system (copyright 1998, Gaussian, Inc.),
 the Gaussian(R) 94 system (copyright 1995, Gaussian, Inc.),
 the Gaussian 92(TM) system (copyright 1992, Gaussian, Inc.),
 the Gaussian 90(TM) system (copyright 1990, Gaussian, Inc.),
 the Gaussian 88(TM) system (copyright 1988, Gaussian, Inc.),
 the Gaussian 86(TM) system (copyright 1986, Carnegie Mellon
 University), and the Gaussian 82(TM) system (copyright 1983,
 Carnegie Mellon University). Gaussian is a federally registered
 trademark of Gaussian, Inc.
  
 This software contains proprietary and confidential information,
 including trade secrets, belonging to Gaussian, Inc.
  
 This software is provided under written license and may be
 used, copied, transmitted, or stored only in accord with that
 written license.
  
 The following legend is applicable only to US Government
 contracts under FAR:
  
                    RESTRICTED RIGHTS LEGEND
  
 Use, reproduction and disclosure by the US Government is
 subject to restrictions as set forth in subparagraphs (a)
 and (c) of the Commercial Computer Software - Restricted
 Rights clause in FAR 52.227-19.
  
 Gaussian, Inc.
 340 Quinnipiac St., Bldg. 40, Wallingford CT 06492
  
  
 ---------------------------------------------------------------
 Warning -- This program may not be used in any manner that
 competes with the business of Gaussian, Inc. or will provide
 assistance to any competitor of Gaussian, Inc.  The licensee
 of this program is prohibited from giving any competitor of
 Gaussian, Inc. access to this program.  By using this program,
 the user acknowledges that Gaussian, Inc. is engaged in the
 business of creating and licensing software in the field of
 computational chemistry and represents and warrants to the
 licensee that it is not a competitor of Gaussian, Inc. and that
 it will not use this program in any manner prohibited above.
 ---------------------------------------------------------------
  

 Cite this work as:
 Gaussian 09, Revision C.01,
 M. J. Frisch, G. W. Trucks, H. B. Schlegel, G. E. Scuseria, 
 M. A. Robb, J. R. Cheeseman, G. Scalmani, V. Barone, B. Mennucci, 
 G. A. Petersson, H. Nakatsuji, M. Caricato, X. Li, H. P. Hratchian, 
 A. F. Izmaylov, J. Bloino, G. Zheng, J. L. Sonnenberg, M. Hada, 
 M. Ehara, K. Toyota, R. Fukuda, J. Hasegawa, M. Ishida, T. Nakajima, 
 Y. Honda, O. Kitao, H. Nakai, T. Vreven, J. A. Montgomery, Jr., 
 J. E. Peralta, F. Ogliaro, M. Bearpark, J. J. Heyd, E. Brothers, 
 K. N. Kudin, V. N. Staroverov, T. Keith, R. Kobayashi, J. Normand, 
 K. Raghavachari, A. Rendell, J. C. Burant, S. S. Iyengar, J. Tomasi, 
 M. Cossi, N. Rega, J. M. Millam, M. Klene, J. E. Knox, J. B. Cross, 
 V. Bakken, C. Adamo, J. Jaramillo, R. Gomperts, R. E. Stratmann, 
 O. Yazyev, A. J. Austin, R. Cammi, C. Pomelli, J. W. Ochterski, 
 R. L. Martin, K. Morokuma, V. G. Zakrzewski, G. A. Voth, 
 P. Salvador, J. J. Dannenberg, S. Dapprich, A. D. Daniels, 
 O. Farkas, J. B. Foresman, J. V. Ortiz, J. Cioslowski, 
 and D. J. Fox, Gaussian, Inc., Wallingford CT, 2010.
 
 ******************************************
 Gaussian 09:  EM64L-G09RevC.01 23-Sep-2011
                10-Sep-2022 
 ******************************************
 %nprocshared=8
 Will use up to    8 processors via shared memory.
 %mem=1600MB
 ---------------------------------------
 #p b3lyp/cc-pvdz pop=(chelpg,readradii)
 ---------------------------------------
 1/38=1/1;
 2/12=2,17=6,18=5,40=1/2;
 3/5=16,11=2,16=1,25=1,30=1,74=-5/1,2,3;
 4//1;
 5/5=2,38=5/2;
 6/7=2,8=2,9=2,10=2,15=8,20=103,28=1/1,2;
 99/5=1,9=1/99;
 Leave Link    1 at Sat Sep 10 08:32:17 2022, MaxMem=  209715200 cpu:       0.2
 (Enter /opt/gaussian/l101.exe)
 ---------
 Mol14.log
 ---------
 Charge =  0 Multiplicity = 1
 Symbolic Z-Matrix:
 O                     0.98233  -1.46454  -0.42881 
 C                     1.15264  -0.34689  -0.87716 
 C                     2.55877   0.13586  -1.28972 
 N                     3.56075  -0.87187  -1.06109 
 N                     4.09842  -1.53838  -2.12882 
 N                     4.9623   -2.39656  -1.70928 
 C                     5.01652  -2.32336  -0.33024 
 C                     5.7995   -3.0338    0.59641 
 C                     5.63846  -2.7247    1.93995 
 C                     4.71856  -1.73182   2.36339 
 C                     3.93448  -1.02241   1.46208 
 C                     4.10322  -1.33894   0.10417 
 N                     0.12335   0.56799  -1.06256 
 C                     0.38093   1.94115  -1.51656 
 C                     0.8532    2.89079  -0.43307 
 C                     1.45203   4.16218  -0.7274 
 C                     1.76881   4.87921   0.39534 
 S                     1.34454   4.01903   1.8426 
 C                     0.73329   2.68017   0.91903 
 C                    -1.22857   0.18813  -0.75752 
 C                    -2.25195   0.44806  -1.68008 
 C                    -3.57386   0.11566  -1.38754 
 C                    -3.91503  -0.5098   -0.17603 
 C                    -2.87585  -0.78677   0.73042 
 C                    -1.55463  -0.44375   0.45138 
 C                    -5.32131  -0.87025   0.13243 
 C                    -6.39782  -0.06182  -0.27109 
 C                    -7.70185  -0.44649   0.04519 
 N                    -8.01513  -1.55888   0.72406 
 C                    -6.987    -2.32867   1.10768 
 C                    -5.64755  -2.03772   0.84343 
 H                     2.58778   0.34977  -2.36764 
 H                     2.82124   1.06004  -0.75099 
 H                     6.50295  -3.79536   0.25667 
 H                     6.22722  -3.25417   2.69174 
 H                     4.62183  -1.52284   3.43115 
 H                     3.22149  -0.26827   1.79734 
 H                     1.10481   1.93596  -2.34552 
 H                    -0.55372   2.3266   -1.94684 
 H                     1.64087   4.52321  -1.73981 
 H                     2.23517   5.86028   0.45844 
 H                     0.30592   1.81906   1.42699 
 H                    -2.01576   0.89411  -2.64809 
 H                    -4.34645   0.31007  -2.1338 
 H                    -3.1057   -1.25528   1.68925 
 H                    -0.77143  -0.67736   1.17032 
 H                    -6.22385   0.87438  -0.80513 
 H                    -8.54473   0.18238  -0.26141 
 H                    -7.24807  -3.24014   1.65616 
 H                    -4.8688   -2.73082   1.16698 
 
 NAtoms=     50 NQM=        0 NQMF=       0 NMMI=     50 NMMIF=      0
                NMic=       0 NMicF=      0.
                    Isotopes and Nuclear Properties:
 (Nuclear quadrupole moments (NQMom) in fm**2, nuclear magnetic moments (NMagM)
  in nuclear magnetons)

  Atom         1           2           3           4           5           6           7           8           9          10
 IAtWgt=          16          12          12          14          14          14          12          12          12          12
 AtmWgt=  15.9949146  12.0000000  12.0000000  14.0030740  14.0030740  14.0030740  12.0000000  12.0000000  12.0000000  12.0000000
 NucSpn=           0           0           0           2           2           2           0           0           0           0
 AtZEff=   0.0000000   0.0000000   0.0000000   0.0000000   0.0000000   0.0000000   0.0000000   0.0000000   0.0000000   0.0000000
 NQMom=    0.0000000   0.0000000   0.0000000   2.0440000   2.0440000   2.0440000   0.0000000   0.0000000   0.0000000   0.0000000
 NMagM=    0.0000000   0.0000000   0.0000000   0.4037610   0.4037610   0.4037610   0.0000000   0.0000000   0.0000000   0.0000000

  Atom        11          12          13          14          15          16          17          18          19          20
 IAtWgt=          12          12          14          12          12          12          12          32          12          12
 AtmWgt=  12.0000000  12.0000000  14.0030740  12.0000000  12.0000000  12.0000000  12.0000000  31.9720718  12.0000000  12.0000000
 NucSpn=           0           0           2           0           0           0           0           0           0           0
 AtZEff=   0.0000000   0.0000000   0.0000000   0.0000000   0.0000000   0.0000000   0.0000000   0.0000000   0.0000000   0.0000000
 NQMom=    0.0000000   0.0000000   2.0440000   0.0000000   0.0000000   0.0000000   0.0000000   0.0000000   0.0000000   0.0000000
 NMagM=    0.0000000   0.0000000   0.4037610   0.0000000   0.0000000   0.0000000   0.0000000   0.0000000   0.0000000   0.0000000

  Atom        21          22          23          24          25          26          27          28          29          30
 IAtWgt=          12          12          12          12          12          12          12          12          14          12
 AtmWgt=  12.0000000  12.0000000  12.0000000  12.0000000  12.0000000  12.0000000  12.0000000  12.0000000  14.0030740  12.0000000
 NucSpn=           0           0           0           0           0           0           0           0           2           0
 AtZEff=   0.0000000   0.0000000   0.0000000   0.0000000   0.0000000   0.0000000   0.0000000   0.0000000   0.0000000   0.0000000
 NQMom=    0.0000000   0.0000000   0.0000000   0.0000000   0.0000000   0.0000000   0.0000000   0.0000000   2.0440000   0.0000000
 NMagM=    0.0000000   0.0000000   0.0000000   0.0000000   0.0000000   0.0000000   0.0000000   0.0000000   0.4037610   0.0000000

  Atom        31          32          33          34          35          36          37          38          39          40
 IAtWgt=          12           1           1           1           1           1           1           1           1           1
 AtmWgt=  12.0000000   1.0078250   1.0078250   1.0078250   1.0078250   1.0078250   1.0078250   1.0078250   1.0078250   1.0078250
 NucSpn=           0           1           1           1           1           1           1           1           1           1
 AtZEff=   0.0000000   0.0000000   0.0000000   0.0000000   0.0000000   0.0000000   0.0000000   0.0000000   0.0000000   0.0000000
 NQMom=    0.0000000   0.0000000   0.0000000   0.0000000   0.0000000   0.0000000   0.0000000   0.0000000   0.0000000   0.0000000
 NMagM=    0.0000000   2.7928460   2.7928460   2.7928460   2.7928460   2.7928460   2.7928460   2.7928460   2.7928460   2.7928460

  Atom        41          42          43          44          45          46          47          48          49          50
 IAtWgt=           1           1           1           1           1           1           1           1           1           1
 AtmWgt=   1.0078250   1.0078250   1.0078250   1.0078250   1.0078250   1.0078250   1.0078250   1.0078250   1.0078250   1.0078250
 NucSpn=           1           1           1           1           1           1           1           1           1           1
 AtZEff=   0.0000000   0.0000000   0.0000000   0.0000000   0.0000000   0.0000000   0.0000000   0.0000000   0.0000000   0.0000000
 NQMom=    0.0000000   0.0000000   0.0000000   0.0000000   0.0000000   0.0000000   0.0000000   0.0000000   0.0000000   0.0000000
 NMagM=    2.7928460   2.7928460   2.7928460   2.7928460   2.7928460   2.7928460   2.7928460   2.7928460   2.7928460   2.7928460
 Leave Link  101 at Sat Sep 10 08:32:17 2022, MaxMem=  209715200 cpu:       0.6
 (Enter /opt/gaussian/l202.exe)
                          Input orientation:                          
 ---------------------------------------------------------------------
 Center     Atomic      Atomic             Coordinates (Angstroms)
 Number     Number       Type             X           Y           Z
 ---------------------------------------------------------------------
      1          8           0        0.982330   -1.464540   -0.428810
      2          6           0        1.152640   -0.346890   -0.877160
      3          6           0        2.558770    0.135860   -1.289720
      4          7           0        3.560750   -0.871870   -1.061090
      5          7           0        4.098420   -1.538380   -2.128820
      6          7           0        4.962300   -2.396560   -1.709280
      7          6           0        5.016520   -2.323360   -0.330240
      8          6           0        5.799500   -3.033800    0.596410
      9          6           0        5.638460   -2.724700    1.939950
     10          6           0        4.718560   -1.731820    2.363390
     11          6           0        3.934480   -1.022410    1.462080
     12          6           0        4.103220   -1.338940    0.104170
     13          7           0        0.123350    0.567990   -1.062560
     14          6           0        0.380930    1.941150   -1.516560
     15          6           0        0.853200    2.890790   -0.433070
     16          6           0        1.452030    4.162180   -0.727400
     17          6           0        1.768810    4.879210    0.395340
     18         16           0        1.344540    4.019030    1.842600
     19          6           0        0.733290    2.680170    0.919030
     20          6           0       -1.228570    0.188130   -0.757520
     21          6           0       -2.251950    0.448060   -1.680080
     22          6           0       -3.573860    0.115660   -1.387540
     23          6           0       -3.915030   -0.509800   -0.176030
     24          6           0       -2.875850   -0.786770    0.730420
     25          6           0       -1.554630   -0.443750    0.451380
     26          6           0       -5.321310   -0.870250    0.132430
     27          6           0       -6.397820   -0.061820   -0.271090
     28          6           0       -7.701850   -0.446490    0.045190
     29          7           0       -8.015130   -1.558880    0.724060
     30          6           0       -6.987000   -2.328670    1.107680
     31          6           0       -5.647550   -2.037720    0.843430
     32          1           0        2.587780    0.349770   -2.367640
     33          1           0        2.821240    1.060040   -0.750990
     34          1           0        6.502950   -3.795360    0.256670
     35          1           0        6.227220   -3.254170    2.691740
     36          1           0        4.621830   -1.522840    3.431150
     37          1           0        3.221490   -0.268270    1.797340
     38          1           0        1.104810    1.935960   -2.345520
     39          1           0       -0.553720    2.326600   -1.946840
     40          1           0        1.640870    4.523210   -1.739810
     41          1           0        2.235170    5.860280    0.458440
     42          1           0        0.305920    1.819060    1.426990
     43          1           0       -2.015760    0.894110   -2.648090
     44          1           0       -4.346450    0.310070   -2.133800
     45          1           0       -3.105700   -1.255280    1.689250
     46          1           0       -0.771430   -0.677360    1.170320
     47          1           0       -6.223850    0.874380   -0.805130
     48          1           0       -8.544730    0.182380   -0.261410
     49          1           0       -7.248070   -3.240140    1.656160
     50          1           0       -4.868800   -2.730820    1.166980
 ---------------------------------------------------------------------
                    Distance matrix (angstroms):
                    1          2          3          4          5
     1  O    0.000000
     2  C    1.216209   0.000000
     3  C    2.405745   1.542872   0.000000
     4  N    2.720163   2.471523   1.439359   0.000000
     5  N    3.550423   3.415248   2.424395   1.368712   0.000000
     6  N    4.283506   4.405347   3.516552   2.170063   1.287935
     7  C    4.125770   4.374371   3.606785   2.181795   2.166562
     8  C    5.169021   5.566345   4.909843   3.526081   3.543562
     9  C    5.373879   5.806261   5.300761   4.093421   4.509320
    10  C    4.671963   5.013480   4.636608   3.715791   4.538936
    11  C    3.533572   3.696891   3.287335   2.555137   3.631482
    12  C    3.168564   3.263908   2.550155   1.367574   2.241884
    13  N    2.295793   1.389538   2.483870   3.726784   4.623298
    14  C    3.625411   2.497898   2.837872   4.269870   5.128521
    15  C    4.357246   3.281684   3.351486   4.677910   5.746701
    16  C    5.654180   4.521479   4.213351   5.468063   6.439235
    17  C    6.445226   5.413967   5.095374   6.197351   7.279006
    18  S    5.946431   5.147347   5.134666   6.104417   7.364838
    19  C    4.365468   3.544749   3.832032   4.953019   6.197552
    20  C    2.779829   2.443506   3.824907   4.914605   5.765251
    21  C    3.960339   3.587180   4.836618   5.992733   6.668921
    22  C    4.916814   4.776426   6.133443   7.210024   7.883478
    23  C    4.995954   5.118535   6.600551   7.536691   8.311844
    24  C    4.085185   4.359649   5.870886   6.681809   7.574999
    25  C    2.872788   3.017236   4.504158   5.351445   6.309724
    26  C    6.356418   6.573067   8.070343   8.961891   9.710353
    27  C    7.513928   7.580108   9.016495  10.022644  10.761154
    28  C    8.756488   8.902957  10.363467  11.324794  12.048440
    29  N    9.071510   9.385139  10.896551  11.732849  12.444976
    30  C    8.161969   8.609343  10.146091  10.866502  11.575233
    31  C    6.775134   7.215395   8.753198   9.475188  10.201350
    32  H    3.102943   2.183230   1.099323   2.036209   2.429852
    33  H    3.139888   2.186229   1.101467   2.091725   3.206461
    34  H    6.031571   6.465550   5.779478   4.351991   4.070170
    35  H    6.359990   6.851327   6.387633   5.183546   5.541978
    36  H    5.305530   5.655057   5.412404   4.661531   5.584574
    37  H    3.376484   3.382199   3.183152   2.941097   4.218639
    38  H    3.905404   2.714733   2.543437   3.945290   4.591263
    39  H    4.363096   3.347152   3.862479   5.286173   6.050917
    40  H    6.164864   4.969950   4.504882   5.766584   6.552385
    41  H    7.483970   6.440858   5.994144   7.027658   8.056413
    42  H    3.831912   3.273741   3.910116   4.901588   6.188638
    43  H    4.413273   3.836018   4.831815   6.060917   6.600746
    44  H    5.869593   5.678973   6.958799   8.066691   8.644803
    45  H    4.608900   5.054215   6.549485   7.221698   8.158256
    46  H    2.500509   2.829033   4.219402   4.876967   5.944840
    47  H    7.585591   7.477252   8.826928   9.942500  10.682828
    48  H    9.669811   9.731303  11.151112  12.177585  12.895638
    49  H    8.674061   9.239076  10.781915  11.393978  12.081593
    50  H    6.195622   6.791124   8.331988   8.915004   9.627837
                    6          7          8          9         10
     6  N    0.000000
     7  C    1.382045   0.000000
     8  C    2.534400   1.405867   0.000000
     9  C    3.725822   2.387812   1.388012   0.000000
    10  C    4.133755   2.773868   2.446590   1.418213   0.000000
    11  C    3.605860   2.464892   2.876347   2.455545   1.389390
    12  C    2.268299   1.411351   2.447900   2.765390   2.374252
    13  N    5.711588   5.730559   6.924143   7.090368   6.175938
    14  C    6.312038   6.409532   7.653474   7.833214   6.881842
    15  C    6.816853   6.673168   7.786301   7.750075   6.643020
    16  C    7.503543   7.411178   8.510881   8.489409   7.413666
    17  C    8.219771   7.934173   8.882715   8.670609   7.501997
    18  S    8.177031   7.643990   8.434576   7.995319   6.687863
    19  C    7.110958   6.703883   7.643299   7.369911   6.118350
    20  C    6.775938   6.744724   7.849059   7.932025   6.985316
    21  C    7.754877   7.895156   9.062649   9.242813   8.348026
    22  C    8.903976   8.992293  10.085387  10.198366   9.286920
    23  C    9.204222   9.115117  10.066744  10.032563   9.081898
    24  C    8.365414   8.110217   8.962634   8.815442   7.825265
    25  C    7.138088   6.879235   7.798245   7.691496   6.683399
    26  C   10.558132  10.449704  11.338811  11.261557  10.320779
    27  C   11.686391  11.636375  12.584110  12.524043  11.545704
    28  C   12.932967  12.861591  13.758069  13.665439  12.700107
    29  N   13.230138  13.096560  13.893728  13.757109  12.839944
    30  C   12.277037  12.089340  12.816130  12.659058  11.787840
    31  C   10.918517  10.732264  11.492961  11.359944  10.481416
    32  H    3.689731   4.146734   5.527141   6.108547   5.590696
    33  H    4.177384   4.055081   5.238802   5.431588   4.592784
    34  H    2.862727   2.172722   1.090981   2.174187   3.446812
    35  H    4.658808   3.385936   2.149864   1.091863   2.168275
    36  H    5.225259   3.865833   3.421353   2.168336   1.092310
    37  H    4.456054   3.460076   3.966929   3.449077   2.168781
    38  H    5.835731   6.124103   7.442686   7.787232   6.977509
    39  H    7.265752   7.433915   8.692837   8.886274   7.927534
    40  H    7.675679   7.762565   8.936472   9.058342   8.089118
    41  H    8.961677   8.679279   9.582700   9.353028   8.211945
    42  H    7.020649   6.514388   7.376960   7.024590   5.740817
    43  H    7.771949   8.073259   9.329177   9.629797   8.795539
    44  H    9.703550   9.892067  11.026142  11.202843  10.323199
    45  H    8.828655   8.437393   9.146585   8.870309   7.867693
    46  H    6.642545   6.201722   7.004235   6.772785   5.716231
    47  H   11.689589  11.696024  12.720029  12.696584  11.686237
    48  H   13.827043  13.790974  14.725373  14.644452  13.655351
    49  H   12.693737  12.458188  13.092163  12.899956  12.082030
    50  H   10.248665  10.006360  10.687842  10.535655   9.713232
                   11         12         13         14         15
    11  C    0.000000
    12  C    1.404487   0.000000
    13  N    4.840237   4.564757   0.000000
    14  C    5.502972   5.219310   1.469024   0.000000
    15  C    5.329073   5.361145   2.514824   1.516181   0.000000
    16  C    6.151126   6.163006   3.846547   2.589016   1.435848
    17  C    6.376298   6.648281   4.839383   3.770115   2.340602
    18  S    5.680555   6.272184   4.673429   4.065721   2.587086
    19  C    4.924593   5.307888   2.959735   2.569515   1.373650
    20  C    5.748836   5.612703   1.437021   2.497941   3.426865
    21  C    7.092769   6.838502   2.457186   3.031190   4.142936
    22  C    8.111147   7.954786   3.738927   4.357686   5.311424
    23  C    8.034985   8.065874   4.272713   5.124397   5.862261
    24  C    6.853572   7.028833   3.747713   4.805942   5.365069
    25  C    5.611300   5.738744   2.476136   3.647866   4.207024
    26  C    9.352046   9.436219   5.756810   6.568004   7.251882
    27  C   10.520600  10.585070   6.599147   7.177363   7.830800
    28  C   11.736415  11.838903   7.968063   8.571535   9.195382
    29  N   11.984392  12.136187   8.599444   9.368266   9.989284
    30  C   11.005028  11.179427   7.978575   8.910914   9.543868
    31  C    9.655510   9.803689   6.612549   7.598916   8.257083
    32  H    4.285234   3.355316   2.797189   2.850792   3.634297
    33  H    3.236291   2.851294   2.760036   2.705100   2.706640
    34  H    3.967279   3.437435   7.840822   8.575023   8.780662
    35  H    3.427750   3.856812   8.121632   8.881455   8.740999
    36  H    2.144788   3.372176   6.693379   7.379993   6.972438
    37  H    1.090633   2.188745   4.298468   4.892060   4.534665
    38  H    5.590778   5.071135   2.116741   1.100547   2.152318
    39  H    6.555955   6.271357   2.081606   1.098764   2.142250
    40  H    6.801959   6.620289   4.290140   2.881722   2.234455
    41  H    7.160054   7.446065   5.897589   4.764285   3.394481
    42  H    4.608864   5.112955   2.792198   2.947036   2.215388
    43  H    7.481437   7.071306   2.682546   2.849698   4.138113
    44  H    9.125769   8.895205   4.603606   5.038802   6.048881
    45  H    7.047692   7.381599   4.617741   5.714103   6.112858
    46  H    4.727555   5.033545   2.708742   3.924774   4.235797
    47  H   10.579684  10.600660   6.359803   6.728094   7.368105
    48  H   12.655142  12.744360   8.713561   9.183468   9.781924
    49  H   11.401992  11.613570   8.731044   9.752618  10.372259
    50  H    8.972374   9.141337   6.385496   7.522523   8.179483
                   16         17         18         19         20
    16  C    0.000000
    17  C    1.369316   0.000000
    18  S    2.576227   1.736225   0.000000
    19  C    2.328878   2.486429   1.737571   0.000000
    20  C    4.793704   5.685033   5.296916   3.587475   0.000000
    21  C    5.331206   6.333164   6.172183   4.544155   1.402137
    22  C    6.486114   7.376598   7.061215   5.518018   2.429519
    23  C    7.136998   7.853275   7.228295   5.742991   2.835896
    24  C    6.734084   7.334063   6.491868   5.008107   2.424444
    25  C    5.625310   6.275532   5.500644   3.900276   1.402507
    26  C    8.481910   9.132098   8.441759   7.062748   4.320035
    27  C    8.925836   9.568268   9.003619   7.732246   5.198099
    28  C   10.277658  10.871020  10.247376   9.038318   6.553659
    29  N   11.156361  11.716763  10.952974   9.723292   7.162717
    30  C   10.803512  11.363326  10.499903   9.204724   6.555362
    31  C    9.555642  10.151212   9.304401   7.935951   5.200465
    32  H    4.302881   5.368482   5.721471   4.435324   4.145255
    33  H    3.390953   4.124044   4.202734   3.126231   4.142612
    34  H    9.476425   9.883293   9.496792   8.698286   8.756322
    35  H    9.460191   9.555247   8.801195   8.279019   8.907055
    36  H    7.724029   7.638201   6.631474   6.252742   7.395915
    37  H    5.397609   5.529234   4.680377   3.956749   5.151567
    38  H    2.773974   4.076264   4.683695   3.368852   3.319837
    39  H    2.979836   4.170824   4.563723   3.161426   2.538298
    40  H    1.091319   2.168403   3.629831   3.360049   5.290699
    41  H    2.214287   1.088105   2.469681   3.546955   6.756429
    42  H    3.383072   3.545260   2.468062   1.087281   3.128366
    43  H    5.137597   6.282234   6.420517   4.844753   2.166179
    44  H    7.102048   8.041766   7.871182   6.382860   3.410307
    45  H    7.480774   7.941475   6.902644   5.551473   3.404957
    46  H    5.653872   6.158643   5.194744   3.687863   2.162086
    47  H    8.350737   9.020111   8.612771   7.391576   5.042423
    48  H   10.769919  11.351680  10.814084   9.680602   7.332964
    49  H   11.669080  12.199083  11.250034   9.964715   7.335753
    50  H    9.542275  10.127480   9.199051   7.792542   5.047301
                   21         22         23         24         25
    21  C    0.000000
    22  C    1.394100   0.000000
    23  C    2.438339   1.405473   0.000000
    24  C    2.779310   2.405692   1.406506   0.000000
    25  C    2.413442   2.787805   2.443255   1.393251   0.000000
    26  C    3.800540   2.517123   1.484148   2.518896   3.804144
    27  C    4.408341   3.041827   2.524672   3.732673   4.911652
    28  C    5.786034   4.405568   3.793804   4.886267   6.160626
    29  N    6.559111   5.194980   4.326841   5.196960   6.561702
    30  C    6.156503   4.883687   3.793837   4.406964   5.787426
    31  C    4.906863   3.730209   2.524968   3.043020   4.409812
    32  H    4.889313   6.243493   6.915819   6.382864   5.073077
    33  H    5.193745   6.495718   6.940628   6.169450   4.780723
    34  H    9.919974  10.933508  10.932358   9.860930   8.729020
    35  H   10.233066  11.138108  10.891323   9.633313   8.571748
    36  H    8.789651   9.647476   9.322874   8.003184   6.942055
    37  H    6.524119   7.514496   7.408269   6.211660   4.965252
    38  H    3.731554   5.110887   5.990594   5.720168   4.534125
    39  H    2.546381   3.784484   4.741238   4.717317   3.798436
    40  H    5.635997   6.836958   7.657978   7.395856   6.299462
    41  H    7.348445   8.375747   8.877242   8.389265   7.355503
    42  H    4.251614   5.086830   5.080323   4.171237   3.087680
    43  H    1.091691   2.150034   3.418958   3.870328   3.407231
    44  H    2.147518   1.091602   2.165912   3.401394   3.878873
    45  H    3.870742   3.400777   2.165647   1.091644   2.143997
    46  H    3.403423   3.876228   3.423880   2.152688   1.088508
    47  H    4.089410   2.817322   2.764484   4.040599   5.011776
    48  H    6.456182   5.097271   4.681936   5.836024   7.054191
    49  H    7.049435   5.833123   4.681969   5.098267   6.456512
    50  H    5.005890   4.037931   2.765191   2.818114   4.089804
                   26         27         28         29         30
    26  C    0.000000
    27  C    1.405440   0.000000
    28  C    2.419536   1.395886   0.000000
    29  N    2.842693   2.418099   1.340306   0.000000
    30  C    2.419220   2.717857   2.276510   1.340445   0.000000
    31  C    1.405325   2.389402   2.718336   2.418465   1.395925
    32  H    8.384062   9.236121  10.598692  11.208178  10.532251
    33  H    8.414723   9.299459  10.660158  11.245507  10.542276
    34  H   12.181331  13.440525  14.595753  14.696766  13.596108
    35  H   12.066552  13.355190  14.453591  14.477234  13.340967
    36  H   10.496355  11.716392  12.825613  12.923714  11.866457
    37  H    8.724319   9.841349  11.064409  11.361304  10.437152
    38  H    7.437074   8.036407   9.431268  10.237653   9.776965
    39  H    6.105172   6.531936   7.921741   8.826285   8.508156
    40  H    9.003702   9.370175  10.731755  11.674794  11.379657
    41  H   10.124560  10.494379  11.776693  12.656348  12.350256
    42  H    6.369772   7.166681   8.436022   9.008022   8.395970
    43  H    4.665932   5.076060   6.432930   7.306230   7.014652
    44  H    2.734832   2.795731   4.071743   5.011941   4.943950
    45  H    2.735117   4.013145   4.947895   5.012611   4.068769
    46  H    4.670742   5.840618   7.024951   7.310774   6.431490
    47  H    2.176541   1.091758   2.156902   3.386423   3.807988
    48  H    3.413733   2.160775   1.095412   2.069689   3.256732
    49  H    3.413288   3.812996   3.256627   2.069741   1.095338
    50  H    2.176414   3.395513   3.808247   3.386593   2.156852
                   31         32         33         34         35
    31  C    0.000000
    32  H    9.155967   0.000000
    33  H    9.157439   1.781164   0.000000
    34  H   12.290982   6.276756   6.176186   0.000000
    35  H   12.079162   7.199391   6.485792   2.509677   0.000000
    36  H   10.602903   6.424173   5.234853   4.333622   2.474168
    37  H    9.093996   4.258007   2.901481   5.057866   4.330123
    38  H    8.458954   2.171563   2.501178   8.292125   8.862873
    39  H    7.264985   3.735499   3.797971   9.598460   9.931896
    40  H   10.141006   4.325322   3.790064   9.839937  10.057877
    41  H   11.165299   6.202966   4.984827  10.558695  10.197906
    42  H    7.117521   4.665288   3.412703   8.443610   7.899307
    43  H    5.828914   4.644086   5.198374  10.148753  10.661554
    44  H    4.008600   6.938285   7.338283  11.843918  12.156979
    45  H    2.790811   7.172883   6.814991  10.041436   9.597080
    46  H    5.072867   4.985624   4.429139   7.967012   7.611555
    47  H    3.395615   8.964456   9.047157  13.597990  13.575793
    48  H    3.813550  11.331240  11.410313  15.573166  15.451261
    49  H    2.160557  11.217057  11.210572  13.833199  13.515031
    50  H    1.091569   8.808187   8.785553  11.457688  11.212513
                   36         37         38         39         40
    36  H    0.000000
    37  H    2.490830   0.000000
    38  H    7.596226   5.148034   0.000000
    39  H    8.398052   5.916455   1.749933   0.000000
    40  H    8.495862   6.161824   2.710739   3.111942   0.000000
    41  H    8.309249   6.350166   4.953806   5.103937   2.640692
    42  H    5.814811   3.604810   3.857943   3.518424   4.373001
    43  H    9.319678   6.967192   3.303779   2.163640   5.231279
    44  H   10.712529   8.547634   5.692502   4.299552   7.331697
    45  H    7.925940   6.404624   6.647690   5.706454   8.226745
    46  H    5.908760   4.062502   4.765590   4.334496   6.429151
    47  H   11.887872   9.863719   7.563664   5.963457   8.720172
    48  H   13.780460  11.953471  10.026574   8.443613  11.170269
    49  H   12.124118  10.884100  10.610187   9.422554  12.280695
    50  H    9.831467   8.480230   8.354670   7.341205  10.170850
                   41         42         43         44         45
    41  H    0.000000
    42  H    4.581654   0.000000
    43  H    7.237664   4.780377   0.000000
    44  H    8.991232   6.049861   2.457176   0.000000
    45  H    8.981702   4.599945   4.961891   4.313408   0.000000
    46  H    7.230986   2.731058   4.312555   4.967192   2.460101
    47  H    9.900042   6.965104   4.594008   2.368215   4.525510
    48  H   12.205039   9.157697   6.987865   4.598663   5.954409
    49  H   13.197879   9.094547   7.936980   5.948713   4.593473
    50  H   11.170292   6.895414   5.986210   4.518297   2.357648
                   46         47         48         49         50
    46  H    0.000000
    47  H    6.003264   0.000000
    48  H    7.950673   2.482132   0.000000
    49  H    6.982174   4.902678   4.131833   0.000000
    50  H    4.583138   4.326990   4.903009   2.481860   0.000000
 Stoichiometry    C24H19N5OS
 Framework group  C1[X(C24H19N5OS)]
 Deg. of freedom   144
 Full point group                 C1      NOp   1
 Largest Abelian subgroup         C1      NOp   1
 Largest concise Abelian subgroup C1      NOp   1
                         Standard orientation:                         
 ---------------------------------------------------------------------
 Center     Atomic      Atomic             Coordinates (Angstroms)
 Number     Number       Type             X           Y           Z
 ---------------------------------------------------------------------
      1          8           0        0.982331   -1.464540   -0.428810
      2          6           0        1.152641   -0.346890   -0.877160
      3          6           0        2.558771    0.135860   -1.289720
      4          7           0        3.560751   -0.871870   -1.061090
      5          7           0        4.098421   -1.538380   -2.128820
      6          7           0        4.962301   -2.396560   -1.709280
      7          6           0        5.016521   -2.323360   -0.330240
      8          6           0        5.799501   -3.033800    0.596410
      9          6           0        5.638461   -2.724700    1.939950
     10          6           0        4.718561   -1.731820    2.363390
     11          6           0        3.934481   -1.022410    1.462080
     12          6           0        4.103221   -1.338940    0.104170
     13          7           0        0.123351    0.567990   -1.062560
     14          6           0        0.380931    1.941150   -1.516560
     15          6           0        0.853201    2.890790   -0.433070
     16          6           0        1.452031    4.162180   -0.727400
     17          6           0        1.768811    4.879210    0.395340
     18         16           0        1.344541    4.019030    1.842600
     19          6           0        0.733291    2.680170    0.919030
     20          6           0       -1.228569    0.188130   -0.757520
     21          6           0       -2.251949    0.448060   -1.680080
     22          6           0       -3.573859    0.115660   -1.387540
     23          6           0       -3.915029   -0.509800   -0.176030
     24          6           0       -2.875849   -0.786770    0.730420
     25          6           0       -1.554629   -0.443750    0.451380
     26          6           0       -5.321309   -0.870250    0.132430
     27          6           0       -6.397819   -0.061820   -0.271090
     28          6           0       -7.701849   -0.446490    0.045190
     29          7           0       -8.015129   -1.558880    0.724060
     30          6           0       -6.986999   -2.328670    1.107680
     31          6           0       -5.647549   -2.037720    0.843430
     32          1           0        2.587781    0.349770   -2.367640
     33          1           0        2.821241    1.060040   -0.750990
     34          1           0        6.502951   -3.795360    0.256670
     35          1           0        6.227221   -3.254170    2.691740
     36          1           0        4.621831   -1.522840    3.431150
     37          1           0        3.221491   -0.268270    1.797340
     38          1           0        1.104811    1.935960   -2.345520
     39          1           0       -0.553719    2.326600   -1.946840
     40          1           0        1.640871    4.523210   -1.739810
     41          1           0        2.235171    5.860280    0.458440
     42          1           0        0.305921    1.819060    1.426990
     43          1           0       -2.015759    0.894110   -2.648090
     44          1           0       -4.346449    0.310070   -2.133800
     45          1           0       -3.105699   -1.255280    1.689250
     46          1           0       -0.771429   -0.677360    1.170320
     47          1           0       -6.223849    0.874380   -0.805130
     48          1           0       -8.544729    0.182380   -0.261410
     49          1           0       -7.248069   -3.240140    1.656160
     50          1           0       -4.868799   -2.730820    1.166980
 ---------------------------------------------------------------------
 Rotational constants (GHZ):      0.1890807      0.0656387      0.0555333
 Leave Link  202 at Sat Sep 10 08:32:17 2022, MaxMem=  209715200 cpu:       0.0
 (Enter /opt/gaussian/l301.exe)
 Standard basis: CC-pVDZ (5D, 7F)
 Ernie: Thresh=  0.10000D-02 Tol=  0.10000D-05 Strict=F.
 Ernie:  70 primitive shells out of 805 were deleted.
 There are   533 symmetry adapted basis functions of A   symmetry.
 Integral buffers will be    131072 words long.
 Raffenetti 2 integral format.
 Two-electron integral symmetry is turned on.
   533 basis functions,  1194 primitive gaussians,   564 cartesian basis functions
   111 alpha electrons      111 beta electrons
       nuclear repulsion energy      2881.3447766915 Hartrees.
 IExCor=  402 DFT=T Ex+Corr=B3LYP ExCW=0 ScaHFX=  0.200000
 ScaDFX=  0.800000  0.720000  1.000000  0.810000 ScalE2=  1.000000  1.000000
 IRadAn=      0 IRanWt=     -1 IRanGd=            0 ICorTp=0
 NAtoms=   50 NActive=   50 NUniq=   50 SFac= 1.00D+00 NAtFMM=   60 NAOKFM=F Big=F
 Leave Link  301 at Sat Sep 10 08:32:17 2022, MaxMem=  209715200 cpu:       0.3
 (Enter /opt/gaussian/l302.exe)
 NPDir=0 NMtPBC=     1 NCelOv=     1 NCel=       1 NClECP=     1 NCelD=      1
         NCelK=      1 NCelE2=     1 NClLst=     1 CellRange=     0.0.
 One-electron integrals computed using PRISM.
 NBasis=   533 RedAO= T  NBF=   533
 NBsUse=   533 1.00D-06 NBFU=   533
 Precomputing XC quadrature grid using
 IXCGrd= 2 IRadAn=           0 IRanWt=          -1 IRanGd=           0 AccXCQ= 0.00D+00.
 NRdTot=    3224 NPtTot=      411966 NUsed=      435197 NTot=      435229
 NSgBfM=   548   549   549   550   550 NAtAll=    50    50.
 Leave Link  302 at Sat Sep 10 08:32:18 2022, MaxMem=  209715200 cpu:       8.0
 (Enter /opt/gaussian/l303.exe)
 DipDrv:  MaxL=1.
 Leave Link  303 at Sat Sep 10 08:32:19 2022, MaxMem=  209715200 cpu:       1.1
 (Enter /opt/gaussian/l401.exe)
 Harris functional with IExCor=  402 diagonalized for initial guess.
 ExpMin= 1.22D-01 ExpMax= 1.11D+05 ExpMxC= 1.07D+03 IAcc=2 IRadAn=         4 AccDes= 0.00D+00
 HarFok:  IExCor=  402 AccDes= 0.00D+00 IRadAn=         4 IDoV= 1
 ScaDFX=  1.000000  1.000000  1.000000  1.000000
 FoFCou: FMM=F IPFlag=           0 FMFlag=      100000 FMFlg1=           0
         NFxFlg=           0 DoJE=T BraDBF=F KetDBF=T FulRan=T
         Omega=  0.000000  0.000000  1.000000  0.000000  0.000000 ICntrl=     500 IOpCl=  0
         NMat0=    1 NMatS0=    1 NMatT0=    0 NMatD0=    1 NMtDS0=    0 NMtDT0=    0
         I1Cent=           4 NGrid=           0.
 Petite list used in FoFCou.
 Harris En= -1672.99731912312    
 Initial guess orbital symmetries:
       Occupied  (A) (A) (A) (A) (A) (A) (A) (A) (A) (A) (A) (A)
                 (A) (A) (A) (A) (A) (A) (A) (A) (A) (A) (A) (A)
                 (A) (A) (A) (A) (A) (A) (A) (A) (A) (A) (A) (A)
                 (A) (A) (A) (A) (A) (A) (A) (A) (A) (A) (A) (A)
                 (A) (A) (A) (A) (A) (A) (A) (A) (A) (A) (A) (A)
                 (A) (A) (A) (A) (A) (A) (A) (A) (A) (A) (A) (A)
                 (A) (A) (A) (A) (A) (A) (A) (A) (A) (A) (A) (A)
                 (A) (A) (A) (A) (A) (A) (A) (A) (A) (A) (A) (A)
                 (A) (A) (A) (A) (A) (A) (A) (A) (A) (A) (A) (A)
                 (A) (A) (A)
       Virtual   (A) (A) (A) (A) (A) (A) (A) (A) (A) (A) (A) (A)
                 (A) (A) (A) (A) (A) (A) (A) (A) (A) (A) (A) (A)
                 (A) (A) (A) (A) (A) (A) (A) (A) (A) (A) (A) (A)
                 (A) (A) (A) (A) (A) (A) (A) (A) (A) (A) (A) (A)
                 (A) (A) (A) (A) (A) (A) (A) (A) (A) (A) (A) (A)
                 (A) (A) (A) (A) (A) (A) (A) (A) (A) (A) (A) (A)
                 (A) (A) (A) (A) (A) (A) (A) (A) (A) (A) (A) (A)
                 (A) (A) (A) (A) (A) (A) (A) (A) (A) (A) (A) (A)
                 (A) (A) (A) (A) (A) (A) (A) (A) (A) (A) (A) (A)
                 (A) (A) (A) (A) (A) (A) (A) (A) (A) (A) (A) (A)
                 (A) (A) (A) (A) (A) (A) (A) (A) (A) (A) (A) (A)
                 (A) (A) (A) (A) (A) (A) (A) (A) (A) (A) (A) (A)
                 (A) (A) (A) (A) (A) (A) (A) (A) (A) (A) (A) (A)
                 (A) (A) (A) (A) (A) (A) (A) (A) (A) (A) (A) (A)
                 (A) (A) (A) (A) (A) (A) (A) (A) (A) (A) (A) (A)
                 (A) (A) (A) (A) (A) (A) (A) (A) (A) (A) (A) (A)
                 (A) (A) (A) (A) (A) (A) (A) (A) (A) (A) (A) (A)
                 (A) (A) (A) (A) (A) (A) (A) (A) (A) (A) (A) (A)
                 (A) (A) (A) (A) (A) (A) (A) (A) (A) (A) (A) (A)
                 (A) (A) (A) (A) (A) (A) (A) (A) (A) (A) (A) (A)
                 (A) (A) (A) (A) (A) (A) (A) (A) (A) (A) (A) (A)
                 (A) (A) (A) (A) (A) (A) (A) (A) (A) (A) (A) (A)
                 (A) (A) (A) (A) (A) (A) (A) (A) (A) (A) (A) (A)
                 (A) (A) (A) (A) (A) (A) (A) (A) (A) (A) (A) (A)
                 (A) (A) (A) (A) (A) (A) (A) (A) (A) (A) (A) (A)
                 (A) (A) (A) (A) (A) (A) (A) (A) (A) (A) (A) (A)
                 (A) (A) (A) (A) (A) (A) (A) (A) (A) (A) (A) (A)
                 (A) (A) (A) (A) (A) (A) (A) (A) (A) (A) (A) (A)
                 (A) (A) (A) (A) (A) (A) (A) (A) (A) (A) (A) (A)
                 (A) (A) (A) (A) (A) (A) (A) (A) (A) (A) (A) (A)
                 (A) (A) (A) (A) (A) (A) (A) (A) (A) (A) (A) (A)
                 (A) (A) (A) (A) (A) (A) (A) (A) (A) (A) (A) (A)
                 (A) (A) (A) (A) (A) (A) (A) (A) (A) (A) (A) (A)
                 (A) (A) (A) (A) (A) (A) (A) (A) (A) (A) (A) (A)
                 (A) (A) (A) (A) (A) (A) (A) (A) (A) (A) (A) (A)
                 (A) (A)
 The electronic state of the initial guess is 1-A.
 Leave Link  401 at Sat Sep 10 08:32:22 2022, MaxMem=  209715200 cpu:      24.8
 (Enter /opt/gaussian/l502.exe)
 Closed shell SCF:
 Requested convergence on RMS density matrix=1.00D-08 within 128 cycles.
 Requested convergence on MAX density matrix=1.00D-06.
 Requested convergence on             energy=1.00D-06.
 No special actions if energy rises.
 Using DIIS extrapolation, IDIIS=  1040.
 Integral symmetry usage will be decided dynamically.
       434734 words used for storage of precomputed grid.
 IEnd=     1415942 IEndB=     1415942 NGot=   209715200 MDV=   208634559
 LenX=   208634559 LenY=   208315899
 Fock matrices will be formed incrementally for  20 cycles.
 Integral accuracy reduced to 1.0D-05 until final iterations.

 Cycle   1  Pass 0  IDiag  1:
 FoFCou: FMM=F IPFlag=           0 FMFlag=      100000 FMFlg1=           0
         NFxFlg=           0 DoJE=F BraDBF=F KetDBF=F FulRan=T
         Omega=  0.000000  0.000000  1.000000  0.000000  0.000000 ICntrl=       0 IOpCl=  0
         NMat0=    1 NMatS0=    1 NMatT0=    0 NMatD0=    1 NMtDS0=    0 NMtDT0=    0
         I1Cent=           0 NGrid=           0.
 Symmetry not used in FoFCou.
 E= -1672.57766155023    
 DIIS: error= 3.14D-02 at cycle   1 NSaved=   1.
 NSaved= 1 IEnMin= 1 EnMin= -1672.57766155023     IErMin= 1 ErrMin= 3.14D-02
 ErrMax= 3.14D-02 EMaxC= 1.00D-01 BMatC= 5.85D-01 BMatP= 5.85D-01
 IDIUse=3 WtCom= 6.86D-01 WtEn= 3.14D-01
 Coeff-Com:  0.100D+01
 Coeff-En:   0.100D+01
 Coeff:      0.100D+01
 Gap=     0.295 Goal=   None    Shift=    0.000
 GapD=    0.295 DampG=1.000 DampE=0.500 DampFc=0.5000 IDamp=-1.
 Damping current iteration by 5.00D-01
 RMSDP=4.12D-03 MaxDP=2.11D-01              OVMax= 2.97D-01

 Cycle   2  Pass 0  IDiag  1:
 RMSU=  1.44D-03    CP:  9.80D-01
 E= -1672.74011923030     Delta-E=       -0.162457680071 Rises=F Damp=T
 DIIS: error= 8.95D-03 at cycle   2 NSaved=   2.
 NSaved= 2 IEnMin= 2 EnMin= -1672.74011923030     IErMin= 2 ErrMin= 8.95D-03
 ErrMax= 8.95D-03 EMaxC= 1.00D-01 BMatC= 1.12D-01 BMatP= 5.85D-01
 IDIUse=3 WtCom= 9.11D-01 WtEn= 8.95D-02
 Coeff-Com:  0.242D+00 0.758D+00
 Coeff-En:   0.362D+00 0.638D+00
 Coeff:      0.252D+00 0.748D+00
 Gap=     0.262 Goal=   None    Shift=    0.000
 RMSDP=1.40D-03 MaxDP=6.70D-02 DE=-1.62D-01 OVMax= 2.85D-01

 Cycle   3  Pass 0  IDiag  1:
 RMSU=  9.25D-04    CP:  9.66D-01  7.72D-01
 E= -1673.14274816869     Delta-E=       -0.402628938390 Rises=F Damp=F
 DIIS: error= 9.04D-03 at cycle   3 NSaved=   3.
 NSaved= 3 IEnMin= 3 EnMin= -1673.14274816869     IErMin= 2 ErrMin= 8.95D-03
 ErrMax= 9.04D-03 EMaxC= 1.00D-01 BMatC= 8.70D-02 BMatP= 1.12D-01
 IDIUse=3 WtCom= 9.10D-01 WtEn= 9.04D-02
 Coeff-Com:  0.761D-01 0.459D+00 0.465D+00
 Coeff-En:   0.000D+00 0.000D+00 0.100D+01
 Coeff:      0.693D-01 0.418D+00 0.513D+00
 Gap=     0.183 Goal=   None    Shift=    0.000
 RMSDP=7.32D-04 MaxDP=5.69D-02 DE=-4.03D-01 OVMax= 7.93D-02

 Cycle   4  Pass 0  IDiag  1:
 RMSU=  3.92D-04    CP:  9.69D-01  8.44D-01  6.55D-01
 E= -1673.20595911073     Delta-E=       -0.063210942034 Rises=F Damp=F
 DIIS: error= 4.03D-03 at cycle   4 NSaved=   4.
 NSaved= 4 IEnMin= 4 EnMin= -1673.20595911073     IErMin= 4 ErrMin= 4.03D-03
 ErrMax= 4.03D-03 EMaxC= 1.00D-01 BMatC= 1.94D-02 BMatP= 8.70D-02
 IDIUse=3 WtCom= 9.60D-01 WtEn= 4.03D-02
 Coeff-Com:  0.178D-01 0.139D+00 0.332D+00 0.511D+00
 Coeff-En:   0.000D+00 0.000D+00 0.209D+00 0.791D+00
 Coeff:      0.171D-01 0.133D+00 0.327D+00 0.523D+00
 Gap=     0.176 Goal=   None    Shift=    0.000
 RMSDP=3.27D-04 MaxDP=1.94D-02 DE=-6.32D-02 OVMax= 4.10D-02

 Cycle   5  Pass 0  IDiag  1:
 RMSU=  1.42D-04    CP:  9.68D-01  8.24D-01  7.18D-01  5.65D-01
 E= -1673.22145550214     Delta-E=       -0.015496391413 Rises=F Damp=F
 DIIS: error= 2.27D-03 at cycle   5 NSaved=   5.
 NSaved= 5 IEnMin= 5 EnMin= -1673.22145550214     IErMin= 5 ErrMin= 2.27D-03
 ErrMax= 2.27D-03 EMaxC= 1.00D-01 BMatC= 2.14D-03 BMatP= 1.94D-02
 IDIUse=3 WtCom= 9.77D-01 WtEn= 2.27D-02
 Coeff-Com:  0.335D-02 0.272D-01 0.147D+00 0.338D+00 0.485D+00
 Coeff-En:   0.000D+00 0.000D+00 0.000D+00 0.993D-01 0.901D+00
 Coeff:      0.327D-02 0.266D-01 0.143D+00 0.333D+00 0.494D+00
 Gap=     0.177 Goal=   None    Shift=    0.000
 RMSDP=1.21D-04 MaxDP=6.98D-03 DE=-1.55D-02 OVMax= 1.64D-02

 Cycle   6  Pass 0  IDiag  1:
 RMSU=  3.84D-05    CP:  9.68D-01  8.23D-01  7.33D-01  6.50D-01  5.28D-01
 E= -1673.22366321229     Delta-E=       -0.002207710150 Rises=F Damp=F
 DIIS: error= 5.80D-04 at cycle   6 NSaved=   6.
 NSaved= 6 IEnMin= 6 EnMin= -1673.22366321229     IErMin= 6 ErrMin= 5.80D-04
 ErrMax= 5.80D-04 EMaxC= 1.00D-01 BMatC= 1.90D-04 BMatP= 2.14D-03
 IDIUse=3 WtCom= 9.94D-01 WtEn= 5.80D-03
 Coeff-Com:  0.230D-03-0.298D-02 0.429D-01 0.130D+00 0.290D+00 0.539D+00
 Coeff-En:   0.000D+00 0.000D+00 0.000D+00 0.000D+00 0.357D-01 0.964D+00
 Coeff:      0.229D-03-0.297D-02 0.426D-01 0.130D+00 0.289D+00 0.542D+00
 Gap=     0.177 Goal=   None    Shift=    0.000
 RMSDP=3.06D-05 MaxDP=2.38D-03 DE=-2.21D-03 OVMax= 4.59D-03

 Cycle   7  Pass 0  IDiag  1:
 RMSU=  1.35D-05    CP:  9.68D-01  8.23D-01  7.35D-01  6.44D-01  5.86D-01
                    CP:  6.26D-01
 E= -1673.22384973617     Delta-E=       -0.000186523876 Rises=F Damp=F
 DIIS: error= 1.70D-04 at cycle   7 NSaved=   7.
 NSaved= 7 IEnMin= 7 EnMin= -1673.22384973617     IErMin= 7 ErrMin= 1.70D-04
 ErrMax= 1.70D-04 EMaxC= 1.00D-01 BMatC= 1.92D-05 BMatP= 1.90D-04
 IDIUse=3 WtCom= 9.98D-01 WtEn= 1.70D-03
 Coeff-Com:  0.551D-04-0.414D-02 0.113D-01 0.426D-01 0.118D+00 0.313D+00
 Coeff-Com:  0.519D+00
 Coeff-En:   0.000D+00 0.000D+00 0.000D+00 0.000D+00 0.000D+00 0.330D-01
 Coeff-En:   0.967D+00
 Coeff:      0.550D-04-0.413D-02 0.113D-01 0.426D-01 0.118D+00 0.312D+00
 Coeff:      0.520D+00
 Gap=     0.177 Goal=   None    Shift=    0.000
 RMSDP=9.41D-06 MaxDP=7.28D-04 DE=-1.87D-04 OVMax= 1.15D-03

 Initial convergence to 1.0D-05 achieved.  Increase integral accuracy.
 Cycle   8  Pass 1  IDiag  1:
 E= -1673.22384699001     Delta-E=        0.000002746153 Rises=F Damp=F
 DIIS: error= 2.09D-04 at cycle   1 NSaved=   1.
 NSaved= 1 IEnMin= 1 EnMin= -1673.22384699001     IErMin= 1 ErrMin= 2.09D-04
 ErrMax= 2.09D-04 EMaxC= 1.00D-01 BMatC= 1.16D-05 BMatP= 1.16D-05
 IDIUse=3 WtCom= 9.98D-01 WtEn= 2.09D-03
 Coeff-Com:  0.100D+01
 Coeff-En:   0.100D+01
 Coeff:      0.100D+01
 Gap=     0.177 Goal=   None    Shift=    0.000
 RMSDP=9.41D-06 MaxDP=7.28D-04 DE= 2.75D-06 OVMax= 9.26D-04

 Cycle   9  Pass 1  IDiag  1:
 RMSU=  8.79D-05    CP:  1.00D+00
 E= -1673.22385173586     Delta-E=       -0.000004745847 Rises=F Damp=F
 DIIS: error= 1.14D-04 at cycle   2 NSaved=   2.
 NSaved= 2 IEnMin= 2 EnMin= -1673.22385173586     IErMin= 2 ErrMin= 1.14D-04
 ErrMax= 1.14D-04 EMaxC= 1.00D-01 BMatC= 6.23D-06 BMatP= 1.16D-05
 IDIUse=3 WtCom= 9.99D-01 WtEn= 1.14D-03
 Coeff-Com:  0.385D+00 0.615D+00
 Coeff-En:   0.257D+00 0.743D+00
 Coeff:      0.385D+00 0.615D+00
 Gap=     0.177 Goal=   None    Shift=    0.000
 RMSDP=9.71D-06 MaxDP=4.79D-04 DE=-4.75D-06 OVMax= 1.12D-03

 Cycle  10  Pass 1  IDiag  1:
 RMSU=  6.87D-06    CP:  1.00D+00  1.00D+00
 E= -1673.22385140780     Delta-E=        0.000000328060 Rises=F Damp=F
 DIIS: error= 1.19D-04 at cycle   3 NSaved=   3.
 NSaved= 3 IEnMin= 2 EnMin= -1673.22385173586     IErMin= 2 ErrMin= 1.14D-04
 ErrMax= 1.19D-04 EMaxC= 1.00D-01 BMatC= 6.48D-06 BMatP= 6.23D-06
 IDIUse=3 WtCom= 9.99D-01 WtEn= 1.19D-03
 Coeff-Com:  0.207D-02 0.504D+00 0.494D+00
 Coeff-En:   0.000D+00 0.508D+00 0.492D+00
 Coeff:      0.206D-02 0.504D+00 0.494D+00
 Gap=     0.177 Goal=   None    Shift=    0.000
 RMSDP=5.20D-06 MaxDP=2.59D-04 DE= 3.28D-07 OVMax= 6.50D-04

 Cycle  11  Pass 1  IDiag  1:
 RMSU=  7.55D-07    CP:  1.00D+00  1.01D+00  4.84D-01
 E= -1673.22385845930     Delta-E=       -0.000007051501 Rises=F Damp=F
 DIIS: error= 1.15D-05 at cycle   4 NSaved=   4.
 NSaved= 4 IEnMin= 4 EnMin= -1673.22385845930     IErMin= 4 ErrMin= 1.15D-05
 ErrMax= 1.15D-05 EMaxC= 1.00D-01 BMatC= 1.18D-07 BMatP= 6.23D-06
 IDIUse=1 WtCom= 1.00D+00 WtEn= 0.00D+00
 Coeff-Com: -0.373D-02 0.320D+00 0.321D+00 0.362D+00
 Coeff:     -0.373D-02 0.320D+00 0.321D+00 0.362D+00
 Gap=     0.177 Goal=   None    Shift=    0.000
 RMSDP=6.96D-07 MaxDP=4.24D-05 DE=-7.05D-06 OVMax= 7.70D-05

 Cycle  12  Pass 1  IDiag  1:
 RMSU=  2.14D-07    CP:  1.00D+00  1.01D+00  4.97D-01  4.25D-01
 E= -1673.22385857328     Delta-E=       -0.000000113977 Rises=F Damp=F
 DIIS: error= 1.79D-06 at cycle   5 NSaved=   5.
 NSaved= 5 IEnMin= 5 EnMin= -1673.22385857328     IErMin= 5 ErrMin= 1.79D-06
 ErrMax= 1.79D-06 EMaxC= 1.00D-01 BMatC= 3.31D-09 BMatP= 1.18D-07
 IDIUse=1 WtCom= 1.00D+00 WtEn= 0.00D+00
 Coeff-Com: -0.235D-02 0.170D+00 0.171D+00 0.219D+00 0.443D+00
 Coeff:     -0.235D-02 0.170D+00 0.171D+00 0.219D+00 0.443D+00
 Gap=     0.177 Goal=   None    Shift=    0.000
 RMSDP=1.35D-07 MaxDP=9.78D-06 DE=-1.14D-07 OVMax= 1.43D-05

 Cycle  13  Pass 1  IDiag  1:
 RMSU=  7.41D-08    CP:  1.00D+00  1.01D+00  4.98D-01  4.50D-01  7.33D-01
 E= -1673.22385857616     Delta-E=       -0.000000002881 Rises=F Damp=F
 DIIS: error= 5.13D-07 at cycle   6 NSaved=   6.
 NSaved= 6 IEnMin= 6 EnMin= -1673.22385857616     IErMin= 6 ErrMin= 5.13D-07
 ErrMax= 5.13D-07 EMaxC= 1.00D-01 BMatC= 3.19D-10 BMatP= 3.31D-09
 IDIUse=1 WtCom= 1.00D+00 WtEn= 0.00D+00
 Coeff-Com: -0.950D-03 0.629D-01 0.631D-01 0.879D-01 0.269D+00 0.518D+00
 Coeff:     -0.950D-03 0.629D-01 0.631D-01 0.879D-01 0.269D+00 0.518D+00
 Gap=     0.177 Goal=   None    Shift=    0.000
 RMSDP=4.01D-08 MaxDP=3.38D-06 DE=-2.88D-09 OVMax= 4.30D-06

 Cycle  14  Pass 1  IDiag  1:
 RMSU=  2.14D-08    CP:  1.00D+00  1.01D+00  4.98D-01  4.56D-01  7.67D-01
                    CP:  7.81D-01
 E= -1673.22385857643     Delta-E=       -0.000000000273 Rises=F Damp=F
 DIIS: error= 1.89D-07 at cycle   7 NSaved=   7.
 NSaved= 7 IEnMin= 7 EnMin= -1673.22385857643     IErMin= 7 ErrMin= 1.89D-07
 ErrMax= 1.89D-07 EMaxC= 1.00D-01 BMatC= 3.64D-11 BMatP= 3.19D-10
 IDIUse=1 WtCom= 1.00D+00 WtEn= 0.00D+00
 Coeff-Com: -0.211D-03 0.117D-01 0.117D-01 0.190D-01 0.911D-01 0.299D+00
 Coeff-Com:  0.567D+00
 Coeff:     -0.211D-03 0.117D-01 0.117D-01 0.190D-01 0.911D-01 0.299D+00
 Coeff:      0.567D+00
 Gap=     0.177 Goal=   None    Shift=    0.000
 RMSDP=1.48D-08 MaxDP=9.22D-07 DE=-2.73D-10 OVMax= 1.81D-06

 Cycle  15  Pass 1  IDiag  1:
 RMSU=  6.99D-09    CP:  1.00D+00  1.01D+00  4.98D-01  4.55D-01  7.79D-01
                    CP:  8.15D-01  6.81D-01
 E= -1673.22385857647     Delta-E=       -0.000000000037 Rises=F Damp=F
 DIIS: error= 6.42D-08 at cycle   8 NSaved=   8.
 NSaved= 8 IEnMin= 8 EnMin= -1673.22385857647     IErMin= 8 ErrMin= 6.42D-08
 ErrMax= 6.42D-08 EMaxC= 1.00D-01 BMatC= 5.54D-12 BMatP= 3.64D-11
 IDIUse=1 WtCom= 1.00D+00 WtEn= 0.00D+00
 Coeff-Com:  0.361D-04-0.364D-02-0.372D-02-0.345D-02 0.919D-02 0.951D-01
 Coeff-Com:  0.333D+00 0.573D+00
 Coeff:      0.361D-04-0.364D-02-0.372D-02-0.345D-02 0.919D-02 0.951D-01
 Coeff:      0.333D+00 0.573D+00
 Gap=     0.177 Goal=   None    Shift=    0.000
 RMSDP=5.67D-09 MaxDP=2.81D-07 DE=-3.73D-11 OVMax= 7.43D-07

 SCF Done:  E(RB3LYP) =  -1673.22385858     A.U. after   15 cycles
             Convg  =    0.5668D-08             -V/T =  2.0057
 KE= 1.663765406985D+03 PE=-9.670494043564D+03 EE= 3.452160001311D+03
 Leave Link  502 at Sat Sep 10 08:44:43 2022, MaxMem=  209715200 cpu:    5483.8
 (Enter /opt/gaussian/l601.exe)
 Copying SCF densities to generalized density rwf, IOpCl= 0 IROHF=0.

 **********************************************************************

            Population analysis using the SCF density.

 **********************************************************************

 Orbital symmetries:
       Occupied  (A) (A) (A) (A) (A) (A) (A) (A) (A) (A) (A) (A)
                 (A) (A) (A) (A) (A) (A) (A) (A) (A) (A) (A) (A)
                 (A) (A) (A) (A) (A) (A) (A) (A) (A) (A) (A) (A)
                 (A) (A) (A) (A) (A) (A) (A) (A) (A) (A) (A) (A)
                 (A) (A) (A) (A) (A) (A) (A) (A) (A) (A) (A) (A)
                 (A) (A) (A) (A) (A) (A) (A) (A) (A) (A) (A) (A)
                 (A) (A) (A) (A) (A) (A) (A) (A) (A) (A) (A) (A)
                 (A) (A) (A) (A) (A) (A) (A) (A) (A) (A) (A) (A)
                 (A) (A) (A) (A) (A) (A) (A) (A) (A) (A) (A) (A)
                 (A) (A) (A)
       Virtual   (A) (A) (A) (A) (A) (A) (A) (A) (A) (A) (A) (A)
                 (A) (A) (A) (A) (A) (A) (A) (A) (A) (A) (A) (A)
                 (A) (A) (A) (A) (A) (A) (A) (A) (A) (A) (A) (A)
                 (A) (A) (A) (A) (A) (A) (A) (A) (A) (A) (A) (A)
                 (A) (A) (A) (A) (A) (A) (A) (A) (A) (A) (A) (A)
                 (A) (A) (A) (A) (A) (A) (A) (A) (A) (A) (A) (A)
                 (A) (A) (A) (A) (A) (A) (A) (A) (A) (A) (A) (A)
                 (A) (A) (A) (A) (A) (A) (A) (A) (A) (A) (A) (A)
                 (A) (A) (A) (A) (A) (A) (A) (A) (A) (A) (A) (A)
                 (A) (A) (A) (A) (A) (A) (A) (A) (A) (A) (A) (A)
                 (A) (A) (A) (A) (A) (A) (A) (A) (A) (A) (A) (A)
                 (A) (A) (A) (A) (A) (A) (A) (A) (A) (A) (A) (A)
                 (A) (A) (A) (A) (A) (A) (A) (A) (A) (A) (A) (A)
                 (A) (A) (A) (A) (A) (A) (A) (A) (A) (A) (A) (A)
                 (A) (A) (A) (A) (A) (A) (A) (A) (A) (A) (A) (A)
                 (A) (A) (A) (A) (A) (A) (A) (A) (A) (A) (A) (A)
                 (A) (A) (A) (A) (A) (A) (A) (A) (A) (A) (A) (A)
                 (A) (A) (A) (A) (A) (A) (A) (A) (A) (A) (A) (A)
                 (A) (A) (A) (A) (A) (A) (A) (A) (A) (A) (A) (A)
                 (A) (A) (A) (A) (A) (A) (A) (A) (A) (A) (A) (A)
                 (A) (A) (A) (A) (A) (A) (A) (A) (A) (A) (A) (A)
                 (A) (A) (A) (A) (A) (A) (A) (A) (A) (A) (A) (A)
                 (A) (A) (A) (A) (A) (A) (A) (A) (A) (A) (A) (A)
                 (A) (A) (A) (A) (A) (A) (A) (A) (A) (A) (A) (A)
                 (A) (A) (A) (A) (A) (A) (A) (A) (A) (A) (A) (A)
                 (A) (A) (A) (A) (A) (A) (A) (A) (A) (A) (A) (A)
                 (A) (A) (A) (A) (A) (A) (A) (A) (A) (A) (A) (A)
                 (A) (A) (A) (A) (A) (A) (A) (A) (A) (A) (A) (A)
                 (A) (A) (A) (A) (A) (A) (A) (A) (A) (A) (A) (A)
                 (A) (A) (A) (A) (A) (A) (A) (A) (A) (A) (A) (A)
                 (A) (A) (A) (A) (A) (A) (A) (A) (A) (A) (A) (A)
                 (A) (A) (A) (A) (A) (A) (A) (A) (A) (A) (A) (A)
                 (A) (A) (A) (A) (A) (A) (A) (A) (A) (A) (A) (A)
                 (A) (A) (A) (A) (A) (A) (A) (A) (A) (A) (A) (A)
                 (A) (A) (A) (A) (A) (A) (A) (A) (A) (A) (A) (A)
                 (A) (A)
 The electronic state is 1-A.
 Alpha  occ. eigenvalues --  -88.92546 -19.12947 -14.41198 -14.39014 -14.38984
 Alpha  occ. eigenvalues --  -14.34793 -14.32815 -10.31079 -10.26271 -10.25923
 Alpha  occ. eigenvalues --  -10.25067 -10.23378 -10.23236 -10.23124 -10.22668
 Alpha  occ. eigenvalues --  -10.22634 -10.22327 -10.22219 -10.21706 -10.21362
 Alpha  occ. eigenvalues --  -10.21262 -10.21145 -10.21125 -10.20936 -10.20818
 Alpha  occ. eigenvalues --  -10.20548 -10.20366 -10.20307 -10.20169 -10.19955
 Alpha  occ. eigenvalues --  -10.19545  -7.98750  -5.95073  -5.94693  -5.94388
 Alpha  occ. eigenvalues --   -1.09476  -1.06187  -0.96980  -0.94446  -0.92570
 Alpha  occ. eigenvalues --   -0.89986  -0.87792  -0.86510  -0.82599  -0.78914
 Alpha  occ. eigenvalues --   -0.78181  -0.77214  -0.77035  -0.76314  -0.75625
 Alpha  occ. eigenvalues --   -0.74731  -0.73932  -0.70610  -0.66585  -0.64974
 Alpha  occ. eigenvalues --   -0.64404  -0.62530  -0.62125  -0.61806  -0.59540
 Alpha  occ. eigenvalues --   -0.59019  -0.57351  -0.56334  -0.54350  -0.53698
 Alpha  occ. eigenvalues --   -0.52928  -0.52575  -0.51799  -0.50912  -0.49595
 Alpha  occ. eigenvalues --   -0.48340  -0.47750  -0.46915  -0.46765  -0.46208
 Alpha  occ. eigenvalues --   -0.46167  -0.45179  -0.44645  -0.44253  -0.43836
 Alpha  occ. eigenvalues --   -0.43729  -0.43130  -0.42868  -0.42425  -0.41034
 Alpha  occ. eigenvalues --   -0.40566  -0.40332  -0.39691  -0.38969  -0.38291
 Alpha  occ. eigenvalues --   -0.37900  -0.37665  -0.37391  -0.36768  -0.36251
 Alpha  occ. eigenvalues --   -0.35776  -0.35654  -0.33086  -0.31700  -0.31198
 Alpha  occ. eigenvalues --   -0.28426  -0.28096  -0.26943  -0.26850  -0.26840
 Alpha  occ. eigenvalues --   -0.26611  -0.25943  -0.25735  -0.25021  -0.23964
 Alpha  occ. eigenvalues --   -0.23534
 Alpha virt. eigenvalues --   -0.05859  -0.04271  -0.03622  -0.02910  -0.01993
 Alpha virt. eigenvalues --   -0.00964   0.00544   0.01314   0.01625   0.02590
 Alpha virt. eigenvalues --    0.03449   0.04267   0.05346   0.05929   0.06559
 Alpha virt. eigenvalues --    0.07157   0.07332   0.08064   0.08580   0.08941
 Alpha virt. eigenvalues --    0.09919   0.10168   0.10646   0.11291   0.11502
 Alpha virt. eigenvalues --    0.12440   0.13193   0.13641   0.14295   0.14689
 Alpha virt. eigenvalues --    0.14935   0.15484   0.15847   0.16184   0.17709
 Alpha virt. eigenvalues --    0.18758   0.19304   0.20068   0.20277   0.21685
 Alpha virt. eigenvalues --    0.22380   0.24032   0.24490   0.25028   0.26091
 Alpha virt. eigenvalues --    0.26373   0.27306   0.28003   0.28651   0.29064
 Alpha virt. eigenvalues --    0.29512   0.30029   0.30669   0.31598   0.32258
 Alpha virt. eigenvalues --    0.32679   0.33765   0.34339   0.35507   0.36095
 Alpha virt. eigenvalues --    0.37787   0.39746   0.39948   0.40676   0.40971
 Alpha virt. eigenvalues --    0.41956   0.42164   0.42835   0.43155   0.43249
 Alpha virt. eigenvalues --    0.43692   0.44160   0.44451   0.45257   0.45472
 Alpha virt. eigenvalues --    0.45933   0.46025   0.46463   0.46626   0.46963
 Alpha virt. eigenvalues --    0.47041   0.47259   0.47631   0.47925   0.48132
 Alpha virt. eigenvalues --    0.48497   0.49376   0.49420   0.49792   0.50337
 Alpha virt. eigenvalues --    0.50425   0.50772   0.51131   0.51669   0.52012
 Alpha virt. eigenvalues --    0.52161   0.52629   0.52936   0.53143   0.53555
 Alpha virt. eigenvalues --    0.54525   0.54942   0.55119   0.55270   0.55922
 Alpha virt. eigenvalues --    0.56389   0.56960   0.57979   0.58236   0.58529
 Alpha virt. eigenvalues --    0.59392   0.59653   0.59864   0.60192   0.60470
 Alpha virt. eigenvalues --    0.60711   0.61318   0.61485   0.61705   0.62285
 Alpha virt. eigenvalues --    0.63372   0.63877   0.64053   0.64492   0.64586
 Alpha virt. eigenvalues --    0.65318   0.66238   0.66458   0.66489   0.66907
 Alpha virt. eigenvalues --    0.67214   0.67834   0.68349   0.68991   0.69692
 Alpha virt. eigenvalues --    0.69945   0.70216   0.70767   0.71183   0.72219
 Alpha virt. eigenvalues --    0.72621   0.73372   0.73792   0.74908   0.75430
 Alpha virt. eigenvalues --    0.76190   0.76886   0.78250   0.78386   0.79593
 Alpha virt. eigenvalues --    0.80138   0.82110   0.82708   0.83567   0.83974
 Alpha virt. eigenvalues --    0.85064   0.85597   0.86382   0.87121   0.87202
 Alpha virt. eigenvalues --    0.87429   0.87855   0.88267   0.88524   0.89332
 Alpha virt. eigenvalues --    0.89653   0.89762   0.90370   0.91974   0.92571
 Alpha virt. eigenvalues --    0.92893   0.93730   0.94437   0.94695   0.95829
 Alpha virt. eigenvalues --    0.96090   0.96344   0.97166   0.97281   0.98406
 Alpha virt. eigenvalues --    0.98626   0.99471   0.99656   1.00231   1.00321
 Alpha virt. eigenvalues --    1.00426   1.01196   1.01612   1.02132   1.02202
 Alpha virt. eigenvalues --    1.02600   1.03248   1.03970   1.04675   1.05080
 Alpha virt. eigenvalues --    1.05773   1.06339   1.06533   1.07268   1.07980
 Alpha virt. eigenvalues --    1.09230   1.10244   1.10832   1.11685   1.11970
 Alpha virt. eigenvalues --    1.12656   1.14151   1.14240   1.16127   1.16618
 Alpha virt. eigenvalues --    1.18123   1.18158   1.18408   1.20112   1.21684
 Alpha virt. eigenvalues --    1.22183   1.22952   1.23632   1.24387   1.24729
 Alpha virt. eigenvalues --    1.25920   1.27000   1.28016   1.29790   1.30315
 Alpha virt. eigenvalues --    1.31238   1.31522   1.32320   1.33497   1.33851
 Alpha virt. eigenvalues --    1.35072   1.35545   1.36090   1.37796   1.38435
 Alpha virt. eigenvalues --    1.39805   1.41992   1.43417   1.44138   1.45500
 Alpha virt. eigenvalues --    1.45821   1.46289   1.47568   1.47946   1.48792
 Alpha virt. eigenvalues --    1.49206   1.49926   1.50615   1.50848   1.51334
 Alpha virt. eigenvalues --    1.52067   1.52695   1.53564   1.54157   1.55371
 Alpha virt. eigenvalues --    1.55588   1.56507   1.56873   1.57608   1.57890
 Alpha virt. eigenvalues --    1.57990   1.58643   1.58830   1.59181   1.59619
 Alpha virt. eigenvalues --    1.60413   1.60493   1.61641   1.62528   1.62839
 Alpha virt. eigenvalues --    1.63710   1.63790   1.64393   1.64970   1.65342
 Alpha virt. eigenvalues --    1.65952   1.66315   1.66724   1.67468   1.67716
 Alpha virt. eigenvalues --    1.68081   1.68631   1.68845   1.69559   1.69786
 Alpha virt. eigenvalues --    1.70202   1.70861   1.71911   1.72310   1.73034
 Alpha virt. eigenvalues --    1.73569   1.73775   1.75040   1.75418   1.75689
 Alpha virt. eigenvalues --    1.76684   1.77325   1.77823   1.78092   1.78877
 Alpha virt. eigenvalues --    1.79133   1.79916   1.80729   1.81247   1.81566
 Alpha virt. eigenvalues --    1.81968   1.82682   1.83100   1.83777   1.84128
 Alpha virt. eigenvalues --    1.84560   1.85341   1.85699   1.86168   1.87364
 Alpha virt. eigenvalues --    1.87585   1.89096   1.89672   1.89823   1.90622
 Alpha virt. eigenvalues --    1.91021   1.92029   1.93078   1.94437   1.94493
 Alpha virt. eigenvalues --    1.95087   1.96322   1.96615   1.97067   1.97684
 Alpha virt. eigenvalues --    1.98171   1.98306   1.98791   1.99665   2.00104
 Alpha virt. eigenvalues --    2.00174   2.01415   2.02503   2.03060   2.03586
 Alpha virt. eigenvalues --    2.05533   2.06417   2.07266   2.08160   2.08998
 Alpha virt. eigenvalues --    2.09985   2.11286   2.12491   2.12666   2.14089
 Alpha virt. eigenvalues --    2.15729   2.17627   2.18291   2.19562   2.19771
 Alpha virt. eigenvalues --    2.20796   2.21921   2.22334   2.25105   2.26624
 Alpha virt. eigenvalues --    2.27059   2.28814   2.29151   2.33185   2.34829
 Alpha virt. eigenvalues --    2.36207   2.36346   2.37307   2.38233   2.39255
 Alpha virt. eigenvalues --    2.39715   2.41941   2.41975   2.42775   2.43388
 Alpha virt. eigenvalues --    2.43624   2.44220   2.44970   2.45876   2.46838
 Alpha virt. eigenvalues --    2.49128   2.49506   2.51591   2.51840   2.52723
 Alpha virt. eigenvalues --    2.55504   2.57359   2.57888   2.59008   2.61619
 Alpha virt. eigenvalues --    2.62298   2.63180   2.64718   2.66773   2.68945
 Alpha virt. eigenvalues --    2.69895   2.70373   2.71564   2.72990   2.73632
 Alpha virt. eigenvalues --    2.76145   2.77435   2.78536   2.80722   2.80820
 Alpha virt. eigenvalues --    2.84891   2.85421   2.85799   2.90814   2.93185
 Alpha virt. eigenvalues --    2.95917   2.97238   2.98236   3.03701   3.07014
 Alpha virt. eigenvalues --    3.09977   3.15024   3.37026   3.40353   3.48511
 Alpha virt. eigenvalues --    3.53239   3.53594
          Condensed to atoms (all electrons):
              1          2          3          4          5          6
     1  O    7.601986   0.769411  -0.089084  -0.003224   0.000044   0.000007
     2  C    0.769411   4.622548   0.288379  -0.041946  -0.001043  -0.000303
     3  C   -0.089084   0.288379   4.790426   0.367157  -0.046240   0.006635
     4  N   -0.003224  -0.041946   0.367157   6.506030   0.290656  -0.113255
     5  N    0.000044  -0.001043  -0.046240   0.290656   6.545613   0.460926
     6  N    0.000007  -0.000303   0.006635  -0.113255   0.460926   6.428387
     7  C   -0.000952  -0.001085   0.010963  -0.004307  -0.125116   0.508998
     8  C   -0.000018   0.000022  -0.000476   0.007224   0.000558  -0.050700
     9  C    0.000011  -0.000002   0.000042   0.000507   0.000118   0.004326
    10  C   -0.000010   0.000073  -0.000353   0.002550  -0.000118  -0.000700
    11  C    0.003014   0.002088  -0.005454  -0.060506   0.003374   0.011585
    12  C    0.011425   0.002566  -0.077222   0.322514  -0.092314  -0.072780
    13  N   -0.070858   0.367101  -0.075449   0.001611  -0.000016   0.000000
    14  C    0.002951  -0.049387   0.008448   0.000131   0.000025   0.000000
    15  C   -0.000191  -0.002482  -0.008684   0.000072  -0.000001   0.000000
    16  C   -0.000004  -0.000036  -0.000761   0.000000   0.000000   0.000000
    17  C    0.000000  -0.000009   0.000057   0.000000   0.000000   0.000000
    18  S    0.000000  -0.000088   0.000110   0.000000   0.000000   0.000000
    19  C   -0.000101   0.001275  -0.002013  -0.000017   0.000000   0.000000
    20  C   -0.006294  -0.052767   0.007243  -0.000061  -0.000001   0.000000
    21  C   -0.000678   0.000632  -0.000594   0.000002   0.000000   0.000000
    22  C    0.000031   0.000209   0.000005   0.000000   0.000000   0.000000
    23  C   -0.000013  -0.000019   0.000000   0.000000   0.000000   0.000000
    24  C   -0.000160   0.000202   0.000000   0.000000   0.000000   0.000000
    25  C    0.002156  -0.009575   0.000469  -0.000004   0.000000   0.000000
    26  C    0.000000   0.000001   0.000000   0.000000   0.000000   0.000000
    27  C    0.000000   0.000000   0.000000   0.000000   0.000000   0.000000
    28  C    0.000000   0.000000   0.000000   0.000000   0.000000   0.000000
    29  N    0.000000   0.000000   0.000000   0.000000   0.000000   0.000000
    30  C    0.000000   0.000000   0.000000   0.000000   0.000000   0.000000
    31  C    0.000000   0.000000   0.000000   0.000000   0.000000   0.000000
    32  H    0.000720  -0.002240   0.333201  -0.020390   0.021293   0.000199
    33  H    0.001192  -0.020342   0.355717  -0.020935   0.002209  -0.000378
    34  H    0.000000   0.000000   0.000002  -0.000011  -0.000553  -0.000921
    35  H    0.000000   0.000000  -0.000001   0.000002   0.000008  -0.000096
    36  H   -0.000002   0.000000  -0.000014  -0.000134   0.000005  -0.000008
    37  H    0.001507   0.000188   0.002005  -0.006402  -0.000278  -0.000235
    38  H    0.000323  -0.012595   0.013794   0.000393  -0.000140   0.000001
    39  H   -0.000181   0.005693  -0.000903  -0.000010   0.000000   0.000000
    40  H    0.000000  -0.000027  -0.000040   0.000000   0.000000   0.000000
    41  H    0.000000   0.000000   0.000000   0.000000   0.000000   0.000000
    42  H   -0.000357   0.000816  -0.000567   0.000006   0.000000   0.000000
    43  H   -0.000040  -0.000655  -0.000045   0.000000   0.000000   0.000000
    44  H    0.000000   0.000002   0.000000   0.000000   0.000000   0.000000
    45  H   -0.000023  -0.000013   0.000000   0.000000   0.000000   0.000000
    46  H    0.011639   0.001166   0.000223  -0.000013   0.000000   0.000000
    47  H    0.000000   0.000000   0.000000   0.000000   0.000000   0.000000
    48  H    0.000000   0.000000   0.000000   0.000000   0.000000   0.000000
    49  H    0.000000   0.000000   0.000000   0.000000   0.000000   0.000000
    50  H    0.000000   0.000000   0.000000   0.000000   0.000000   0.000000
              7          8          9         10         11         12
     1  O   -0.000952  -0.000018   0.000011  -0.000010   0.003014   0.011425
     2  C   -0.001085   0.000022  -0.000002   0.000073   0.002088   0.002566
     3  C    0.010963  -0.000476   0.000042  -0.000353  -0.005454  -0.077222
     4  N   -0.004307   0.007224   0.000507   0.002550  -0.060506   0.322514
     5  N   -0.125116   0.000558   0.000118  -0.000118   0.003374  -0.092314
     6  N    0.508998  -0.050700   0.004326  -0.000700   0.011585  -0.072780
     7  C    4.981214   0.427458   0.028608  -0.078392  -0.016588   0.279123
     8  C    0.427458   4.777636   0.497056   0.014141  -0.072162   0.014119
     9  C    0.028608   0.497056   4.758781   0.465232   0.007052  -0.089418
    10  C   -0.078392   0.014141   0.465232   4.717047   0.511839   0.028471
    11  C   -0.016588  -0.072162   0.007052   0.511839   4.867227   0.391577
    12  C    0.279123   0.014119  -0.089418   0.028471   0.391577   5.064420
    13  N   -0.000011   0.000000   0.000000  -0.000001  -0.000044   0.000421
    14  C    0.000001   0.000000   0.000000   0.000000   0.000004   0.000007
    15  C   -0.000001   0.000000   0.000000   0.000000  -0.000013  -0.000025
    16  C    0.000000   0.000000   0.000000   0.000000   0.000003   0.000000
    17  C    0.000000   0.000000   0.000000   0.000000   0.000002   0.000000
    18  S    0.000000   0.000000   0.000000   0.000000  -0.000052  -0.000001
    19  C   -0.000001   0.000000   0.000000   0.000003  -0.000264  -0.000062
    20  C    0.000000   0.000000   0.000000   0.000000   0.000005   0.000010
    21  C    0.000000   0.000000   0.000000   0.000000   0.000000   0.000000
    22  C    0.000000   0.000000   0.000000   0.000000   0.000000   0.000000
    23  C    0.000000   0.000000   0.000000   0.000000   0.000000   0.000000
    24  C    0.000000   0.000000   0.000000   0.000000   0.000000   0.000000
    25  C    0.000000   0.000000   0.000000   0.000000  -0.000018  -0.000013
    26  C    0.000000   0.000000   0.000000   0.000000   0.000000   0.000000
    27  C    0.000000   0.000000   0.000000   0.000000   0.000000   0.000000
    28  C    0.000000   0.000000   0.000000   0.000000   0.000000   0.000000
    29  N    0.000000   0.000000   0.000000   0.000000   0.000000   0.000000
    30  C    0.000000   0.000000   0.000000   0.000000   0.000000   0.000000
    31  C    0.000000   0.000000   0.000000   0.000000   0.000000   0.000000
    32  H   -0.000720  -0.000019   0.000003   0.000015   0.000335   0.010642
    33  H    0.000847   0.000031  -0.000019   0.000031   0.001707  -0.002210
    34  H   -0.041010   0.377146  -0.058528   0.010126  -0.001352   0.015972
    35  H    0.010754  -0.048169   0.389588  -0.051147   0.011425  -0.000938
    36  H   -0.000737   0.010974  -0.049847   0.386126  -0.047326   0.010809
    37  H    0.009433  -0.000022   0.008715  -0.044874   0.365887  -0.030994
    38  H   -0.000001   0.000000   0.000000   0.000000   0.000001  -0.000023
    39  H    0.000000   0.000000   0.000000   0.000000   0.000000   0.000001
    40  H    0.000000   0.000000   0.000000   0.000000   0.000000   0.000000
    41  H    0.000000   0.000000   0.000000   0.000000   0.000000   0.000000
    42  H    0.000000   0.000000   0.000000  -0.000001  -0.000027   0.000001
    43  H    0.000000   0.000000   0.000000   0.000000   0.000000   0.000000
    44  H    0.000000   0.000000   0.000000   0.000000   0.000000   0.000000
    45  H    0.000000   0.000000   0.000000   0.000000   0.000000   0.000000
    46  H    0.000000   0.000000   0.000000   0.000005   0.000097   0.000004
    47  H    0.000000   0.000000   0.000000   0.000000   0.000000   0.000000
    48  H    0.000000   0.000000   0.000000   0.000000   0.000000   0.000000
    49  H    0.000000   0.000000   0.000000   0.000000   0.000000   0.000000
    50  H    0.000000   0.000000   0.000000   0.000000   0.000000   0.000000
             13         14         15         16         17         18
     1  O   -0.070858   0.002951  -0.000191  -0.000004   0.000000   0.000000
     2  C    0.367101  -0.049387  -0.002482  -0.000036  -0.000009  -0.000088
     3  C   -0.075449   0.008448  -0.008684  -0.000761   0.000057   0.000110
     4  N    0.001611   0.000131   0.000072   0.000000   0.000000   0.000000
     5  N   -0.000016   0.000025  -0.000001   0.000000   0.000000   0.000000
     6  N    0.000000   0.000000   0.000000   0.000000   0.000000   0.000000
     7  C   -0.000011   0.000001  -0.000001   0.000000   0.000000   0.000000
     8  C    0.000000   0.000000   0.000000   0.000000   0.000000   0.000000
     9  C    0.000000   0.000000   0.000000   0.000000   0.000000   0.000000
    10  C   -0.000001   0.000000   0.000000   0.000000   0.000000   0.000000
    11  C   -0.000044   0.000004  -0.000013   0.000003   0.000002  -0.000052
    12  C    0.000421   0.000007  -0.000025   0.000000   0.000000  -0.000001
    13  N    6.579616   0.366528  -0.051359   0.003977  -0.000190   0.000100
    14  C    0.366528   4.661403   0.393684  -0.070360   0.007833   0.008765
    15  C   -0.051359   0.393684   4.876064   0.450591  -0.006740  -0.080881
    16  C    0.003977  -0.070360   0.450591   4.760610   0.548346  -0.092577
    17  C   -0.000190   0.007833  -0.006740   0.548346   4.953917   0.368534
    18  S    0.000100   0.008765  -0.080881  -0.092577   0.368534  15.357526
    19  C    0.002956  -0.093033   0.546841  -0.038593  -0.104379   0.356407
    20  C    0.295776  -0.057952  -0.001825  -0.000242   0.000007  -0.000056
    21  C   -0.044292  -0.009694   0.000184  -0.000081   0.000003  -0.000004
    22  C    0.004281   0.000357  -0.000031   0.000000   0.000000   0.000000
    23  C    0.000465  -0.000032   0.000010   0.000000   0.000000   0.000000
    24  C    0.004383  -0.000089  -0.000041   0.000001   0.000000   0.000001
    25  C   -0.048990   0.004202   0.000372  -0.000023   0.000001   0.000019
    26  C    0.000002   0.000000   0.000000   0.000000   0.000000   0.000000
    27  C    0.000000   0.000000   0.000000   0.000000   0.000000   0.000000
    28  C    0.000000   0.000000   0.000000   0.000000   0.000000   0.000000
    29  N    0.000000   0.000000   0.000000   0.000000   0.000000   0.000000
    30  C    0.000000   0.000000   0.000000   0.000000   0.000000   0.000000
    31  C    0.000000   0.000000   0.000000   0.000000   0.000000   0.000000
    32  H   -0.000488  -0.000090  -0.000741  -0.000046  -0.000009   0.000002
    33  H   -0.001125   0.003209   0.003988   0.001423  -0.000214  -0.000491
    34  H    0.000000   0.000000   0.000000   0.000000   0.000000   0.000000
    35  H    0.000000   0.000000   0.000000   0.000000   0.000000   0.000000
    36  H    0.000000   0.000000   0.000000   0.000000   0.000000  -0.000001
    37  H   -0.000044  -0.000042   0.000183  -0.000031  -0.000027   0.000341
    38  H   -0.015442   0.346779  -0.019687  -0.007205   0.000134  -0.000191
    39  H   -0.013268   0.353209  -0.016024   0.000009  -0.000007  -0.000010
    40  H    0.000168  -0.008920  -0.049215   0.401076  -0.055842   0.008144
    41  H    0.000003  -0.000219   0.006776  -0.016319   0.387540  -0.043432
    42  H    0.004062  -0.018565  -0.010954   0.011643   0.001709  -0.043328
    43  H   -0.006795  -0.000275   0.000848  -0.000019   0.000001  -0.000001
    44  H   -0.000167  -0.000006  -0.000002   0.000000   0.000000   0.000000
    45  H   -0.000142   0.000004   0.000001   0.000000   0.000000   0.000000
    46  H   -0.013340  -0.000206   0.000142  -0.000009   0.000001  -0.000003
    47  H    0.000000   0.000000   0.000000   0.000000   0.000000   0.000000
    48  H    0.000000   0.000000   0.000000   0.000000   0.000000   0.000000
    49  H    0.000000   0.000000   0.000000   0.000000   0.000000   0.000000
    50  H    0.000000   0.000000   0.000000   0.000000   0.000000   0.000000
             19         20         21         22         23         24
     1  O   -0.000101  -0.006294  -0.000678   0.000031  -0.000013  -0.000160
     2  C    0.001275  -0.052767   0.000632   0.000209  -0.000019   0.000202
     3  C   -0.002013   0.007243  -0.000594   0.000005   0.000000   0.000000
     4  N   -0.000017  -0.000061   0.000002   0.000000   0.000000   0.000000
     5  N    0.000000  -0.000001   0.000000   0.000000   0.000000   0.000000
     6  N    0.000000   0.000000   0.000000   0.000000   0.000000   0.000000
     7  C   -0.000001   0.000000   0.000000   0.000000   0.000000   0.000000
     8  C    0.000000   0.000000   0.000000   0.000000   0.000000   0.000000
     9  C    0.000000   0.000000   0.000000   0.000000   0.000000   0.000000
    10  C    0.000003   0.000000   0.000000   0.000000   0.000000   0.000000
    11  C   -0.000264   0.000005   0.000000   0.000000   0.000000   0.000000
    12  C   -0.000062   0.000010   0.000000   0.000000   0.000000   0.000000
    13  N    0.002956   0.295776  -0.044292   0.004281   0.000465   0.004383
    14  C   -0.093033  -0.057952  -0.009694   0.000357  -0.000032  -0.000089
    15  C    0.546841  -0.001825   0.000184  -0.000031   0.000010  -0.000041
    16  C   -0.038593  -0.000242  -0.000081   0.000000   0.000000   0.000001
    17  C   -0.104379   0.000007   0.000003   0.000000   0.000000   0.000000
    18  S    0.356407  -0.000056  -0.000004   0.000000   0.000000   0.000001
    19  C    5.067499   0.002199   0.000099  -0.000024   0.000006  -0.000067
    20  C    0.002199   4.917832   0.465842   0.002862  -0.073490   0.012502
    21  C    0.000099   0.465842   4.774691   0.496824   0.009459  -0.069934
    22  C   -0.000024   0.002862   0.496824   4.811112   0.472960  -0.016055
    23  C    0.000006  -0.073490   0.009459   0.472960   5.015449   0.466357
[...]
     7  C    0.000000   0.000000   0.000000   0.000000   0.000000   0.000000
     8  C    0.000000   0.000000   0.000000   0.000000   0.000000   0.000000
     9  C    0.000000   0.000000   0.000000   0.000000   0.000000   0.000000
    10  C    0.000000   0.000000   0.000000   0.000005   0.000000   0.000000
    11  C    0.000000   0.000000   0.000000   0.000097   0.000000   0.000000
    12  C    0.000000   0.000000   0.000000   0.000004   0.000000   0.000000
    13  N   -0.006795  -0.000167  -0.000142  -0.013340   0.000000   0.000000
    14  C   -0.000275  -0.000006   0.000004  -0.000206   0.000000   0.000000
    15  C    0.000848  -0.000002   0.000001   0.000142   0.000000   0.000000
    16  C   -0.000019   0.000000   0.000000  -0.000009   0.000000   0.000000
    17  C    0.000001   0.000000   0.000000   0.000001   0.000000   0.000000
    18  S   -0.000001   0.000000   0.000000  -0.000003   0.000000   0.000000
    19  C    0.000001   0.000000  -0.000003  -0.000897   0.000000   0.000000
    20  C   -0.046337   0.011070   0.010380  -0.037804  -0.000028   0.000000
    21  C    0.374526  -0.040524  -0.000341   0.010257   0.000342   0.000000
    22  C   -0.037447   0.380622   0.012481  -0.000218   0.006603  -0.000008
    23  C    0.009376  -0.043959  -0.044604   0.009359  -0.022443  -0.000333
    24  C   -0.000206   0.012358   0.382217  -0.041589  -0.000206   0.000003
    25  C    0.010739  -0.000566  -0.040474   0.379694  -0.000043   0.000000
    26  C   -0.000352  -0.023003  -0.023784  -0.000313  -0.035414   0.005047
    27  C    0.000004   0.005986   0.000017   0.000006   0.371453  -0.048815
    28  C    0.000000   0.000341  -0.000043   0.000000  -0.039439   0.383159
    29  N    0.000000  -0.000001   0.000000   0.000000   0.005954  -0.030002
    30  C    0.000000  -0.000047   0.000347   0.000000   0.000064   0.003151
    31  C    0.000006   0.000048   0.006171   0.000002   0.012346   0.001937
    32  H    0.000012   0.000000   0.000000   0.000011   0.000000   0.000000
    33  H    0.000000   0.000000   0.000000  -0.000116   0.000000   0.000000
    34  H    0.000000   0.000000   0.000000   0.000000   0.000000   0.000000
    35  H    0.000000   0.000000   0.000000   0.000000   0.000000   0.000000
    36  H    0.000000   0.000000   0.000000   0.000000   0.000000   0.000000
    37  H    0.000000   0.000000   0.000000   0.000123   0.000000   0.000000
    38  H   -0.000763  -0.000001   0.000000  -0.000062   0.000000   0.000000
    39  H    0.002919   0.000059   0.000000  -0.000040   0.000001   0.000000
    40  H   -0.000001   0.000000   0.000000   0.000000   0.000000   0.000000
    41  H    0.000000   0.000000   0.000000   0.000000   0.000000   0.000000
    42  H    0.000004   0.000001   0.000004   0.002800   0.000000   0.000000
    43  H    0.735341  -0.016838   0.000067  -0.000256   0.000030   0.000000
    44  H   -0.016838   0.745340  -0.000238   0.000051   0.000729   0.000028
    45  H    0.000067  -0.000238   0.743610  -0.015975  -0.000017   0.000000
    46  H   -0.000256   0.000051  -0.015975   0.713142   0.000000   0.000000
    47  H    0.000030   0.000729  -0.000017   0.000000   0.742134  -0.009641
    48  H    0.000000   0.000028   0.000000   0.000000  -0.009641   0.702791
    49  H    0.000000   0.000000   0.000028   0.000000   0.000118  -0.000750
    50  H    0.000000  -0.000015   0.000534   0.000038  -0.000142   0.000117
             49         50
     1  O    0.000000   0.000000
     2  C    0.000000   0.000000
     3  C    0.000000   0.000000
     4  N    0.000000   0.000000
     5  N    0.000000   0.000000
     6  N    0.000000   0.000000
     7  C    0.000000   0.000000
     8  C    0.000000   0.000000
     9  C    0.000000   0.000000
    10  C    0.000000   0.000000
    11  C    0.000000   0.000000
    12  C    0.000000   0.000000
    13  N    0.000000   0.000000
    14  C    0.000000   0.000000
    15  C    0.000000   0.000000
    16  C    0.000000   0.000000
    17  C    0.000000   0.000000
    18  S    0.000000   0.000000
    19  C    0.000000   0.000000
    20  C    0.000000  -0.000031
    21  C    0.000000  -0.000042
    22  C    0.000003  -0.000203
    23  C   -0.000334  -0.022249
    24  C   -0.000006   0.006216
    25  C    0.000000   0.000342
    26  C    0.004974  -0.033869
    27  C    0.001976   0.012163
    28  C    0.003104   0.000089
    29  N   -0.029989   0.005859
    30  C    0.383248  -0.039001
    31  C   -0.048153   0.372931
    32  H    0.000000   0.000000
    33  H    0.000000   0.000000
    34  H    0.000000   0.000000
    35  H    0.000000   0.000000
    36  H    0.000000   0.000000
    37  H    0.000000   0.000000
    38  H    0.000000   0.000000
    39  H    0.000000   0.000000
    40  H    0.000000   0.000000
    41  H    0.000000   0.000000
    42  H    0.000000   0.000000
    43  H    0.000000   0.000000
    44  H    0.000000  -0.000015
    45  H    0.000028   0.000534
    46  H    0.000000   0.000038
    47  H    0.000118  -0.000142
    48  H   -0.000750   0.000117
    49  H    0.700616  -0.009512
    50  H   -0.009512   0.733457
 Mulliken atomic charges:
              1
     1  O   -0.234227
     2  C    0.132242
     3  C    0.123026
     4  N   -0.227639
     5  N   -0.059009
     6  N   -0.181689
     7  C    0.011521
     8  C    0.045201
     9  C    0.037776
    10  C    0.039938
    11  C    0.026585
    12  C    0.213919
    13  N   -0.289429
    14  C    0.151328
    15  C   -0.030860
    16  C    0.048628
    17  C   -0.100670
    18  S    0.161168
    19  C   -0.138051
    20  C    0.087335
    21  C    0.046232
    22  C    0.023522
    23  C    0.042923
    24  C    0.018332
    25  C    0.078537
    26  C    0.068673
    27  C   -0.041521
    28  C    0.116662
    29  N   -0.172836
    30  C    0.116605
    31  C   -0.041239
    32  H    0.062701
    33  H    0.060585
    34  H   -0.021519
    35  H   -0.026779
    36  H   -0.025794
    37  H   -0.032440
    38  H    0.032267
    39  H    0.049559
    40  H   -0.027293
    41  H    0.019640
    42  H    0.010421
    43  H   -0.023845
    44  H   -0.031267
    45  H   -0.030206
    46  H   -0.017918
    47  H   -0.032401
    48  H   -0.006685
    49  H   -0.005324
    50  H   -0.026683
 Sum of Mulliken atomic charges =   0.00000
 Mulliken charges with hydrogens summed into heavy atoms:
              1
     1  O   -0.234227
     2  C    0.132242
     3  C    0.246312
     4  N   -0.227639
     5  N   -0.059009
     6  N   -0.181689
     7  C    0.011521
     8  C    0.023682
     9  C    0.010997
    10  C    0.014143
    11  C   -0.005855
    12  C    0.213919
    13  N   -0.289429
    14  C    0.233154
    15  C   -0.030860
    16  C    0.021335
    17  C   -0.081030
    18  S    0.161168
    19  C   -0.127630
    20  C    0.087335
    21  C    0.022387
    22  C   -0.007745
    23  C    0.042923
    24  C   -0.011875
    25  C    0.060618
    26  C    0.068673
    27  C   -0.073922
    28  C    0.109976
    29  N   -0.172836
    30  C    0.111281
    31  C   -0.067922
 Sum of Mulliken charges with hydrogens summed into heavy atoms =   0.00000
 Electronic spatial extent (au):  <R**2>=          18769.9031
 Charge=              0.0000 electrons
 Dipole moment (field-independent basis, Debye):
    X=             -0.0277    Y=              5.8435    Z=              0.9802  Tot=              5.9252
 Quadrupole moment (field-independent basis, Debye-Ang):
   XX=           -217.9990   YY=           -180.4964   ZZ=           -179.2830
   XY=              5.1933   XZ=             19.0457   YZ=            -16.9069
 Traceless Quadrupole moment (field-independent basis, Debye-Ang):
   XX=            -25.4062   YY=             12.0964   ZZ=             13.3098
   XY=              5.1933   XZ=             19.0457   YZ=            -16.9069
 Octapole moment (field-independent basis, Debye-Ang**2):
  XXX=            215.5102  YYY=             56.7700  ZZZ=             11.8914  XYY=             27.5026
  XXY=             88.9077  XXZ=             23.6158  XZZ=            -12.3774  YZZ=             21.2830
  YYZ=             16.2622  XYZ=            -28.4585
 Hexadecapole moment (field-independent basis, Debye-Ang**3):
 XXXX=         -21568.2322 YYYY=          -5086.2937 ZZZZ=          -1850.4386 XXXY=           -817.6818
 XXXZ=            813.3530 YYYX=            255.9101 YYYZ=            -60.7396 ZZZX=            126.5592
 ZZZY=            -83.8790 XXYY=          -3928.1712 XXZZ=          -3528.8351 YYZZ=          -1218.0872
 XXYZ=           -298.0758 YYXZ=             50.6896 ZZXY=             63.7986
 N-N= 2.881344776692D+03 E-N=-9.670494056951D+03  KE= 1.663765406985D+03
 No NMR shielding tensors so no spin-rotation constants.
 Leave Link  601 at Sat Sep 10 08:44:44 2022, MaxMem=  209715200 cpu:       3.9
 (Enter /opt/gaussian/l602.exe)
 Breneman (CHELPG) radii used.
 Read replacement radii for each type of atom:
 Rad(35) =   1.900000000000D+00
 Atom Element Radius
    1     8    1.70
    2     6    1.50
    3     6    1.50
    4     7    1.70
    5     7    1.70
    6     7    1.70
    7     6    1.50
    8     6    1.50
    9     6    1.50
   10     6    1.50
   11     6    1.50
   12     6    1.50
   13     7    1.70
   14     6    1.50
   15     6    1.50
   16     6    1.50
   17     6    1.50
   18    16    2.00
   19     6    1.50
   20     6    1.50
   21     6    1.50
   22     6    1.50
   23     6    1.50
   24     6    1.50
   25     6    1.50
   26     6    1.50
   27     6    1.50
   28     6    1.50
   29     7    1.70
   30     6    1.50
   31     6    1.50
   32     1    1.45
   33     1    1.45
   34     1    1.45
   35     1    1.45
   36     1    1.45
   37     1    1.45
   38     1    1.45
   39     1    1.45
   40     1    1.45
   41     1    1.45
   42     1    1.45
   43     1    1.45
   44     1    1.45
   45     1    1.45
   46     1    1.45
   47     1    1.45
   48     1    1.45
   49     1    1.45
   50     1    1.45
 Generate Potential Derived Charges using the Breneman model, NDens= 1.
 Grid spacing= 0.300 Box extension= 2.800
 NStep X,Y,Z=   70     52     40   Total possible points=      145600
 Number of Points to Fit=   28002

 **********************************************************************

            Electrostatic Properties Using The SCF Density

 **********************************************************************

       Atomic Center    1 is at   0.982331 -1.464540 -0.428810
       Atomic Center    2 is at   1.152641 -0.346890 -0.877160
       Atomic Center    3 is at   2.558771  0.135860 -1.289720
       Atomic Center    4 is at   3.560751 -0.871870 -1.061090
       Atomic Center    5 is at   4.098421 -1.538380 -2.128820
       Atomic Center    6 is at   4.962301 -2.396560 -1.709280
       Atomic Center    7 is at   5.016521 -2.323360 -0.330240
       Atomic Center    8 is at   5.799501 -3.033800  0.596410
       Atomic Center    9 is at   5.638461 -2.724700  1.939950
       Atomic Center   10 is at   4.718561 -1.731820  2.363390
       Atomic Center   11 is at   3.934481 -1.022410  1.462080
       Atomic Center   12 is at   4.103221 -1.338940  0.104170
       Atomic Center   13 is at   0.123351  0.567990 -1.062560
       Atomic Center   14 is at   0.380931  1.941150 -1.516560
       Atomic Center   15 is at   0.853201  2.890790 -0.433070
       Atomic Center   16 is at   1.452031  4.162180 -0.727400
       Atomic Center   17 is at   1.768811  4.879210  0.395340
       Atomic Center   18 is at   1.344541  4.019030  1.842600
       Atomic Center   19 is at   0.733291  2.680170  0.919030
       Atomic Center   20 is at  -1.228569  0.188130 -0.757520
       Atomic Center   21 is at  -2.251949  0.448060 -1.680080
       Atomic Center   22 is at  -3.573859  0.115660 -1.387540
       Atomic Center   23 is at  -3.915029 -0.509800 -0.176030
       Atomic Center   24 is at  -2.875849 -0.786770  0.730420
       Atomic Center   25 is at  -1.554629 -0.443750  0.451380
       Atomic Center   26 is at  -5.321309 -0.870250  0.132430
       Atomic Center   27 is at  -6.397819 -0.061820 -0.271090
       Atomic Center   28 is at  -7.701849 -0.446490  0.045190
       Atomic Center   29 is at  -8.015129 -1.558880  0.724060
       Atomic Center   30 is at  -6.986999 -2.328670  1.107680
       Atomic Center   31 is at  -5.647549 -2.037720  0.843430
       Atomic Center   32 is at   2.587781  0.349770 -2.367640
       Atomic Center   33 is at   2.821241  1.060040 -0.750990
       Atomic Center   34 is at   6.502951 -3.795360  0.256670
       Atomic Center   35 is at   6.227221 -3.254170  2.691740
       Atomic Center   36 is at   4.621831 -1.522840  3.431150
       Atomic Center   37 is at   3.221491 -0.268270  1.797340
       Atomic Center   38 is at   1.104811  1.935960 -2.345520
       Atomic Center   39 is at  -0.553719  2.326600 -1.946840
       Atomic Center   40 is at   1.640871  4.523210 -1.739810
       Atomic Center   41 is at   2.235171  5.860280  0.458440
       Atomic Center   42 is at   0.305921  1.819060  1.426990
       Atomic Center   43 is at  -2.015759  0.894110 -2.648090
       Atomic Center   44 is at  -4.346449  0.310070 -2.133800
       Atomic Center   45 is at  -3.105699 -1.255280  1.689250
       Atomic Center   46 is at  -0.771429 -0.677360  1.170320
       Atomic Center   47 is at  -6.223849  0.874380 -0.805130
       Atomic Center   48 is at  -8.544729  0.182380 -0.261410
       Atomic Center   49 is at  -7.248069 -3.240140  1.656160
       Atomic Center   50 is at  -4.868799 -2.730820  1.166980
   28002 points will be used for fitting atomic charges
 Fitting point charges to electrostatic potential
 Charges from ESP fit, RMS=   0.00430 RRMS=   0.24437:
 Charge=   0.00000 Dipole=     0.0728     5.9201     0.9488 Tot=     5.9961
              1
     1  O   -0.507852
     2  C    0.629316
     3  C   -0.031514
     4  N    0.268745
     5  N   -0.214870
     6  N   -0.342089
     7  C    0.404736
     8  C   -0.253917
     9  C   -0.055131
    10  C   -0.089370
    11  C   -0.174824
    12  C   -0.042407
    13  N   -0.476518
    14  C    0.179342
    15  C    0.099629
    16  C   -0.157867
    17  C   -0.172066
    18  S    0.038140
    19  C   -0.237941
    20  C    0.311858
    21  C   -0.189960
    22  C   -0.073448
    23  C   -0.049196
    24  C   -0.047989
    25  C   -0.209355
    26  C    0.307555
    27  C   -0.373531
    28  C    0.392869
    29  N   -0.568304
    30  C    0.381641
    31  C   -0.367744
    32  H    0.016056
    33  H   -0.003002
    34  H    0.127868
    35  H    0.085871
    36  H    0.091018
    37  H    0.115269
    38  H    0.065135
    39  H   -0.004076
    40  H    0.099302
    41  H    0.170195
    42  H    0.160720
    43  H    0.125419
    44  H    0.092775
    45  H    0.077689
    46  H    0.149981
    47  H    0.112288
    48  H    0.004730
    49  H    0.006680
    50  H    0.128143
 Charges from ESP fit with hydrogens summed into heavy atoms:
              1
     1  O   -0.507852
     2  C    0.629316
     3  C   -0.018459
     4  N    0.268745
     5  N   -0.214870
     6  N   -0.342089
     7  C    0.404736
     8  C   -0.126049
     9  C    0.030740
    10  C    0.001648
    11  C   -0.059554
    12  C   -0.042407
    13  N   -0.476518
    14  C    0.240401
    15  C    0.099629
    16  C   -0.058565
    17  C   -0.001871
    18  S    0.038140
    19  C   -0.077222
    20  C    0.311858
    21  C   -0.064541
    22  C    0.019327
    23  C   -0.049196
    24  C    0.029701
    25  C   -0.059374
    26  C    0.307555
    27  C   -0.261243
    28  C    0.397600
    29  N   -0.568304
    30  C    0.388321
    31  C   -0.239602
    32  H    0.000000
    33  H    0.000000
    34  H    0.000000
    35  H    0.000000
    36  H    0.000000
    37  H    0.000000
    38  H    0.000000
    39  H    0.000000
    40  H    0.000000
    41  H    0.000000
    42  H    0.000000
    43  H    0.000000
    44  H    0.000000
    45  H    0.000000
    46  H    0.000000
    47  H    0.000000
    48  H    0.000000
    49  H    0.000000
    50  H    0.000000
 -----------------------------------------------------------------

              Electrostatic Properties (Atomic Units)

 -----------------------------------------------------------------
    Center     Electric         -------- Electric Field --------
               Potential          X             Y             Z
 -----------------------------------------------------------------
    1 Atom    -22.360650
    2 Atom    -14.632076
    3 Atom    -14.680531
    4 Atom    -18.292619
    5 Atom    -18.330373
    6 Atom    -18.368825
    7 Atom    -14.736540
    8 Atom    -14.747015
    9 Atom    -14.750382
   10 Atom    -14.744399
   11 Atom    -14.739897
   12 Atom    -14.713605
   13 Atom    -18.311639
   14 Atom    -14.676029
   15 Atom    -14.724569
   16 Atom    -14.732714
   17 Atom    -14.713231
   18 Atom    -59.171005
   19 Atom    -14.715670
   20 Atom    -14.693245
   21 Atom    -14.734422
   22 Atom    -14.735773
   23 Atom    -14.729242
   24 Atom    -14.737873
   25 Atom    -14.738996
   26 Atom    -14.723412
   27 Atom    -14.744100
   28 Atom    -14.718571
   29 Atom    -18.385801
   30 Atom    -14.718920
   31 Atom    -14.744715
   32 Atom     -1.052294
   33 Atom     -1.055750
   34 Atom     -1.088524
   35 Atom     -1.094233
   36 Atom     -1.090229
   37 Atom     -1.078665
   38 Atom     -1.062837
   39 Atom     -1.060769
   40 Atom     -1.062427
   41 Atom     -1.049709
   42 Atom     -1.050179
   43 Atom     -1.070324
   44 Atom     -1.077673
   45 Atom     -1.080433
   46 Atom     -1.081392
   47 Atom     -1.079291
   48 Atom     -1.093414
   49 Atom     -1.094003
   50 Atom     -1.080458
 -----------------------------------------------------------------
 Leave Link  602 at Sat Sep 10 08:44:58 2022, MaxMem=  209715200 cpu:     104.5
 (Enter /opt/gaussian/l9999.exe)
 1\1\GINC-LQCAPF-6\SP\RB3LYP\CC-pVDZ\C24H19N5O1S1\LQCAPF-6\10-Sep-2022\
 0\\#p b3lyp/cc-pvdz pop=(chelpg,readradii)\\Mol14.log\\0,1\O,0,0.98233
 ,-1.46454,-0.42881\C,0,1.15264,-0.34689,-0.87716\C,0,2.55877,0.13586,-
 1.28972\N,0,3.56075,-0.87187,-1.06109\N,0,4.09842,-1.53838,-2.12882\N,
 0,4.9623,-2.39656,-1.70928\C,0,5.01652,-2.32336,-0.33024\C,0,5.7995,-3
 .0338,0.59641\C,0,5.63846,-2.7247,1.93995\C,0,4.71856,-1.73182,2.36339
 \C,0,3.93448,-1.02241,1.46208\C,0,4.10322,-1.33894,0.10417\N,0,0.12335
 ,0.56799,-1.06256\C,0,0.38093,1.94115,-1.51656\C,0,0.8532,2.89079,-0.4
 3307\C,0,1.45203,4.16218,-0.7274\C,0,1.76881,4.87921,0.39534\S,0,1.344
 54,4.01903,1.8426\C,0,0.73329,2.68017,0.91903\C,0,-1.22857,0.18813,-0.
 75752\C,0,-2.25195,0.44806,-1.68008\C,0,-3.57386,0.11566,-1.38754\C,0,
 -3.91503,-0.5098,-0.17603\C,0,-2.87585,-0.78677,0.73042\C,0,-1.55463,-
 0.44375,0.45138\C,0,-5.32131,-0.87025,0.13243\C,0,-6.39782,-0.06182,-0
 .27109\C,0,-7.70185,-0.44649,0.04519\N,0,-8.01513,-1.55888,0.72406\C,0
 ,-6.987,-2.32867,1.10768\C,0,-5.64755,-2.03772,0.84343\H,0,2.58778,0.3
 4977,-2.36764\H,0,2.82124,1.06004,-0.75099\H,0,6.50295,-3.79536,0.2566
 7\H,0,6.22722,-3.25417,2.69174\H,0,4.62183,-1.52284,3.43115\H,0,3.2214
 9,-0.26827,1.79734\H,0,1.10481,1.93596,-2.34552\H,0,-0.55372,2.3266,-1
 .94684\H,0,1.64087,4.52321,-1.73981\H,0,2.23517,5.86028,0.45844\H,0,0.
 30592,1.81906,1.42699\H,0,-2.01576,0.89411,-2.64809\H,0,-4.34645,0.310
 07,-2.1338\H,0,-3.1057,-1.25528,1.68925\H,0,-0.77143,-0.67736,1.17032\
 H,0,-6.22385,0.87438,-0.80513\H,0,-8.54473,0.18238,-0.26141\H,0,-7.248
 07,-3.24014,1.65616\H,0,-4.8688,-2.73082,1.16698\\Version=EM64L-G09Rev
 C.01\State=1-A\HF=-1673.2238586\RMSD=5.668e-09\Dipole=-0.0109019,2.299
 0174,0.3856437\Quadrupole=-18.8888908,8.9933943,9.8954965,3.8610677,14
 .1600309,-12.5698883\PG=C01 [X(C24H19N5O1S1)]\\@


 DEPRESSION IS WAITING FOR YOUR SHIP TO COME IN,
 AND FINDING OUT IT'S THE TITANIC.
 Job cpu time:  0 days  1 hours 33 minutes 47.9 seconds.
 File lengths (MBytes):  RWF=    157 Int=      0 D2E=      0 Chk=     11 Scr=      1
 Normal termination of Gaussian 09 at Sat Sep 10 08:44:58 2022.
