 Entering Gaussian System, Link 0=g09
 Input=Mol16.gjf
 Output=Mol16.log
 Initial command:
 /opt/gaussian/l1.exe /home/scr/lqcapf-6/Gau-552229.inp -scrdir=/home/scr/lqcapf-6/
 Entering Link 1 = /opt/gaussian/l1.exe PID=    552231.
  
 Copyright (c) 1988,1990,1992,1993,1995,1998,2003,2009,2011,
            Gaussian, Inc.  All Rights Reserved.
  
 This is part of the Gaussian(R) 09 program.  It is based on
 the Gaussian(R) 03 system (copyright 2003, Gaussian, Inc.),
 the Gaussian(R) 98 system (copyright 1998, Gaussian, Inc.),
 the Gaussian(R) 94 system (copyright 1995, Gaussian, Inc.),
 the Gaussian 92(TM) system (copyright 1992, Gaussian, Inc.),
 the Gaussian 90(TM) system (copyright 1990, Gaussian, Inc.),
 the Gaussian 88(TM) system (copyright 1988, Gaussian, Inc.),
 the Gaussian 86(TM) system (copyright 1986, Carnegie Mellon
 University), and the Gaussian 82(TM) system (copyright 1983,
 Carnegie Mellon University). Gaussian is a federally registered
 trademark of Gaussian, Inc.
  
 This software contains proprietary and confidential information,
 including trade secrets, belonging to Gaussian, Inc.
  
 This software is provided under written license and may be
 used, copied, transmitted, or stored only in accord with that
 written license.
  
 The following legend is applicable only to US Government
 contracts under FAR:
  
                    RESTRICTED RIGHTS LEGEND
  
 Use, reproduction and disclosure by the US Government is
 subject to restrictions as set forth in subparagraphs (a)
 and (c) of the Commercial Computer Software - Restricted
 Rights clause in FAR 52.227-19.
  
 Gaussian, Inc.
 340 Quinnipiac St., Bldg. 40, Wallingford CT 06492
  
  
 ---------------------------------------------------------------
 Warning -- This program may not be used in any manner that
 competes with the business of Gaussian, Inc. or will provide
 assistance to any competitor of Gaussian, Inc.  The licensee
 of this program is prohibited from giving any competitor of
 Gaussian, Inc. access to this program.  By using this program,
 the user acknowledges that Gaussian, Inc. is engaged in the
 business of creating and licensing software in the field of
 computational chemistry and represents and warrants to the
 licensee that it is not a competitor of Gaussian, Inc. and that
 it will not use this program in any manner prohibited above.
 ---------------------------------------------------------------
  

 Cite this work as:
 Gaussian 09, Revision C.01,
 M. J. Frisch, G. W. Trucks, H. B. Schlegel, G. E. Scuseria, 
 M. A. Robb, J. R. Cheeseman, G. Scalmani, V. Barone, B. Mennucci, 
 G. A. Petersson, H. Nakatsuji, M. Caricato, X. Li, H. P. Hratchian, 
 A. F. Izmaylov, J. Bloino, G. Zheng, J. L. Sonnenberg, M. Hada, 
 M. Ehara, K. Toyota, R. Fukuda, J. Hasegawa, M. Ishida, T. Nakajima, 
 Y. Honda, O. Kitao, H. Nakai, T. Vreven, J. A. Montgomery, Jr., 
 J. E. Peralta, F. Ogliaro, M. Bearpark, J. J. Heyd, E. Brothers, 
 K. N. Kudin, V. N. Staroverov, T. Keith, R. Kobayashi, J. Normand, 
 K. Raghavachari, A. Rendell, J. C. Burant, S. S. Iyengar, J. Tomasi, 
 M. Cossi, N. Rega, J. M. Millam, M. Klene, J. E. Knox, J. B. Cross, 
 V. Bakken, C. Adamo, J. Jaramillo, R. Gomperts, R. E. Stratmann, 
 O. Yazyev, A. J. Austin, R. Cammi, C. Pomelli, J. W. Ochterski, 
 R. L. Martin, K. Morokuma, V. G. Zakrzewski, G. A. Voth, 
 P. Salvador, J. J. Dannenberg, S. Dapprich, A. D. Daniels, 
 O. Farkas, J. B. Foresman, J. V. Ortiz, J. Cioslowski, 
 and D. J. Fox, Gaussian, Inc., Wallingford CT, 2010.
 
 ******************************************
 Gaussian 09:  EM64L-G09RevC.01 23-Sep-2011
                10-Sep-2022 
 ******************************************
 %nprocshared=8
 Will use up to    8 processors via shared memory.
 %mem=1600MB
 ---------------------------------------
 #p b3lyp/cc-pvdz pop=(chelpg,readradii)
 ---------------------------------------
 1/38=1/1;
 2/12=2,17=6,18=5,40=1/2;
 3/5=16,11=2,16=1,25=1,30=1,74=-5/1,2,3;
 4//1;
 5/5=2,38=5/2;
 6/7=2,8=2,9=2,10=2,15=8,20=103,28=1/1,2;
 99/5=1,9=1/99;
 Leave Link    1 at Sat Sep 10 08:57:36 2022, MaxMem=  209715200 cpu:       0.2
 (Enter /opt/gaussian/l101.exe)
 ---------
 Mol16.log
 ---------
 Charge =  0 Multiplicity = 1
 Symbolic Z-Matrix:
 C                     6.10219   0.99552   2.56516 
 O                     5.26142   0.47178   1.53298 
 C                     5.79658  -0.46701   0.71666 
 N                     7.06689  -0.80735   0.89986 
 C                     7.59826  -1.74139   0.09424 
 C                     6.88111  -2.36744  -0.91771 
 C                     5.54252  -1.99857  -1.09505 
 C                     4.94763  -1.03151  -0.27851 
 C                     3.52007  -0.65769  -0.45172 
 C                     2.56238  -1.64161  -0.76176 
 C                     1.22257  -1.32811  -0.97951 
 C                     0.78757   0.0039   -0.88925 
 C                     1.72978   0.99523  -0.57057 
 C                     3.06868   0.66956  -0.35693 
 N                    -0.57601   0.36973  -1.15468 
 C                    -0.82773   1.65685  -1.81585 
 C                    -1.23527   2.7955   -0.90283 
 C                    -1.72033   4.05039  -1.40526 
 C                    -2.01599   4.94716  -0.41402 
 S                    -1.71284   4.28181   1.16128 
 C                    -1.18031   2.77878   0.46989 
 C                    -1.62551  -0.45454  -0.76674 
 O                    -1.47718  -1.48566  -0.1372 
 C                    -3.03758   0.01066  -1.18117 
 N                    -4.04824  -0.95068  -0.8214 
 N                    -4.67226  -1.66107  -1.8112 
 N                    -5.54816  -2.44838  -1.28939 
 C                    -5.52549  -2.27847   0.08173 
 C                    -6.28839  -2.88785   1.09361 
 C                    -6.04282  -2.49718   2.40234 
 C                    -5.05736  -1.52407   2.70886 
 C                    -4.29153  -0.91525   1.72281 
 C                    -4.54824  -1.31089   0.39971 
 H                     6.98941   1.49195   2.14313 
 H                     5.47759   1.71798   3.10648 
 H                     6.44203   0.19743   3.24283 
 H                     8.64887  -1.98877   0.27779 
 H                     7.35078  -3.11636  -1.55696 
 H                     4.95204  -2.45519  -1.89219 
 H                     2.86585  -2.68899  -0.81928 
 H                     0.5134   -2.12123  -1.20151 
 H                     1.42184   2.03705  -0.47297 
 H                     3.77191   1.46235  -0.10689 
 H                     0.09168   1.92529  -2.35647 
 H                    -1.5936    1.52563  -2.5961 
 H                    -1.84414   4.27073  -2.4669 
 H                    -2.40017   5.96017  -0.51552 
 H                    -0.84762   1.96844   1.11531 
 H                    -3.26589   0.98906  -0.72962 
 H                    -3.10667   0.11686  -2.27284 
 H                    -7.041    -3.63691   0.84301 
 H                    -6.61295  -2.94658   3.21797 
 H                    -4.89192  -1.25144   3.7536 
 H                    -3.52211  -0.18318   1.96924 
 
 NAtoms=     54 NQM=        0 NQMF=       0 NMMI=     54 NMMIF=      0
                NMic=       0 NMicF=      0.
                    Isotopes and Nuclear Properties:
 (Nuclear quadrupole moments (NQMom) in fm**2, nuclear magnetic moments (NMagM)
  in nuclear magnetons)

  Atom         1           2           3           4           5           6           7           8           9          10
 IAtWgt=          12          16          12          14          12          12          12          12          12          12
 AtmWgt=  12.0000000  15.9949146  12.0000000  14.0030740  12.0000000  12.0000000  12.0000000  12.0000000  12.0000000  12.0000000
 NucSpn=           0           0           0           2           0           0           0           0           0           0
 AtZEff=   0.0000000   0.0000000   0.0000000   0.0000000   0.0000000   0.0000000   0.0000000   0.0000000   0.0000000   0.0000000
 NQMom=    0.0000000   0.0000000   0.0000000   2.0440000   0.0000000   0.0000000   0.0000000   0.0000000   0.0000000   0.0000000
 NMagM=    0.0000000   0.0000000   0.0000000   0.4037610   0.0000000   0.0000000   0.0000000   0.0000000   0.0000000   0.0000000

  Atom        11          12          13          14          15          16          17          18          19          20
 IAtWgt=          12          12          12          12          14          12          12          12          12          32
 AtmWgt=  12.0000000  12.0000000  12.0000000  12.0000000  14.0030740  12.0000000  12.0000000  12.0000000  12.0000000  31.9720718
 NucSpn=           0           0           0           0           2           0           0           0           0           0
 AtZEff=   0.0000000   0.0000000   0.0000000   0.0000000   0.0000000   0.0000000   0.0000000   0.0000000   0.0000000   0.0000000
 NQMom=    0.0000000   0.0000000   0.0000000   0.0000000   2.0440000   0.0000000   0.0000000   0.0000000   0.0000000   0.0000000
 NMagM=    0.0000000   0.0000000   0.0000000   0.0000000   0.4037610   0.0000000   0.0000000   0.0000000   0.0000000   0.0000000

  Atom        21          22          23          24          25          26          27          28          29          30
 IAtWgt=          12          12          16          12          14          14          14          12          12          12
 AtmWgt=  12.0000000  12.0000000  15.9949146  12.0000000  14.0030740  14.0030740  14.0030740  12.0000000  12.0000000  12.0000000
 NucSpn=           0           0           0           0           2           2           2           0           0           0
 AtZEff=   0.0000000   0.0000000   0.0000000   0.0000000   0.0000000   0.0000000   0.0000000   0.0000000   0.0000000   0.0000000
 NQMom=    0.0000000   0.0000000   0.0000000   0.0000000   2.0440000   2.0440000   2.0440000   0.0000000   0.0000000   0.0000000
 NMagM=    0.0000000   0.0000000   0.0000000   0.0000000   0.4037610   0.4037610   0.4037610   0.0000000   0.0000000   0.0000000

  Atom        31          32          33          34          35          36          37          38          39          40
 IAtWgt=          12          12          12           1           1           1           1           1           1           1
 AtmWgt=  12.0000000  12.0000000  12.0000000   1.0078250   1.0078250   1.0078250   1.0078250   1.0078250   1.0078250   1.0078250
 NucSpn=           0           0           0           1           1           1           1           1           1           1
 AtZEff=   0.0000000   0.0000000   0.0000000   0.0000000   0.0000000   0.0000000   0.0000000   0.0000000   0.0000000   0.0000000
 NQMom=    0.0000000   0.0000000   0.0000000   0.0000000   0.0000000   0.0000000   0.0000000   0.0000000   0.0000000   0.0000000
 NMagM=    0.0000000   0.0000000   0.0000000   2.7928460   2.7928460   2.7928460   2.7928460   2.7928460   2.7928460   2.7928460

  Atom        41          42          43          44          45          46          47          48          49          50
 IAtWgt=           1           1           1           1           1           1           1           1           1           1
 AtmWgt=   1.0078250   1.0078250   1.0078250   1.0078250   1.0078250   1.0078250   1.0078250   1.0078250   1.0078250   1.0078250
 NucSpn=           1           1           1           1           1           1           1           1           1           1
 AtZEff=   0.0000000   0.0000000   0.0000000   0.0000000   0.0000000   0.0000000   0.0000000   0.0000000   0.0000000   0.0000000
 NQMom=    0.0000000   0.0000000   0.0000000   0.0000000   0.0000000   0.0000000   0.0000000   0.0000000   0.0000000   0.0000000
 NMagM=    2.7928460   2.7928460   2.7928460   2.7928460   2.7928460   2.7928460   2.7928460   2.7928460   2.7928460   2.7928460

  Atom        51          52          53          54
 IAtWgt=           1           1           1           1
 AtmWgt=   1.0078250   1.0078250   1.0078250   1.0078250
 NucSpn=           1           1           1           1
 AtZEff=   0.0000000   0.0000000   0.0000000   0.0000000
 NQMom=    0.0000000   0.0000000   0.0000000   0.0000000
 NMagM=    2.7928460   2.7928460   2.7928460   2.7928460
 Leave Link  101 at Sat Sep 10 08:57:36 2022, MaxMem=  209715200 cpu:       0.7
 (Enter /opt/gaussian/l202.exe)
 Stoichiometry    C25H21N5O2S
 Framework group  C1[X(C25H21N5O2S)]
 Deg. of freedom   156
 Full point group                 C1      NOp   1
 Largest Abelian subgroup         C1      NOp   1
 Largest concise Abelian subgroup C1      NOp   1
                         Standard orientation:                         
 ---------------------------------------------------------------------
 Center     Atomic      Atomic             Coordinates (Angstroms)
 Number     Number       Type             X           Y           Z
 ---------------------------------------------------------------------
      1          6           0        6.102190    0.995519    2.565160
      2          8           0        5.261420    0.471780    1.532980
      3          6           0        5.796580   -0.467011    0.716660
      4          7           0        7.066889   -0.807351    0.899860
      5          6           0        7.598259   -1.741391    0.094240
      6          6           0        6.881109   -2.367441   -0.917710
      7          6           0        5.542519   -1.998571   -1.095050
      8          6           0        4.947629   -1.031510   -0.278510
      9          6           0        3.520069   -0.657690   -0.451720
     10          6           0        2.562379   -1.641610   -0.761760
     11          6           0        1.222569   -1.328109   -0.979510
     12          6           0        0.787570    0.003901   -0.889250
     13          6           0        1.729780    0.995230   -0.570570
     14          6           0        3.068680    0.669560   -0.356930
     15          7           0       -0.576010    0.369731   -1.154680
     16          6           0       -0.827730    1.656851   -1.815850
     17          6           0       -1.235270    2.795501   -0.902830
     18          6           0       -1.720329    4.050391   -1.405260
     19          6           0       -2.015989    4.947161   -0.414020
     20         16           0       -1.712839    4.281811    1.161280
     21          6           0       -1.180310    2.778781    0.469890
     22          6           0       -1.625510   -0.454539   -0.766740
     23          8           0       -1.477181   -1.485659   -0.137200
     24          6           0       -3.037580    0.010662   -1.181170
     25          7           0       -4.048241   -0.950678   -0.821400
     26          7           0       -4.672261   -1.661068   -1.811200
     27          7           0       -5.548161   -2.448378   -1.289390
     28          6           0       -5.525491   -2.278468    0.081730
     29          6           0       -6.288391   -2.887847    1.093610
     30          6           0       -6.042821   -2.497178    2.402340
     31          6           0       -5.057361   -1.524068    2.708860
     32          6           0       -4.291531   -0.915248    1.722810
     33          6           0       -4.548241   -1.310888    0.399710
     34          1           0        6.989410    1.491949    2.143130
     35          1           0        5.477590    1.717979    3.106480
     36          1           0        6.442030    0.197429    3.242830
     37          1           0        8.648869   -1.988771    0.277790
     38          1           0        7.350779   -3.116361   -1.556960
     39          1           0        4.952039   -2.455190   -1.892190
     40          1           0        2.865849   -2.688990   -0.819280
     41          1           0        0.513399   -2.121229   -1.201510
     42          1           0        1.421840    2.037051   -0.472970
     43          1           0        3.771910    1.462350   -0.106890
     44          1           0        0.091680    1.925291   -2.356470
     45          1           0       -1.593600    1.525631   -2.596100
     46          1           0       -1.844139    4.270731   -2.466900
     47          1           0       -2.400169    5.960172   -0.515520
     48          1           0       -0.847620    1.968441    1.115310
     49          1           0       -3.265890    0.989062   -0.729620
     50          1           0       -3.106670    0.116862   -2.272840
     51          1           0       -7.041001   -3.636907    0.843010
     52          1           0       -6.612951   -2.946577    3.217970
     53          1           0       -4.891921   -1.251438    3.753600
     54          1           0       -3.522110   -0.183178    1.969240
 ---------------------------------------------------------------------
 Rotational constants (GHZ):      0.1741556      0.0565209      0.0487219
 Leave Link  202 at Sat Sep 10 08:57:36 2022, MaxMem=  209715200 cpu:       0.0
 (Enter /opt/gaussian/l301.exe)
 Standard basis: CC-pVDZ (5D, 7F)
 Ernie: Thresh=  0.10000D-02 Tol=  0.10000D-05 Strict=F.
 Ernie:  74 primitive shells out of 859 were deleted.
 There are   571 symmetry adapted basis functions of A   symmetry.
 Integral buffers will be    131072 words long.
 Raffenetti 2 integral format.
 Two-electron integral symmetry is turned on.
   571 basis functions,  1274 primitive gaussians,   604 cartesian basis functions
   119 alpha electrons      119 beta electrons
       nuclear repulsion energy      3220.7439000786 Hartrees.
 IExCor=  402 DFT=T Ex+Corr=B3LYP ExCW=0 ScaHFX=  0.200000
 ScaDFX=  0.800000  0.720000  1.000000  0.810000 ScalE2=  1.000000  1.000000
 IRadAn=      0 IRanWt=     -1 IRanGd=            0 ICorTp=0
 NAtoms=   54 NActive=   54 NUniq=   54 SFac= 1.00D+00 NAtFMM=   60 NAOKFM=F Big=F
 Leave Link  301 at Sat Sep 10 08:57:36 2022, MaxMem=  209715200 cpu:       0.3
 (Enter /opt/gaussian/l302.exe)
 NPDir=0 NMtPBC=     1 NCelOv=     1 NCel=       1 NClECP=     1 NCelD=      1
         NCelK=      1 NCelE2=     1 NClLst=     1 CellRange=     0.0.
 One-electron integrals computed using PRISM.
 NBasis=   571 RedAO= T  NBF=   571
 NBsUse=   571 1.00D-06 NBFU=   571
 Precomputing XC quadrature grid using
 IXCGrd= 2 IRadAn=           0 IRanWt=          -1 IRanGd=           0 AccXCQ= 0.00D+00.
 NRdTot=    3491 NPtTot=      446292 NUsed=      471444 NTot=      471476
 NSgBfM=   578   580   580   580   580 NAtAll=    54    54.
 Leave Link  302 at Sat Sep 10 08:57:37 2022, MaxMem=  209715200 cpu:       9.0
 (Enter /opt/gaussian/l303.exe)
 DipDrv:  MaxL=1.
 Leave Link  303 at Sat Sep 10 08:57:38 2022, MaxMem=  209715200 cpu:       1.5
 (Enter /opt/gaussian/l401.exe)
 Harris functional with IExCor=  402 diagonalized for initial guess.
 ExpMin= 1.22D-01 ExpMax= 1.11D+05 ExpMxC= 1.07D+03 IAcc=2 IRadAn=         4 AccDes= 0.00D+00
 HarFok:  IExCor=  402 AccDes= 0.00D+00 IRadAn=         4 IDoV= 1
 ScaDFX=  1.000000  1.000000  1.000000  1.000000
 FoFCou: FMM=F IPFlag=           0 FMFlag=      100000 FMFlg1=           0
         NFxFlg=           0 DoJE=T BraDBF=F KetDBF=T FulRan=T
         Omega=  0.000000  0.000000  1.000000  0.000000  0.000000 ICntrl=     500 IOpCl=  0
         NMat0=    1 NMatS0=    1 NMatT0=    0 NMatD0=    1 NMtDS0=    0 NMtDT0=    0
         I1Cent=           4 NGrid=           0.
 Petite list used in FoFCou.
 Harris En= -1787.53034195453    
 Initial guess orbital symmetries:
       Occupied  (A) (A) (A) (A) (A) (A) (A) (A) (A) (A) (A) (A)
                 (A) (A) (A) (A) (A) (A) (A) (A) (A) (A) (A) (A)
                 (A) (A) (A) (A) (A) (A) (A) (A) (A) (A) (A) (A)
                 (A) (A) (A) (A) (A) (A) (A) (A) (A) (A) (A) (A)
                 (A) (A) (A) (A) (A) (A) (A) (A) (A) (A) (A) (A)
                 (A) (A) (A) (A) (A) (A) (A) (A) (A) (A) (A) (A)
                 (A) (A) (A) (A) (A) (A) (A) (A) (A) (A) (A) (A)
                 (A) (A) (A) (A) (A) (A) (A) (A) (A) (A) (A) (A)
                 (A) (A) (A) (A) (A) (A) (A) (A) (A) (A) (A) (A)
                 (A) (A) (A) (A) (A) (A) (A) (A) (A) (A) (A)
       Virtual   (A) (A) (A) (A) (A) (A) (A) (A) (A) (A) (A) (A)
                 (A) (A) (A) (A) (A) (A) (A) (A) (A) (A) (A) (A)
                 (A) (A) (A) (A) (A) (A) (A) (A) (A) (A) (A) (A)
                 (A) (A) (A) (A) (A) (A) (A) (A) (A) (A) (A) (A)
                 (A) (A) (A) (A) (A) (A) (A) (A) (A) (A) (A) (A)
                 (A) (A) (A) (A) (A) (A) (A) (A) (A) (A) (A) (A)
                 (A) (A) (A) (A) (A) (A) (A) (A) (A) (A) (A) (A)
                 (A) (A) (A) (A) (A) (A) (A) (A) (A) (A) (A) (A)
                 (A) (A) (A) (A) (A) (A) (A) (A) (A) (A) (A) (A)
                 (A) (A) (A) (A) (A) (A) (A) (A) (A) (A) (A) (A)
                 (A) (A) (A) (A) (A) (A) (A) (A) (A) (A) (A) (A)
                 (A) (A) (A) (A) (A) (A) (A) (A) (A) (A) (A) (A)
                 (A) (A) (A) (A) (A) (A) (A) (A) (A) (A) (A) (A)
                 (A) (A) (A) (A) (A) (A) (A) (A) (A) (A) (A) (A)
                 (A) (A) (A) (A) (A) (A) (A) (A) (A) (A) (A) (A)
                 (A) (A) (A) (A) (A) (A) (A) (A) (A) (A) (A) (A)
                 (A) (A) (A) (A) (A) (A) (A) (A) (A) (A) (A) (A)
                 (A) (A) (A) (A) (A) (A) (A) (A) (A) (A) (A) (A)
                 (A) (A) (A) (A) (A) (A) (A) (A) (A) (A) (A) (A)
                 (A) (A) (A) (A) (A) (A) (A) (A) (A) (A) (A) (A)
                 (A) (A) (A) (A) (A) (A) (A) (A) (A) (A) (A) (A)
                 (A) (A) (A) (A) (A) (A) (A) (A) (A) (A) (A) (A)
                 (A) (A) (A) (A) (A) (A) (A) (A) (A) (A) (A) (A)
                 (A) (A) (A) (A) (A) (A) (A) (A) (A) (A) (A) (A)
                 (A) (A) (A) (A) (A) (A) (A) (A) (A) (A) (A) (A)
                 (A) (A) (A) (A) (A) (A) (A) (A) (A) (A) (A) (A)
                 (A) (A) (A) (A) (A) (A) (A) (A) (A) (A) (A) (A)
                 (A) (A) (A) (A) (A) (A) (A) (A) (A) (A) (A) (A)
                 (A) (A) (A) (A) (A) (A) (A) (A) (A) (A) (A) (A)
                 (A) (A) (A) (A) (A) (A) (A) (A) (A) (A) (A) (A)
                 (A) (A) (A) (A) (A) (A) (A) (A) (A) (A) (A) (A)
                 (A) (A) (A) (A) (A) (A) (A) (A) (A) (A) (A) (A)
                 (A) (A) (A) (A) (A) (A) (A) (A) (A) (A) (A) (A)
                 (A) (A) (A) (A) (A) (A) (A) (A) (A) (A) (A) (A)
                 (A) (A) (A) (A) (A) (A) (A) (A) (A) (A) (A) (A)
                 (A) (A) (A) (A) (A) (A) (A) (A) (A) (A) (A) (A)
                 (A) (A) (A) (A) (A) (A) (A) (A) (A) (A) (A) (A)
                 (A) (A) (A) (A) (A) (A) (A) (A)
 The electronic state of the initial guess is 1-A.
 Leave Link  401 at Sat Sep 10 08:57:41 2022, MaxMem=  209715200 cpu:      27.3
 (Enter /opt/gaussian/l502.exe)
 Closed shell SCF:
 Requested convergence on RMS density matrix=1.00D-08 within 128 cycles.
 Requested convergence on MAX density matrix=1.00D-06.
 Requested convergence on             energy=1.00D-06.
 No special actions if energy rises.
 Using DIIS extrapolation, IDIIS=  1040.
 Integral symmetry usage will be decided dynamically.
       470945 words used for storage of precomputed grid.
 IEnd=     1592937 IEndB=     1592937 NGot=   209715200 MDV=   208504324
 LenX=   208504324 LenY=   208138904
 Fock matrices will be formed incrementally for  20 cycles.
 Integral accuracy reduced to 1.0D-05 until final iterations.

 Cycle   1  Pass 0  IDiag  1:
 FoFCou: FMM=F IPFlag=           0 FMFlag=      100000 FMFlg1=           0
         NFxFlg=           0 DoJE=F BraDBF=F KetDBF=F FulRan=T
         Omega=  0.000000  0.000000  1.000000  0.000000  0.000000 ICntrl=       0 IOpCl=  0
         NMat0=    1 NMatS0=    1 NMatT0=    0 NMatD0=    1 NMtDS0=    0 NMtDT0=    0
         I1Cent=           0 NGrid=           0.
 Symmetry not used in FoFCou.
 E= -1787.07179587659    
 DIIS: error= 2.15D-02 at cycle   1 NSaved=   1.
 NSaved= 1 IEnMin= 1 EnMin= -1787.07179587659     IErMin= 1 ErrMin= 2.15D-02
 ErrMax= 2.15D-02 EMaxC= 1.00D-01 BMatC= 6.33D-01 BMatP= 6.33D-01
 IDIUse=3 WtCom= 7.85D-01 WtEn= 2.15D-01
 Coeff-Com:  0.100D+01
 Coeff-En:   0.100D+01
 Coeff:      0.100D+01
 Gap=     0.304 Goal=   None    Shift=    0.000
 GapD=    0.304 DampG=1.000 DampE=0.500 DampFc=0.5000 IDamp=-1.
 Damping current iteration by 5.00D-01
 RMSDP=3.88D-03 MaxDP=1.98D-01              OVMax= 2.97D-01

 Cycle   2  Pass 0  IDiag  1:
 RMSU=  1.36D-03    CP:  9.81D-01
 E= -1787.24805256021     Delta-E=       -0.176256683620 Rises=F Damp=T
 DIIS: error= 7.75D-03 at cycle   2 NSaved=   2.
 NSaved= 2 IEnMin= 2 EnMin= -1787.24805256021     IErMin= 2 ErrMin= 7.75D-03
 ErrMax= 7.75D-03 EMaxC= 1.00D-01 BMatC= 1.18D-01 BMatP= 6.33D-01
 IDIUse=3 WtCom= 9.23D-01 WtEn= 7.75D-02
 Coeff-Com:  0.238D+00 0.762D+00
 Coeff-En:   0.360D+00 0.640D+00
 Coeff:      0.247D+00 0.753D+00
 Gap=     0.261 Goal=   None    Shift=    0.000
 RMSDP=1.33D-03 MaxDP=6.44D-02 DE=-1.76D-01 OVMax= 3.19D-01

 Cycle   3  Pass 0  IDiag  1:
 RMSU=  8.83D-04    CP:  9.68D-01  7.76D-01
 E= -1787.67743490206     Delta-E=       -0.429382341843 Rises=F Damp=F
 DIIS: error= 8.16D-03 at cycle   3 NSaved=   3.
 NSaved= 3 IEnMin= 3 EnMin= -1787.67743490206     IErMin= 2 ErrMin= 7.75D-03
 ErrMax= 8.16D-03 EMaxC= 1.00D-01 BMatC= 9.36D-02 BMatP= 1.18D-01
 IDIUse=3 WtCom= 9.18D-01 WtEn= 8.16D-02
 Coeff-Com:  0.747D-01 0.463D+00 0.463D+00
 Coeff-En:   0.000D+00 0.000D+00 0.100D+01
 Coeff:      0.686D-01 0.425D+00 0.507D+00
 Gap=     0.177 Goal=   None    Shift=    0.000
 RMSDP=6.98D-04 MaxDP=5.46D-02 DE=-4.29D-01 OVMax= 8.35D-02

 Cycle   4  Pass 0  IDiag  1:
 RMSU=  3.66D-04    CP:  9.71D-01  8.50D-01  6.45D-01
 E= -1787.74723722899     Delta-E=       -0.069802326934 Rises=F Damp=F
 DIIS: error= 3.81D-03 at cycle   4 NSaved=   4.
 NSaved= 4 IEnMin= 4 EnMin= -1787.74723722899     IErMin= 4 ErrMin= 3.81D-03
 ErrMax= 3.81D-03 EMaxC= 1.00D-01 BMatC= 1.90D-02 BMatP= 9.36D-02
 IDIUse=3 WtCom= 9.62D-01 WtEn= 3.81D-02
 Coeff-Com:  0.166D-01 0.140D+00 0.324D+00 0.519D+00
 Coeff-En:   0.000D+00 0.000D+00 0.190D+00 0.810D+00
 Coeff:      0.160D-01 0.135D+00 0.319D+00 0.530D+00
 Gap=     0.172 Goal=   None    Shift=    0.000
 RMSDP=3.02D-04 MaxDP=1.89D-02 DE=-6.98D-02 OVMax= 3.87D-02

 Cycle   5  Pass 0  IDiag  1:
 RMSU=  1.36D-04    CP:  9.70D-01  8.30D-01  7.04D-01  5.80D-01
 E= -1787.76216093149     Delta-E=       -0.014923702499 Rises=F Damp=F
 DIIS: error= 1.96D-03 at cycle   5 NSaved=   5.
 NSaved= 5 IEnMin= 5 EnMin= -1787.76216093149     IErMin= 5 ErrMin= 1.96D-03
 ErrMax= 1.96D-03 EMaxC= 1.00D-01 BMatC= 2.26D-03 BMatP= 1.90D-02
 IDIUse=3 WtCom= 9.80D-01 WtEn= 1.96D-02
 Coeff-Com:  0.270D-02 0.275D-01 0.141D+00 0.342D+00 0.486D+00
 Coeff-En:   0.000D+00 0.000D+00 0.000D+00 0.109D+00 0.891D+00
 Coeff:      0.264D-02 0.269D-01 0.138D+00 0.338D+00 0.494D+00
 Gap=     0.172 Goal=   None    Shift=    0.000
 RMSDP=1.15D-04 MaxDP=6.97D-03 DE=-1.49D-02 OVMax= 1.74D-02

 Cycle   6  Pass 0  IDiag  1:
 RMSU=  3.64D-05    CP:  9.70D-01  8.29D-01  7.22D-01  6.62D-01  5.24D-01
 E= -1787.76444085276     Delta-E=       -0.002279921271 Rises=F Damp=F
 DIIS: error= 6.45D-04 at cycle   6 NSaved=   6.
 NSaved= 6 IEnMin= 6 EnMin= -1787.76444085276     IErMin= 6 ErrMin= 6.45D-04
 ErrMax= 6.45D-04 EMaxC= 1.00D-01 BMatC= 2.04D-04 BMatP= 2.26D-03
 IDIUse=3 WtCom= 9.94D-01 WtEn= 6.45D-03
 Coeff-Com:  0.106D-03-0.185D-02 0.434D-01 0.138D+00 0.293D+00 0.527D+00
 Coeff-En:   0.000D+00 0.000D+00 0.000D+00 0.000D+00 0.364D-01 0.964D+00
 Coeff:      0.105D-03-0.183D-02 0.431D-01 0.137D+00 0.292D+00 0.530D+00
 Gap=     0.172 Goal=   None    Shift=    0.000
 RMSDP=2.97D-05 MaxDP=2.43D-03 DE=-2.28D-03 OVMax= 3.92D-03

 Cycle   7  Pass 0  IDiag  1:
 RMSU=  1.33D-05    CP:  9.70D-01  8.29D-01  7.22D-01  6.57D-01  5.85D-01
                    CP:  6.18D-01
 E= -1787.76463915335     Delta-E=       -0.000198300591 Rises=F Damp=F
 DIIS: error= 1.78D-04 at cycle   7 NSaved=   7.
 NSaved= 7 IEnMin= 7 EnMin= -1787.76463915335     IErMin= 7 ErrMin= 1.78D-04
 ErrMax= 1.78D-04 EMaxC= 1.00D-01 BMatC= 2.11D-05 BMatP= 2.04D-04
 IDIUse=3 WtCom= 9.98D-01 WtEn= 1.78D-03
 Coeff-Com: -0.938D-05-0.388D-02 0.107D-01 0.432D-01 0.115D+00 0.309D+00
 Coeff-Com:  0.526D+00
 Coeff-En:   0.000D+00 0.000D+00 0.000D+00 0.000D+00 0.000D+00 0.442D-01
 Coeff-En:   0.956D+00
 Coeff:     -0.937D-05-0.387D-02 0.107D-01 0.431D-01 0.115D+00 0.308D+00
 Coeff:      0.527D+00
 Gap=     0.172 Goal=   None    Shift=    0.000
 RMSDP=9.25D-06 MaxDP=6.99D-04 DE=-1.98D-04 OVMax= 1.08D-03

 Initial convergence to 1.0D-05 achieved.  Increase integral accuracy.
 Cycle   8  Pass 1  IDiag  1:
 E= -1787.76462634375     Delta-E=        0.000012809598 Rises=F Damp=F
 DIIS: error= 1.92D-04 at cycle   1 NSaved=   1.
 NSaved= 1 IEnMin= 1 EnMin= -1787.76462634375     IErMin= 1 ErrMin= 1.92D-04
 ErrMax= 1.92D-04 EMaxC= 1.00D-01 BMatC= 1.24D-05 BMatP= 1.24D-05
 IDIUse=3 WtCom= 9.98D-01 WtEn= 1.92D-03
 Coeff-Com:  0.100D+01
 Coeff-En:   0.100D+01
 Coeff:      0.100D+01
 Gap=     0.172 Goal=   None    Shift=    0.000
 RMSDP=9.25D-06 MaxDP=6.99D-04 DE= 1.28D-05 OVMax= 1.02D-03

 Cycle   9  Pass 1  IDiag  1:
 RMSU=  8.19D-05    CP:  1.00D+00
 E= -1787.76463019941     Delta-E=       -0.000003855654 Rises=F Damp=F
 DIIS: error= 8.05D-05 at cycle   2 NSaved=   2.
 NSaved= 2 IEnMin= 2 EnMin= -1787.76463019941     IErMin= 2 ErrMin= 8.05D-05
 ErrMax= 8.05D-05 EMaxC= 1.00D-01 BMatC= 7.79D-06 BMatP= 1.24D-05
 IDIUse=1 WtCom= 1.00D+00 WtEn= 0.00D+00
 Coeff-Com:  0.414D+00 0.586D+00
 Coeff:      0.414D+00 0.586D+00
 Gap=     0.172 Goal=   None    Shift=    0.000
 RMSDP=9.72D-06 MaxDP=5.94D-04 DE=-3.86D-06 OVMax= 1.37D-03

 Cycle  10  Pass 1  IDiag  1:
 RMSU=  6.88D-06    CP:  1.00D+00  1.00D+00
 E= -1787.76463135733     Delta-E=       -0.000001157920 Rises=F Damp=F
 DIIS: error= 7.45D-05 at cycle   3 NSaved=   3.
 NSaved= 3 IEnMin= 3 EnMin= -1787.76463135733     IErMin= 3 ErrMin= 7.45D-05
 ErrMax= 7.45D-05 EMaxC= 1.00D-01 BMatC= 6.70D-06 BMatP= 7.79D-06
 IDIUse=1 WtCom= 1.00D+00 WtEn= 0.00D+00
 Coeff-Com:  0.304D-02 0.480D+00 0.517D+00
 Coeff:      0.304D-02 0.480D+00 0.517D+00
 Gap=     0.172 Goal=   None    Shift=    0.000
 RMSDP=4.98D-06 MaxDP=2.99D-04 DE=-1.16D-06 OVMax= 7.44D-04

 Cycle  11  Pass 1  IDiag  1:
 RMSU=  7.57D-07    CP:  1.00D+00  1.01D+00  5.09D-01
 E= -1787.76463857246     Delta-E=       -0.000007215130 Rises=F Damp=F
 DIIS: error= 1.09D-05 at cycle   4 NSaved=   4.
 NSaved= 4 IEnMin= 4 EnMin= -1787.76463857246     IErMin= 4 ErrMin= 1.09D-05
 ErrMax= 1.09D-05 EMaxC= 1.00D-01 BMatC= 1.35D-07 BMatP= 6.70D-06
 IDIUse=1 WtCom= 1.00D+00 WtEn= 0.00D+00
 Coeff-Com: -0.352D-02 0.305D+00 0.336D+00 0.363D+00
 Coeff:     -0.352D-02 0.305D+00 0.336D+00 0.363D+00
 Gap=     0.172 Goal=   None    Shift=    0.000
 RMSDP=6.98D-07 MaxDP=5.15D-05 DE=-7.22D-06 OVMax= 8.04D-05

 Cycle  12  Pass 1  IDiag  1:
 RMSU=  2.12D-07    CP:  1.00D+00  1.01D+00  5.21D-01  4.21D-01
 E= -1787.76463870193     Delta-E=       -0.000000129472 Rises=F Damp=F
 DIIS: error= 1.72D-06 at cycle   5 NSaved=   5.
 NSaved= 5 IEnMin= 5 EnMin= -1787.76463870193     IErMin= 5 ErrMin= 1.72D-06
 ErrMax= 1.72D-06 EMaxC= 1.00D-01 BMatC= 3.93D-09 BMatP= 1.35D-07
 IDIUse=1 WtCom= 1.00D+00 WtEn= 0.00D+00
 Coeff-Com: -0.229D-02 0.164D+00 0.181D+00 0.222D+00 0.435D+00
 Coeff:     -0.229D-02 0.164D+00 0.181D+00 0.222D+00 0.435D+00
 Gap=     0.172 Goal=   None    Shift=    0.000
 RMSDP=1.37D-07 MaxDP=9.01D-06 DE=-1.29D-07 OVMax= 1.61D-05

 Cycle  13  Pass 1  IDiag  1:
 RMSU=  7.03D-08    CP:  1.00D+00  1.01D+00  5.22D-01  4.45D-01  7.02D-01
 E= -1787.76463870547     Delta-E=       -0.000000003541 Rises=F Damp=F
 DIIS: error= 4.81D-07 at cycle   6 NSaved=   6.
 NSaved= 6 IEnMin= 6 EnMin= -1787.76463870547     IErMin= 6 ErrMin= 4.81D-07
 ErrMax= 4.81D-07 EMaxC= 1.00D-01 BMatC= 3.31D-10 BMatP= 3.93D-09
 IDIUse=1 WtCom= 1.00D+00 WtEn= 0.00D+00
 Coeff-Com: -0.950D-03 0.623D-01 0.690D-01 0.907D-01 0.261D+00 0.518D+00
 Coeff:     -0.950D-03 0.623D-01 0.690D-01 0.907D-01 0.261D+00 0.518D+00
 Gap=     0.172 Goal=   None    Shift=    0.000
 RMSDP=3.77D-08 MaxDP=3.06D-06 DE=-3.54D-09 OVMax= 4.35D-06

 Cycle  14  Pass 1  IDiag  1:
 RMSU=  2.10D-08    CP:  1.00D+00  1.01D+00  5.22D-01  4.50D-01  7.33D-01
                    CP:  7.96D-01
 E= -1787.76463870570     Delta-E=       -0.000000000236 Rises=F Damp=F
 DIIS: error= 1.82D-07 at cycle   7 NSaved=   7.
 NSaved= 7 IEnMin= 7 EnMin= -1787.76463870570     IErMin= 7 ErrMin= 1.82D-07
 ErrMax= 1.82D-07 EMaxC= 1.00D-01 BMatC= 3.73D-11 BMatP= 3.31D-10
 IDIUse=1 WtCom= 1.00D+00 WtEn= 0.00D+00
 Coeff-Com: -0.266D-03 0.155D-01 0.171D-01 0.246D-01 0.964D-01 0.300D+00
 Coeff-Com:  0.546D+00
 Coeff:     -0.266D-03 0.155D-01 0.171D-01 0.246D-01 0.964D-01 0.300D+00
 Coeff:      0.546D+00
 Gap=     0.172 Goal=   None    Shift=    0.000
 RMSDP=1.37D-08 MaxDP=8.79D-07 DE=-2.36D-10 OVMax= 1.82D-06

 Cycle  15  Pass 1  IDiag  1:
 RMSU=  6.80D-09    CP:  1.00D+00  1.01D+00  5.22D-01  4.50D-01  7.44D-01
                    CP:  8.26D-01  7.11D-01
 E= -1787.76463870579     Delta-E=       -0.000000000090 Rises=F Damp=F
 DIIS: error= 6.22D-08 at cycle   8 NSaved=   8.
 NSaved= 8 IEnMin= 8 EnMin= -1787.76463870579     IErMin= 8 ErrMin= 6.22D-08
 ErrMax= 6.22D-08 EMaxC= 1.00D-01 BMatC= 5.90D-12 BMatP= 3.73D-11
 IDIUse=1 WtCom= 1.00D+00 WtEn= 0.00D+00
 Coeff-Com:  0.269D-04-0.282D-02-0.319D-02-0.284D-02 0.741D-02 0.822D-01
 Coeff-Com:  0.325D+00 0.594D+00
 Coeff:      0.269D-04-0.282D-02-0.319D-02-0.284D-02 0.741D-02 0.822D-01
 Coeff:      0.325D+00 0.594D+00
 Gap=     0.172 Goal=   None    Shift=    0.000
 RMSDP=5.47D-09 MaxDP=3.12D-07 DE=-9.00D-11 OVMax= 7.81D-07

 SCF Done:  E(RB3LYP) =  -1787.76463871     A.U. after   15 cycles
             Convg  =    0.5470D-08             -V/T =  2.0057
 KE= 1.777604222126D+03 PE=-1.061874818404D+04 EE= 3.832635423129D+03
 Leave Link  502 at Sat Sep 10 09:12:02 2022, MaxMem=  209715200 cpu:    6371.7
 (Enter /opt/gaussian/l601.exe)
 Copying SCF densities to generalized density rwf, IOpCl= 0 IROHF=0.

 **********************************************************************

            Population analysis using the SCF density.

 **********************************************************************

 Orbital symmetries:
       Occupied  (A) (A) (A) (A) (A) (A) (A) (A) (A) (A) (A) (A)
                 (A) (A) (A) (A) (A) (A) (A) (A) (A) (A) (A) (A)
                 (A) (A) (A) (A) (A) (A) (A) (A) (A) (A) (A) (A)
                 (A) (A) (A) (A) (A) (A) (A) (A) (A) (A) (A) (A)
                 (A) (A) (A) (A) (A) (A) (A) (A) (A) (A) (A) (A)
                 (A) (A) (A) (A) (A) (A) (A) (A) (A) (A) (A) (A)
                 (A) (A) (A) (A) (A) (A) (A) (A) (A) (A) (A) (A)
                 (A) (A) (A) (A) (A) (A) (A) (A) (A) (A) (A) (A)
                 (A) (A) (A) (A) (A) (A) (A) (A) (A) (A) (A) (A)
                 (A) (A) (A) (A) (A) (A) (A) (A) (A) (A) (A)
       Virtual   (A) (A) (A) (A) (A) (A) (A) (A) (A) (A) (A) (A)
                 (A) (A) (A) (A) (A) (A) (A) (A) (A) (A) (A) (A)
                 (A) (A) (A) (A) (A) (A) (A) (A) (A) (A) (A) (A)
                 (A) (A) (A) (A) (A) (A) (A) (A) (A) (A) (A) (A)
                 (A) (A) (A) (A) (A) (A) (A) (A) (A) (A) (A) (A)
                 (A) (A) (A) (A) (A) (A) (A) (A) (A) (A) (A) (A)
                 (A) (A) (A) (A) (A) (A) (A) (A) (A) (A) (A) (A)
                 (A) (A) (A) (A) (A) (A) (A) (A) (A) (A) (A) (A)
                 (A) (A) (A) (A) (A) (A) (A) (A) (A) (A) (A) (A)
                 (A) (A) (A) (A) (A) (A) (A) (A) (A) (A) (A) (A)
                 (A) (A) (A) (A) (A) (A) (A) (A) (A) (A) (A) (A)
                 (A) (A) (A) (A) (A) (A) (A) (A) (A) (A) (A) (A)
                 (A) (A) (A) (A) (A) (A) (A) (A) (A) (A) (A) (A)
                 (A) (A) (A) (A) (A) (A) (A) (A) (A) (A) (A) (A)
                 (A) (A) (A) (A) (A) (A) (A) (A) (A) (A) (A) (A)
                 (A) (A) (A) (A) (A) (A) (A) (A) (A) (A) (A) (A)
                 (A) (A) (A) (A) (A) (A) (A) (A) (A) (A) (A) (A)
                 (A) (A) (A) (A) (A) (A) (A) (A) (A) (A) (A) (A)
                 (A) (A) (A) (A) (A) (A) (A) (A) (A) (A) (A) (A)
                 (A) (A) (A) (A) (A) (A) (A) (A) (A) (A) (A) (A)
                 (A) (A) (A) (A) (A) (A) (A) (A) (A) (A) (A) (A)
                 (A) (A) (A) (A) (A) (A) (A) (A) (A) (A) (A) (A)
                 (A) (A) (A) (A) (A) (A) (A) (A) (A) (A) (A) (A)
                 (A) (A) (A) (A) (A) (A) (A) (A) (A) (A) (A) (A)
                 (A) (A) (A) (A) (A) (A) (A) (A) (A) (A) (A) (A)
                 (A) (A) (A) (A) (A) (A) (A) (A) (A) (A) (A) (A)
                 (A) (A) (A) (A) (A) (A) (A) (A) (A) (A) (A) (A)
                 (A) (A) (A) (A) (A) (A) (A) (A) (A) (A) (A) (A)
                 (A) (A) (A) (A) (A) (A) (A) (A) (A) (A) (A) (A)
                 (A) (A) (A) (A) (A) (A) (A) (A) (A) (A) (A) (A)
                 (A) (A) (A) (A) (A) (A) (A) (A) (A) (A) (A) (A)
                 (A) (A) (A) (A) (A) (A) (A) (A) (A) (A) (A) (A)
                 (A) (A) (A) (A) (A) (A) (A) (A) (A) (A) (A) (A)
                 (A) (A) (A) (A) (A) (A) (A) (A) (A) (A) (A) (A)
                 (A) (A) (A) (A) (A) (A) (A) (A) (A) (A) (A) (A)
                 (A) (A) (A) (A) (A) (A) (A) (A) (A) (A) (A) (A)
                 (A) (A) (A) (A) (A) (A) (A) (A) (A) (A) (A) (A)
                 (A) (A) (A) (A) (A) (A) (A) (A)
 The electronic state is 1-A.
 Alpha  occ. eigenvalues --  -88.92400 -19.17697 -19.12679 -14.40955 -14.38794
 Alpha  occ. eigenvalues --  -14.38783 -14.34567 -14.32684 -10.30795 -10.28146
 Alpha  occ. eigenvalues --  -10.25862 -10.25612 -10.24149 -10.23884 -10.23253
 Alpha  occ. eigenvalues --  -10.22982 -10.22960 -10.22684 -10.22086 -10.21204
 Alpha  occ. eigenvalues --  -10.20936 -10.20889 -10.20874 -10.20566 -10.20207
 Alpha  occ. eigenvalues --  -10.19884 -10.19852 -10.19686 -10.19663 -10.19602
 Alpha  occ. eigenvalues --  -10.19445 -10.19432 -10.19278  -7.98603  -5.94927
 Alpha  occ. eigenvalues --   -5.94547  -5.94239  -1.09228  -1.08074  -1.05885
 Alpha  occ. eigenvalues --   -0.96634  -0.93992  -0.92286  -0.89816  -0.86581
 Alpha  occ. eigenvalues --   -0.86221  -0.81816  -0.78820  -0.78086  -0.77430
 Alpha  occ. eigenvalues --   -0.76755  -0.75535  -0.74948  -0.74530  -0.73354
 Alpha  occ. eigenvalues --   -0.70541  -0.70246  -0.65917  -0.64696  -0.63003
 Alpha  occ. eigenvalues --   -0.62246  -0.61651  -0.60571  -0.59202  -0.58570
 Alpha  occ. eigenvalues --   -0.56930  -0.56015  -0.54119  -0.53621  -0.52674
 Alpha  occ. eigenvalues --   -0.52301  -0.52158  -0.51533  -0.50263  -0.49522
 Alpha  occ. eigenvalues --   -0.47721  -0.47253  -0.46782  -0.46490  -0.46163
 Alpha  occ. eigenvalues --   -0.45394  -0.45224  -0.44444  -0.44153  -0.43588
 Alpha  occ. eigenvalues --   -0.43051  -0.42987  -0.42471  -0.42226  -0.41381
 Alpha  occ. eigenvalues --   -0.40638  -0.40407  -0.39922  -0.39474  -0.39266
 Alpha  occ. eigenvalues --   -0.38631  -0.37606  -0.37412  -0.37100  -0.36492
 Alpha  occ. eigenvalues --   -0.36121  -0.35395  -0.35086  -0.34489  -0.33105
 Alpha  occ. eigenvalues --   -0.32856  -0.31069  -0.30901  -0.28454  -0.27559
 Alpha  occ. eigenvalues --   -0.26980  -0.26695  -0.26428  -0.25980  -0.25525
 Alpha  occ. eigenvalues --   -0.24771  -0.24645  -0.23274  -0.21794
 Alpha virt. eigenvalues --   -0.04631  -0.04003  -0.03426  -0.01536  -0.01353
 Alpha virt. eigenvalues --   -0.00157   0.00916   0.01721   0.02377   0.02415
 Alpha virt. eigenvalues --    0.03761   0.04983   0.06258   0.06622   0.06879
 Alpha virt. eigenvalues --    0.07252   0.07624   0.08180   0.08865   0.08976
 Alpha virt. eigenvalues --    0.10295   0.10436   0.11069   0.11316   0.11507
 Alpha virt. eigenvalues --    0.12276   0.12614   0.13060   0.13539   0.13845
 Alpha virt. eigenvalues --    0.13861   0.14145   0.15192   0.15560   0.16010
 Alpha virt. eigenvalues --    0.16311   0.16694   0.17463   0.18157   0.19904
 Alpha virt. eigenvalues --    0.20842   0.21306   0.22437   0.23541   0.24307
 Alpha virt. eigenvalues --    0.24713   0.24825   0.25539   0.26321   0.27238
 Alpha virt. eigenvalues --    0.28031   0.28678   0.29141   0.29950   0.30350
 Alpha virt. eigenvalues --    0.30667   0.31362   0.32212   0.33044   0.33963
 Alpha virt. eigenvalues --    0.34755   0.35888   0.36374   0.37022   0.38347
 Alpha virt. eigenvalues --    0.39076   0.40026   0.40815   0.41181   0.41791
 Alpha virt. eigenvalues --    0.42441   0.43256   0.43531   0.43800   0.44623
 Alpha virt. eigenvalues --    0.45055   0.45470   0.45788   0.45860   0.46444
 Alpha virt. eigenvalues --    0.46558   0.46621   0.46914   0.47045   0.47401
 Alpha virt. eigenvalues --    0.47563   0.47867   0.48013   0.48475   0.49114
 Alpha virt. eigenvalues --    0.49282   0.49668   0.49956   0.50126   0.50295
 Alpha virt. eigenvalues --    0.50718   0.50888   0.51133   0.51529   0.51974
 Alpha virt. eigenvalues --    0.52390   0.52491   0.53154   0.53792   0.54414
 Alpha virt. eigenvalues --    0.54497   0.54711   0.54954   0.55241   0.55492
 Alpha virt. eigenvalues --    0.56253   0.56553   0.57336   0.58002   0.58119
 Alpha virt. eigenvalues --    0.58721   0.59093   0.59569   0.59805   0.60304
 Alpha virt. eigenvalues --    0.60648   0.60840   0.61266   0.61609   0.62078
 Alpha virt. eigenvalues --    0.62722   0.63022   0.63378   0.64234   0.64700
 Alpha virt. eigenvalues --    0.65056   0.65157   0.65651   0.65718   0.65917
 Alpha virt. eigenvalues --    0.66625   0.66641   0.67070   0.67373   0.67709
 Alpha virt. eigenvalues --    0.68202   0.68475   0.69513   0.70153   0.70298
 Alpha virt. eigenvalues --    0.70829   0.71307   0.71957   0.72643   0.72872
 Alpha virt. eigenvalues --    0.73602   0.74562   0.74798   0.75136   0.77131
 Alpha virt. eigenvalues --    0.77338   0.77882   0.78571   0.79181   0.79661
 Alpha virt. eigenvalues --    0.81961   0.82260   0.83228   0.83938   0.84618
 Alpha virt. eigenvalues --    0.85104   0.85726   0.86303   0.87098   0.87605
 Alpha virt. eigenvalues --    0.88716   0.88827   0.89260   0.89992   0.90309
 Alpha virt. eigenvalues --    0.91038   0.91631   0.91899   0.92732   0.93173
 Alpha virt. eigenvalues --    0.93457   0.93685   0.94639   0.94821   0.94920
 Alpha virt. eigenvalues --    0.95208   0.95491   0.96024   0.97136   0.98046
 Alpha virt. eigenvalues --    0.98538   0.99021   0.99635   1.00114   1.00291
 Alpha virt. eigenvalues --    1.00571   1.00930   1.01430   1.01997   1.02399
 Alpha virt. eigenvalues --    1.02644   1.04013   1.04219   1.04647   1.04963
 Alpha virt. eigenvalues --    1.05831   1.05930   1.06807   1.07352   1.07727
 Alpha virt. eigenvalues --    1.08209   1.08486   1.09781   1.10767   1.11325
 Alpha virt. eigenvalues --    1.12001   1.12308   1.13213   1.14167   1.14883
 Alpha virt. eigenvalues --    1.17165   1.17477   1.17881   1.18687   1.19346
 Alpha virt. eigenvalues --    1.20061   1.22792   1.23346   1.23666   1.24205
 Alpha virt. eigenvalues --    1.24534   1.25446   1.26943   1.27791   1.29493
 Alpha virt. eigenvalues --    1.29877   1.30706   1.30797   1.31291   1.31431
 Alpha virt. eigenvalues --    1.33014   1.34138   1.34419   1.35424   1.35588
 Alpha virt. eigenvalues --    1.36980   1.38670   1.39398   1.40149   1.40346
 Alpha virt. eigenvalues --    1.40875   1.42419   1.43612   1.45736   1.46271
 Alpha virt. eigenvalues --    1.46988   1.47320   1.48150   1.48806   1.49180
 Alpha virt. eigenvalues --    1.49506   1.50153   1.50586   1.51111   1.51628
 Alpha virt. eigenvalues --    1.52345   1.53021   1.53425   1.53834   1.54802
 Alpha virt. eigenvalues --    1.55799   1.55987   1.56537   1.57263   1.57670
 Alpha virt. eigenvalues --    1.57853   1.58246   1.58977   1.59207   1.59729
 Alpha virt. eigenvalues --    1.59976   1.60702   1.60997   1.61653   1.62268
 Alpha virt. eigenvalues --    1.62724   1.63514   1.63645   1.64171   1.64689
 Alpha virt. eigenvalues --    1.65097   1.65255   1.65640   1.66230   1.66875
 Alpha virt. eigenvalues --    1.67052   1.67377   1.68223   1.68293   1.68426
 Alpha virt. eigenvalues --    1.68805   1.69231   1.69746   1.70795   1.71155
 Alpha virt. eigenvalues --    1.71659   1.71926   1.72584   1.73594   1.74204
 Alpha virt. eigenvalues --    1.74788   1.75106   1.75327   1.76371   1.77128
 Alpha virt. eigenvalues --    1.78024   1.78314   1.78870   1.79361   1.79687
 Alpha virt. eigenvalues --    1.79953   1.80713   1.81452   1.81937   1.82647
 Alpha virt. eigenvalues --    1.83311   1.83575   1.84424   1.84571   1.84658
 Alpha virt. eigenvalues --    1.85278   1.86105   1.86573   1.87171   1.87642
 Alpha virt. eigenvalues --    1.89003   1.90184   1.90562   1.91474   1.91847
 Alpha virt. eigenvalues --    1.92094   1.93475   1.94273   1.94702   1.95209
 Alpha virt. eigenvalues --    1.96139   1.97342   1.97377   1.97892   1.98153
 Alpha virt. eigenvalues --    1.98299   1.99213   1.99859   2.00406   2.01671
 Alpha virt. eigenvalues --    2.02728   2.03162   2.03471   2.04166   2.04353
 Alpha virt. eigenvalues --    2.05849   2.06407   2.07307   2.07754   2.09438
 Alpha virt. eigenvalues --    2.09933   2.11390   2.12075   2.12678   2.14208
 Alpha virt. eigenvalues --    2.14824   2.15964   2.17292   2.18186   2.18764
 Alpha virt. eigenvalues --    2.19523   2.20505   2.22001   2.22501   2.24619
 Alpha virt. eigenvalues --    2.25147   2.27254   2.28325   2.28847   2.29424
 Alpha virt. eigenvalues --    2.31334   2.33563   2.33852   2.35271   2.36288
 Alpha virt. eigenvalues --    2.37951   2.39006   2.39404   2.40024   2.40703
 Alpha virt. eigenvalues --    2.40903   2.41410   2.42093   2.43278   2.44226
 Alpha virt. eigenvalues --    2.44822   2.45431   2.45970   2.46170   2.47419
 Alpha virt. eigenvalues --    2.47877   2.49281   2.49885   2.51966   2.53089
 Alpha virt. eigenvalues --    2.54964   2.57363   2.58415   2.59449   2.61103
 Alpha virt. eigenvalues --    2.62926   2.64142   2.64437   2.66245   2.68479
 Alpha virt. eigenvalues --    2.70292   2.70438   2.70827   2.71641   2.73388
 Alpha virt. eigenvalues --    2.73851   2.77349   2.78618   2.79545   2.80481
 Alpha virt. eigenvalues --    2.81057   2.83440   2.87411   2.88660   2.90199
 Alpha virt. eigenvalues --    2.93555   2.95512   2.96143   2.98357   3.00962
 Alpha virt. eigenvalues --    3.03629   3.03666   3.07742   3.10149   3.14794
 Alpha virt. eigenvalues --    3.30530   3.39794   3.40989   3.45458   3.49305
 Alpha virt. eigenvalues --    3.53875   3.56152
          Condensed to atoms (all electrons):
 Mulliken atomic charges:
              1
     1  C    0.136908
     2  O   -0.280142
     3  C    0.207141
     4  N   -0.233610
     5  C    0.102633
     6  C   -0.020263
     7  C    0.086897
     8  C   -0.039345
     9  C    0.039175
    10  C    0.014816
    11  C    0.073575
    12  C    0.096556
    13  C    0.018566
    14  C    0.046644
    15  N   -0.278962
    16  C    0.140701
    17  C   -0.025558
    18  C    0.047738
    19  C   -0.099978
    20  S    0.161876
    21  C   -0.149178
    22  C    0.131594
    23  O   -0.238969
    24  C    0.122465
    25  N   -0.227504
    26  N   -0.061610
    27  N   -0.182663
    28  C    0.010875
    29  C    0.044256
    30  C    0.037724
    31  C    0.039308
    32  C    0.032055
    33  C    0.213218
    34  H    0.028923
    35  H    0.029542
    36  H    0.030147
    37  H   -0.006101
    38  H   -0.028274
    39  H   -0.028143
    40  H   -0.033795
    41  H   -0.014069
    42  H   -0.021703
    43  H   -0.040092
    44  H    0.048796
    45  H    0.036955
    46  H   -0.027001
    47  H    0.019499
    48  H    0.024643
    49  H    0.060511
    50  H    0.060931
    51  H   -0.022789
    52  H   -0.027576
    53  H   -0.025797
    54  H   -0.031549
 Sum of Mulliken atomic charges =   0.00000
 Mulliken charges with hydrogens summed into heavy atoms:
              1
     1  C    0.225520
     2  O   -0.280142
     3  C    0.207141
     4  N   -0.233610
     5  C    0.096532
     6  C   -0.048536
     7  C    0.058754
     8  C   -0.039345
     9  C    0.039175
    10  C   -0.018980
    11  C    0.059506
    12  C    0.096556
    13  C   -0.003137
    14  C    0.006552
    15  N   -0.278962
    16  C    0.226453
    17  C   -0.025558
    18  C    0.020737
    19  C   -0.080479
    20  S    0.161876
    21  C   -0.124535
    22  C    0.131594
    23  O   -0.238969
    24  C    0.243906
    25  N   -0.227504
    26  N   -0.061610
    27  N   -0.182663
    28  C    0.010875
    29  C    0.021468
    30  C    0.010149
    31  C    0.013511
    32  C    0.000505
    33  C    0.213218
 Sum of Mulliken charges with hydrogens summed into heavy atoms =   0.00000
 Electronic spatial extent (au):  <R**2>=          21471.6924
 Charge=              0.0000 electrons
 Dipole moment (field-independent basis, Debye):
    X=              2.6168    Y=              4.8866    Z=              0.3134  Tot=              5.5520
 Quadrupole moment (field-independent basis, Debye-Ang):
   XX=           -205.6045   YY=           -187.7034   ZZ=           -188.1338
   XY=            -17.7575   XZ=            -12.5852   YZ=             -5.8695
 Traceless Quadrupole moment (field-independent basis, Debye-Ang):
   XX=            -11.7906   YY=              6.1105   ZZ=              5.6801
   XY=            -17.7575   XZ=            -12.5852   YZ=             -5.8695
 Octapole moment (field-independent basis, Debye-Ang**2):
  XXX=            155.4501  YYY=             66.7345  ZZZ=             35.2919  XYY=             23.0647
  XXY=             10.1051  XXZ=             84.1523  XZZ=             16.6337  YZZ=             22.5442
  YYZ=             -6.7390  XYZ=             83.4939
 Hexadecapole moment (field-independent basis, Debye-Ang**3):
 XXXX=         -21578.6836 YYYY=          -5437.0784 ZZZZ=          -2073.3714 XXXY=           -277.9897
 XXXZ=           -489.1132 YYYX=           -258.3989 YYYZ=            -43.8267 ZZZX=             42.0387
 ZZZY=            -39.2674 XXYY=          -4304.4690 XXZZ=          -3875.3181 YYZZ=          -1307.1362
 XXYZ=           -106.8700 YYXZ=            -92.2615 ZZXY=            -16.1839
 N-N= 3.220743900079D+03 E-N=-1.061874819869D+04  KE= 1.777604222126D+03
 No NMR shielding tensors so no spin-rotation constants.
 Leave Link  601 at Sat Sep 10 09:12:03 2022, MaxMem=  209715200 cpu:       4.3
 (Enter /opt/gaussian/l602.exe)
 Breneman (CHELPG) radii used.
 Read replacement radii for each type of atom:
 Rad(35) =   1.900000000000D+00
 Atom Element Radius
    1     6    1.50
    2     8    1.70
    3     6    1.50
    4     7    1.70
    5     6    1.50
    6     6    1.50
    7     6    1.50
    8     6    1.50
    9     6    1.50
   10     6    1.50
   11     6    1.50
   12     6    1.50
   13     6    1.50
   14     6    1.50
   15     7    1.70
   16     6    1.50
   17     6    1.50
   18     6    1.50
   19     6    1.50
   20    16    2.00
   21     6    1.50
   22     6    1.50
   23     8    1.70
   24     6    1.50
   25     7    1.70
   26     7    1.70
   27     7    1.70
   28     6    1.50
   29     6    1.50
   30     6    1.50
   31     6    1.50
   32     6    1.50
   33     6    1.50
   34     1    1.45
   35     1    1.45
   36     1    1.45
   37     1    1.45
   38     1    1.45
   39     1    1.45
   40     1    1.45
   41     1    1.45
   42     1    1.45
   43     1    1.45
   44     1    1.45
   45     1    1.45
   46     1    1.45
   47     1    1.45
   48     1    1.45
   49     1    1.45
   50     1    1.45
   51     1    1.45
   52     1    1.45
   53     1    1.45
   54     1    1.45
 Generate Potential Derived Charges using the Breneman model, NDens= 1.
 Grid spacing= 0.300 Box extension= 2.800
 NStep X,Y,Z=   72     52     41   Total possible points=      153504
 Number of Points to Fit=   30242

 **********************************************************************

            Electrostatic Properties Using The SCF Density

 **********************************************************************

       Atomic Center    1 is at   6.102190  0.995519  2.565160
       Atomic Center    2 is at   5.261420  0.471780  1.532980
       Atomic Center    3 is at   5.796580 -0.467011  0.716660
       Atomic Center    4 is at   7.066889 -0.807351  0.899860
       Atomic Center    5 is at   7.598259 -1.741391  0.094240
       Atomic Center    6 is at   6.881109 -2.367441 -0.917710
       Atomic Center    7 is at   5.542519 -1.998571 -1.095050
       Atomic Center    8 is at   4.947629 -1.031510 -0.278510
       Atomic Center    9 is at   3.520069 -0.657690 -0.451720
       Atomic Center   10 is at   2.562379 -1.641610 -0.761760
       Atomic Center   11 is at   1.222569 -1.328109 -0.979510
       Atomic Center   12 is at   0.787570  0.003901 -0.889250
       Atomic Center   13 is at   1.729780  0.995230 -0.570570
       Atomic Center   14 is at   3.068680  0.669560 -0.356930
       Atomic Center   15 is at  -0.576010  0.369731 -1.154680
       Atomic Center   16 is at  -0.827730  1.656851 -1.815850
       Atomic Center   17 is at  -1.235270  2.795501 -0.902830
       Atomic Center   18 is at  -1.720329  4.050391 -1.405260
       Atomic Center   19 is at  -2.015989  4.947161 -0.414020
       Atomic Center   20 is at  -1.712839  4.281811  1.161280
       Atomic Center   21 is at  -1.180310  2.778781  0.469890
       Atomic Center   22 is at  -1.625510 -0.454539 -0.766740
       Atomic Center   23 is at  -1.477181 -1.485659 -0.137200
       Atomic Center   24 is at  -3.037580  0.010662 -1.181170
       Atomic Center   25 is at  -4.048241 -0.950678 -0.821400
       Atomic Center   26 is at  -4.672261 -1.661068 -1.811200
       Atomic Center   27 is at  -5.548161 -2.448378 -1.289390
       Atomic Center   28 is at  -5.525491 -2.278468  0.081730
       Atomic Center   29 is at  -6.288391 -2.887847  1.093610
       Atomic Center   30 is at  -6.042821 -2.497178  2.402340
       Atomic Center   31 is at  -5.057361 -1.524068  2.708860
       Atomic Center   32 is at  -4.291531 -0.915248  1.722810
       Atomic Center   33 is at  -4.548241 -1.310888  0.399710
       Atomic Center   34 is at   6.989410  1.491949  2.143130
       Atomic Center   35 is at   5.477590  1.717979  3.106480
       Atomic Center   36 is at   6.442030  0.197429  3.242830
       Atomic Center   37 is at   8.648869 -1.988771  0.277790
       Atomic Center   38 is at   7.350779 -3.116361 -1.556960
       Atomic Center   39 is at   4.952039 -2.455190 -1.892190
       Atomic Center   40 is at   2.865849 -2.688990 -0.819280
       Atomic Center   41 is at   0.513399 -2.121229 -1.201510
       Atomic Center   42 is at   1.421840  2.037051 -0.472970
       Atomic Center   43 is at   3.771910  1.462350 -0.106890
       Atomic Center   44 is at   0.091680  1.925291 -2.356470
       Atomic Center   45 is at  -1.593600  1.525631 -2.596100
       Atomic Center   46 is at  -1.844139  4.270731 -2.466900
       Atomic Center   47 is at  -2.400169  5.960172 -0.515520
       Atomic Center   48 is at  -0.847620  1.968441  1.115310
       Atomic Center   49 is at  -3.265890  0.989062 -0.729620
       Atomic Center   50 is at  -3.106670  0.116862 -2.272840
       Atomic Center   51 is at  -7.041001 -3.636907  0.843010
       Atomic Center   52 is at  -6.612951 -2.946577  3.217970
       Atomic Center   53 is at  -4.891921 -1.251438  3.753600
       Atomic Center   54 is at  -3.522110 -0.183178  1.969240
   30242 points will be used for fitting atomic charges
 Fitting point charges to electrostatic potential
 Charges from ESP fit, RMS=   0.00399 RRMS=   0.25844:
 Charge=   0.00000 Dipole=     2.4622     4.9587     0.1833 Tot=     5.5394
              1
     1  C    0.148397
     2  O   -0.381525
     3  C    0.640584
     4  N   -0.506863
     5  C    0.217779
     6  C   -0.293037
     7  C    0.097908
     8  C   -0.273843
     9  C    0.133122
    10  C   -0.112578
    11  C   -0.175362
    12  C    0.224376
    13  C   -0.074057
    14  C   -0.183217
    15  N   -0.428421
    16  C    0.103886
    17  C    0.164757
    18  C   -0.200169
    19  C   -0.154972
    20  S    0.016498
    21  C   -0.197971
    22  C    0.622589
    23  O   -0.510242
    24  C   -0.063185
    25  N    0.340229
    26  N   -0.233002
    27  N   -0.341703
    28  C    0.410925
    29  C   -0.252591
    30  C   -0.046353
    31  C   -0.113829
    32  C   -0.131806
    33  C   -0.095358
    34  H    0.010601
    35  H    0.041687
    36  H    0.011866
    37  H    0.046691
    38  H    0.118672
    39  H    0.057205
    40  H    0.094463
    41  H    0.143223
    42  H    0.048221
    43  H    0.124238
    44  H    0.020456
    45  H    0.077223
    46  H    0.109157
    47  H    0.168000
    48  H    0.163600
    49  H   -0.018826
    50  H    0.019482
    51  H    0.124359
    52  H    0.083848
    53  H    0.097005
    54  H    0.107861
 Charges from ESP fit with hydrogens summed into heavy atoms:
              1
     1  C    0.212550
     2  O   -0.381525
     3  C    0.640584
     4  N   -0.506863
     5  C    0.264470
     6  C   -0.174364
     7  C    0.155113
     8  C   -0.273843
     9  C    0.133122
    10  C   -0.018114
    11  C   -0.032139
    12  C    0.224376
    13  C   -0.025835
    14  C   -0.058979
    15  N   -0.428421
    16  C    0.201565
    17  C    0.164757
    18  C   -0.091012
    19  C    0.013028
    20  S    0.016498
    21  C   -0.034371
    22  C    0.622589
    23  O   -0.510242
    24  C   -0.062529
    25  N    0.340229
    26  N   -0.233002
    27  N   -0.341703
    28  C    0.410925
    29  C   -0.128232
    30  C    0.037495
    31  C   -0.016824
    32  C   -0.023945
    33  C   -0.095358
    34  H    0.000000
    35  H    0.000000
    36  H    0.000000
    37  H    0.000000
    38  H    0.000000
    39  H    0.000000
    40  H    0.000000
    41  H    0.000000
    42  H    0.000000
    43  H    0.000000
    44  H    0.000000
    45  H    0.000000
    46  H    0.000000
    47  H    0.000000
    48  H    0.000000
    49  H    0.000000
    50  H    0.000000
    51  H    0.000000
    52  H    0.000000
    53  H    0.000000
    54  H    0.000000
 -----------------------------------------------------------------

              Electrostatic Properties (Atomic Units)

 -----------------------------------------------------------------
    Center     Electric         -------- Electric Field --------
               Potential          X             Y             Z
 -----------------------------------------------------------------
    1 Atom    -14.699899
    2 Atom    -22.307895
    3 Atom    -14.660877
    4 Atom    -18.385624
    5 Atom    -14.717922
    6 Atom    -14.752627
    7 Atom    -14.738706
    8 Atom    -14.736730
    9 Atom    -14.740087
   10 Atom    -14.750630
   11 Atom    -14.752567
   12 Atom    -14.702237
   13 Atom    -14.748067
   14 Atom    -14.751178
   15 Atom    -18.313753
   16 Atom    -14.680254
   17 Atom    -14.725875
   18 Atom    -14.734292
   19 Atom    -14.714511
   20 Atom    -59.172471
   21 Atom    -14.717159
   22 Atom    -14.634831
   23 Atom    -22.363350
   24 Atom    -14.683688
   25 Atom    -18.295054
   26 Atom    -18.332636
   27 Atom    -18.371048
   28 Atom    -14.739093
   29 Atom    -14.749687
   30 Atom    -14.753052
   31 Atom    -14.747567
   32 Atom    -14.743359
   33 Atom    -14.716332
   34 Atom     -1.098469
   35 Atom     -1.093598
   36 Atom     -1.098312
   37 Atom     -1.092988
   38 Atom     -1.085576
   39 Atom     -1.082747
   40 Atom     -1.092575
   41 Atom     -1.095843
   42 Atom     -1.083718
   43 Atom     -1.096281
   44 Atom     -1.065586
   45 Atom     -1.065227
   46 Atom     -1.064121
   47 Atom     -1.051046
   48 Atom     -1.051791
   49 Atom     -1.059422
   50 Atom     -1.055176
   51 Atom     -1.090915
   52 Atom     -1.096780
   53 Atom     -1.093416
   54 Atom     -1.082833
 -----------------------------------------------------------------
 Leave Link  602 at Sat Sep 10 09:12:20 2022, MaxMem=  209715200 cpu:     122.3
 (Enter /opt/gaussian/l9999.exe)
 1\1\GINC-LQCAPF-6\SP\RB3LYP\CC-pVDZ\C25H21N5O2S1\LQCAPF-6\10-Sep-2022\
 0\\#p b3lyp/cc-pvdz pop=(chelpg,readradii)\\Mol16.log\\0,1\C,0,6.10219
 ,0.99552,2.56516\O,0,5.26142,0.47178,1.53298\C,0,5.79658,-0.46701,0.71
 666\N,0,7.06689,-0.80735,0.89986\C,0,7.59826,-1.74139,0.09424\C,0,6.88
 111,-2.36744,-0.91771\C,0,5.54252,-1.99857,-1.09505\C,0,4.94763,-1.031
 51,-0.27851\C,0,3.52007,-0.65769,-0.45172\C,0,2.56238,-1.64161,-0.7617
 6\C,0,1.22257,-1.32811,-0.97951\C,0,0.78757,0.0039,-0.88925\C,0,1.7297
 8,0.99523,-0.57057\C,0,3.06868,0.66956,-0.35693\N,0,-0.57601,0.36973,-
 1.15468\C,0,-0.82773,1.65685,-1.81585\C,0,-1.23527,2.7955,-0.90283\C,0
 ,-1.72033,4.05039,-1.40526\C,0,-2.01599,4.94716,-0.41402\S,0,-1.71284,
 4.28181,1.16128\C,0,-1.18031,2.77878,0.46989\C,0,-1.62551,-0.45454,-0.
 76674\O,0,-1.47718,-1.48566,-0.1372\C,0,-3.03758,0.01066,-1.18117\N,0,
 -4.04824,-0.95068,-0.8214\N,0,-4.67226,-1.66107,-1.8112\N,0,-5.54816,-
 2.44838,-1.28939\C,0,-5.52549,-2.27847,0.08173\C,0,-6.28839,-2.88785,1
 .09361\C,0,-6.04282,-2.49718,2.40234\C,0,-5.05736,-1.52407,2.70886\C,0
 ,-4.29153,-0.91525,1.72281\C,0,-4.54824,-1.31089,0.39971\H,0,6.98941,1
 .49195,2.14313\H,0,5.47759,1.71798,3.10648\H,0,6.44203,0.19743,3.24283
 \H,0,8.64887,-1.98877,0.27779\H,0,7.35078,-3.11636,-1.55696\H,0,4.9520
 4,-2.45519,-1.89219\H,0,2.86585,-2.68899,-0.81928\H,0,0.5134,-2.12123,
 -1.20151\H,0,1.42184,2.03705,-0.47297\H,0,3.77191,1.46235,-0.10689\H,0
 ,0.09168,1.92529,-2.35647\H,0,-1.5936,1.52563,-2.5961\H,0,-1.84414,4.2
 7073,-2.4669\H,0,-2.40017,5.96017,-0.51552\H,0,-0.84762,1.96844,1.1153
 1\H,0,-3.26589,0.98906,-0.72962\H,0,-3.10667,0.11686,-2.27284\H,0,-7.0
 41,-3.63691,0.84301\H,0,-6.61295,-2.94658,3.21797\H,0,-4.89192,-1.2514
 4,3.7536\H,0,-3.52211,-0.18318,1.96924\\Version=EM64L-G09RevC.01\State
 =1-A\HF=-1787.7646387\RMSD=5.470e-09\Dipole=1.0295129,1.9225544,0.1233
 006\Quadrupole=-8.7660487,4.5430185,4.2230302,-13.2022912,-9.3567846,-
 4.3638016\PG=C01 [X(C25H21N5O2S1)]\\@


 THERE'S NOTHING SO GREAT AS THE GREAT OUTDOORS.

                                       -- ZIGGY
 Job cpu time:  0 days  1 hours 48 minutes 57.9 seconds.
 File lengths (MBytes):  RWF=    179 Int=      0 D2E=      0 Chk=     12 Scr=      1
 Normal termination of Gaussian 09 at Sat Sep 10 09:12:20 2022.
