 Entering Gaussian System, Link 0=g09
 Input=Mol12.gjf
 Output=Mol12.log
 Initial command:
 /opt/gaussian/l1.exe /home/scr/lqcapf-6/Gau-547605.inp -scrdir=/home/scr/lqcapf-6/
 Entering Link 1 = /opt/gaussian/l1.exe PID=    547607.
  
 Copyright (c) 1988,1990,1992,1993,1995,1998,2003,2009,2011,
            Gaussian, Inc.  All Rights Reserved.
  
 This is part of the Gaussian(R) 09 program.  It is based on
 the Gaussian(R) 03 system (copyright 2003, Gaussian, Inc.),
 the Gaussian(R) 98 system (copyright 1998, Gaussian, Inc.),
 the Gaussian(R) 94 system (copyright 1995, Gaussian, Inc.),
 the Gaussian 92(TM) system (copyright 1992, Gaussian, Inc.),
 the Gaussian 90(TM) system (copyright 1990, Gaussian, Inc.),
 the Gaussian 88(TM) system (copyright 1988, Gaussian, Inc.),
 the Gaussian 86(TM) system (copyright 1986, Carnegie Mellon
 University), and the Gaussian 82(TM) system (copyright 1983,
 Carnegie Mellon University). Gaussian is a federally registered
 trademark of Gaussian, Inc.
  
 This software contains proprietary and confidential information,
 including trade secrets, belonging to Gaussian, Inc.
  
 This software is provided under written license and may be
 used, copied, transmitted, or stored only in accord with that
 written license.
  
 The following legend is applicable only to US Government
 contracts under FAR:
  
                    RESTRICTED RIGHTS LEGEND
  
 Use, reproduction and disclosure by the US Government is
 subject to restrictions as set forth in subparagraphs (a)
 and (c) of the Commercial Computer Software - Restricted
 Rights clause in FAR 52.227-19.
  
 Gaussian, Inc.
 340 Quinnipiac St., Bldg. 40, Wallingford CT 06492
  
  
 ---------------------------------------------------------------
 Warning -- This program may not be used in any manner that
 competes with the business of Gaussian, Inc. or will provide
 assistance to any competitor of Gaussian, Inc.  The licensee
 of this program is prohibited from giving any competitor of
 Gaussian, Inc. access to this program.  By using this program,
 the user acknowledges that Gaussian, Inc. is engaged in the
 business of creating and licensing software in the field of
 computational chemistry and represents and warrants to the
 licensee that it is not a competitor of Gaussian, Inc. and that
 it will not use this program in any manner prohibited above.
 ---------------------------------------------------------------
  

 Cite this work as:
 Gaussian 09, Revision C.01,
 M. J. Frisch, G. W. Trucks, H. B. Schlegel, G. E. Scuseria, 
 M. A. Robb, J. R. Cheeseman, G. Scalmani, V. Barone, B. Mennucci, 
 G. A. Petersson, H. Nakatsuji, M. Caricato, X. Li, H. P. Hratchian, 
 A. F. Izmaylov, J. Bloino, G. Zheng, J. L. Sonnenberg, M. Hada, 
 M. Ehara, K. Toyota, R. Fukuda, J. Hasegawa, M. Ishida, T. Nakajima, 
 Y. Honda, O. Kitao, H. Nakai, T. Vreven, J. A. Montgomery, Jr., 
 J. E. Peralta, F. Ogliaro, M. Bearpark, J. J. Heyd, E. Brothers, 
 K. N. Kudin, V. N. Staroverov, T. Keith, R. Kobayashi, J. Normand, 
 K. Raghavachari, A. Rendell, J. C. Burant, S. S. Iyengar, J. Tomasi, 
 M. Cossi, N. Rega, J. M. Millam, M. Klene, J. E. Knox, J. B. Cross, 
 V. Bakken, C. Adamo, J. Jaramillo, R. Gomperts, R. E. Stratmann, 
 O. Yazyev, A. J. Austin, R. Cammi, C. Pomelli, J. W. Ochterski, 
 R. L. Martin, K. Morokuma, V. G. Zakrzewski, G. A. Voth, 
 P. Salvador, J. J. Dannenberg, S. Dapprich, A. D. Daniels, 
 O. Farkas, J. B. Foresman, J. V. Ortiz, J. Cioslowski, 
 and D. J. Fox, Gaussian, Inc., Wallingford CT, 2010.
 
 ******************************************
 Gaussian 09:  EM64L-G09RevC.01 23-Sep-2011
                10-Sep-2022 
 ******************************************
 %nprocshared=8
 Will use up to    8 processors via shared memory.
 %mem=1600MB
 ---------------------------------------
 #p b3lyp/cc-pvdz pop=(chelpg,readradii)
 ---------------------------------------
 1/38=1/1;
 2/12=2,17=6,18=5,40=1/2;
 3/5=16,11=2,16=1,25=1,30=1,74=-5/1,2,3;
 4//1;
 5/5=2,38=5/2;
 6/7=2,8=2,9=2,10=2,15=8,20=103,28=1/1,2;
 99/5=1,9=1/99;
 Leave Link    1 at Sat Sep 10 08:06:56 2022, MaxMem=  209715200 cpu:       0.2
 (Enter /opt/gaussian/l101.exe)
 ---------
 Mol12.log
 ---------
 Charge =  0 Multiplicity = 1
 Symbolic Z-Matrix:
 C                    -5.67666  -2.75228   0.82779 
 S                    -5.99149  -0.98158   0.69207 
 O                    -5.24395  -0.30023   1.77532 
 O                    -7.44225  -0.75244   0.49904 
 N                    -5.29137  -0.63582  -0.86633 
 C                    -3.90133  -0.27308  -0.89948 
 C                    -2.97128  -1.21972  -1.34558 
 C                    -1.61156  -0.9205   -1.40718 
 C                    -1.15126   0.35134  -1.02411 
 C                    -2.08688   1.30297  -0.58131 
 C                    -3.44484   0.9926   -0.51534 
 N                     0.23715   0.69935  -1.11573 
 C                     0.58714   2.0826   -1.48286 
 C                     1.0937    2.94803  -0.34531 
 C                     0.71361   2.80541   1.03229 
 C                     1.2895    3.74614   1.84559 
 S                     2.30898   4.82994   0.95257 
 C                     1.96051   3.99957  -0.53078 
 C                     1.22382  -0.23965  -0.83035 
 O                     0.98739  -1.36793  -0.44011 
 C                     2.67832   0.22955  -1.03079 
 N                     3.61932  -0.84928  -0.87155 
 N                     4.28454  -1.31868  -1.97262 
 N                     5.09061  -2.25918  -1.61943 
 C                     4.97795  -2.44112  -0.25425 
 C                     5.64379  -3.32784   0.61054 
 C                     5.32154  -3.26796   1.95892 
 C                     4.35421  -2.35191   2.44633 
 C                     3.68315  -1.47256   1.60628 
 C                     4.01845  -1.53358   0.24364 
 H                    -4.59155  -2.91468   0.79508 
 H                    -6.08208  -3.05979   1.80113 
 H                    -6.19232  -3.25638   0.0019 
 H                    -5.90908   0.09009  -1.24035 
 H                    -3.32838  -2.19897  -1.66989 
 H                    -0.90889  -1.6734   -1.75343 
 H                    -1.76239   2.29251  -0.25843 
 H                    -4.15176   1.73295  -0.13797 
 H                     1.33023   2.07024  -2.29467 
 H                    -0.31743   2.52496  -1.92159 
 H                     0.04781   2.0258    1.40225 
 H                     1.17585   3.86392   2.92127 
 H                     2.41567   4.33562  -1.46103 
 H                     2.83102   0.60884  -2.05067 
 H                     2.91237   1.04736  -0.33111 
 H                     6.38312  -4.02914   0.22087 
 H                     5.81545  -3.9395    2.66413 
 H                     4.12564  -2.3445    3.51443 
 H                     2.92426  -0.78762   1.98513 
 
 NAtoms=     49 NQM=        0 NQMF=       0 NMMI=     49 NMMIF=      0
                NMic=       0 NMicF=      0.
                    Isotopes and Nuclear Properties:
 (Nuclear quadrupole moments (NQMom) in fm**2, nuclear magnetic moments (NMagM)
  in nuclear magnetons)

  Atom         1           2           3           4           5           6           7           8           9          10
 IAtWgt=          12          32          16          16          14          12          12          12          12          12
 AtmWgt=  12.0000000  31.9720718  15.9949146  15.9949146  14.0030740  12.0000000  12.0000000  12.0000000  12.0000000  12.0000000
 NucSpn=           0           0           0           0           2           0           0           0           0           0
 AtZEff=   0.0000000   0.0000000   0.0000000   0.0000000   0.0000000   0.0000000   0.0000000   0.0000000   0.0000000   0.0000000
 NQMom=    0.0000000   0.0000000   0.0000000   0.0000000   2.0440000   0.0000000   0.0000000   0.0000000   0.0000000   0.0000000
 NMagM=    0.0000000   0.0000000   0.0000000   0.0000000   0.4037610   0.0000000   0.0000000   0.0000000   0.0000000   0.0000000

  Atom        11          12          13          14          15          16          17          18          19          20
 IAtWgt=          12          14          12          12          12          12          32          12          12          16
 AtmWgt=  12.0000000  14.0030740  12.0000000  12.0000000  12.0000000  12.0000000  31.9720718  12.0000000  12.0000000  15.9949146
 NucSpn=           0           2           0           0           0           0           0           0           0           0
 AtZEff=   0.0000000   0.0000000   0.0000000   0.0000000   0.0000000   0.0000000   0.0000000   0.0000000   0.0000000   0.0000000
 NQMom=    0.0000000   2.0440000   0.0000000   0.0000000   0.0000000   0.0000000   0.0000000   0.0000000   0.0000000   0.0000000
 NMagM=    0.0000000   0.4037610   0.0000000   0.0000000   0.0000000   0.0000000   0.0000000   0.0000000   0.0000000   0.0000000

  Atom        21          22          23          24          25          26          27          28          29          30
 IAtWgt=          12          14          14          14          12          12          12          12          12          12
 AtmWgt=  12.0000000  14.0030740  14.0030740  14.0030740  12.0000000  12.0000000  12.0000000  12.0000000  12.0000000  12.0000000
 NucSpn=           0           2           2           2           0           0           0           0           0           0
 AtZEff=   0.0000000   0.0000000   0.0000000   0.0000000   0.0000000   0.0000000   0.0000000   0.0000000   0.0000000   0.0000000
 NQMom=    0.0000000   2.0440000   2.0440000   2.0440000   0.0000000   0.0000000   0.0000000   0.0000000   0.0000000   0.0000000
 NMagM=    0.0000000   0.4037610   0.4037610   0.4037610   0.0000000   0.0000000   0.0000000   0.0000000   0.0000000   0.0000000

  Atom        31          32          33          34          35          36          37          38          39          40
 IAtWgt=           1           1           1           1           1           1           1           1           1           1
 AtmWgt=   1.0078250   1.0078250   1.0078250   1.0078250   1.0078250   1.0078250   1.0078250   1.0078250   1.0078250   1.0078250
 NucSpn=           1           1           1           1           1           1           1           1           1           1
 AtZEff=   0.0000000   0.0000000   0.0000000   0.0000000   0.0000000   0.0000000   0.0000000   0.0000000   0.0000000   0.0000000
 NQMom=    0.0000000   0.0000000   0.0000000   0.0000000   0.0000000   0.0000000   0.0000000   0.0000000   0.0000000   0.0000000
 NMagM=    2.7928460   2.7928460   2.7928460   2.7928460   2.7928460   2.7928460   2.7928460   2.7928460   2.7928460   2.7928460

  Atom        41          42          43          44          45          46          47          48          49
 IAtWgt=           1           1           1           1           1           1           1           1           1
 AtmWgt=   1.0078250   1.0078250   1.0078250   1.0078250   1.0078250   1.0078250   1.0078250   1.0078250   1.0078250
 NucSpn=           1           1           1           1           1           1           1           1           1
 AtZEff=   0.0000000   0.0000000   0.0000000   0.0000000   0.0000000   0.0000000   0.0000000   0.0000000   0.0000000
 NQMom=    0.0000000   0.0000000   0.0000000   0.0000000   0.0000000   0.0000000   0.0000000   0.0000000   0.0000000
 NMagM=    2.7928460   2.7928460   2.7928460   2.7928460   2.7928460   2.7928460   2.7928460   2.7928460   2.7928460
 Leave Link  101 at Sat Sep 10 08:06:56 2022, MaxMem=  209715200 cpu:       0.7
 (Enter /opt/gaussian/l202.exe)
                          Input orientation:                          
 ---------------------------------------------------------------------
 Center     Atomic      Atomic             Coordinates (Angstroms)
 Number     Number       Type             X           Y           Z
 ---------------------------------------------------------------------
      1          6           0       -5.676660   -2.752280    0.827790
      2         16           0       -5.991490   -0.981580    0.692070
      3          8           0       -5.243950   -0.300230    1.775320
      4          8           0       -7.442250   -0.752440    0.499040
      5          7           0       -5.291370   -0.635820   -0.866330
      6          6           0       -3.901330   -0.273080   -0.899480
      7          6           0       -2.971280   -1.219720   -1.345580
      8          6           0       -1.611560   -0.920500   -1.407180
      9          6           0       -1.151260    0.351340   -1.024110
     10          6           0       -2.086880    1.302970   -0.581310
     11          6           0       -3.444840    0.992600   -0.515340
     12          7           0        0.237150    0.699350   -1.115730
     13          6           0        0.587140    2.082600   -1.482860
     14          6           0        1.093700    2.948030   -0.345310
     15          6           0        0.713610    2.805410    1.032290
     16          6           0        1.289500    3.746140    1.845590
     17         16           0        2.308980    4.829940    0.952570
     18          6           0        1.960510    3.999570   -0.530780
     19          6           0        1.223820   -0.239650   -0.830350
     20          8           0        0.987390   -1.367930   -0.440110
     21          6           0        2.678320    0.229550   -1.030790
     22          7           0        3.619320   -0.849280   -0.871550
     23          7           0        4.284540   -1.318680   -1.972620
     24          7           0        5.090610   -2.259180   -1.619430
     25          6           0        4.977950   -2.441120   -0.254250
     26          6           0        5.643790   -3.327840    0.610540
     27          6           0        5.321540   -3.267960    1.958920
     28          6           0        4.354210   -2.351910    2.446330
     29          6           0        3.683150   -1.472560    1.606280
     30          6           0        4.018450   -1.533580    0.243640
     31          1           0       -4.591550   -2.914680    0.795080
     32          1           0       -6.082080   -3.059790    1.801130
     33          1           0       -6.192320   -3.256380    0.001900
     34          1           0       -5.909080    0.090090   -1.240350
     35          1           0       -3.328380   -2.198970   -1.669890
     36          1           0       -0.908890   -1.673400   -1.753430
     37          1           0       -1.762390    2.292510   -0.258430
     38          1           0       -4.151760    1.732950   -0.137970
     39          1           0        1.330230    2.070240   -2.294670
     40          1           0       -0.317430    2.524960   -1.921590
     41          1           0        0.047810    2.025800    1.402250
     42          1           0        1.175850    3.863920    2.921270
     43          1           0        2.415670    4.335620   -1.461030
     44          1           0        2.831020    0.608840   -2.050670
     45          1           0        2.912370    1.047360   -0.331110
     46          1           0        6.383120   -4.029140    0.220870
     47          1           0        5.815450   -3.939500    2.664130
     48          1           0        4.125640   -2.344500    3.514430
     49          1           0        2.924260   -0.787620    1.985130
 ---------------------------------------------------------------------
                    Distance matrix (angstroms):
                    1          2          3          4          5
     1  C    0.000000
     2  S    1.803584   0.000000
     3  O    2.664132   1.482054   0.000000
     4  O    2.687889   1.481374   2.581842   0.000000
     5  N    2.738228   1.743080   2.663303   2.550318   0.000000
     6  C    3.504524   2.720987   2.992979   3.837155   1.436973
     7  C    3.793594   3.651082   3.968691   4.859068   2.439967
     8  C    4.987539   4.857403   4.869014   6.136682   3.730223
     9  C    5.791480   5.305636   5.001146   6.566192   4.259095
    10  C    5.596172   4.699643   4.253357   5.837110   3.756181
    11  C    4.561704   3.441025   3.186743   4.478104   2.486889
    12  N    7.117877   6.699972   6.276925   7.980499   5.692927
    13  C    8.243201   7.576140   7.091913   8.742796   6.505905
    14  C    8.927904   8.168103   7.430617   9.341780   7.340610
    15  C    8.471440   7.708139   6.759409   8.914073   7.176810
    16  C    9.580854   8.757554   7.685312   9.914327   8.358465
    17  S   11.012542  10.136046   9.167459  11.245228   9.536679
    18  C   10.283947   9.462638   8.701185  10.585557   8.613315
    19  C    7.528570   7.411405   6.973180   8.782426   6.527323
    20  O    6.923407   7.080668   6.699083   8.504097   6.335651
    21  C    9.063737   8.921922   8.421240  10.282540   8.018221
    22  N    9.639731   9.738074   9.266333  11.146579   8.913248
    23  N   10.446196  10.621252  10.289627  11.997805   9.663758
    24  N   11.052879  11.392464  11.052825  12.799639  10.535083
    25  C   10.713932  11.106502  10.639070  12.557088  10.444744
    26  C   11.337154  11.869765  11.360723  13.337525  11.358074
    27  C   11.068233  11.611076  10.975915  13.090967  11.293541
    28  C   10.168496  10.582473   9.837902  12.062616  10.341948
    29  C    9.478912   9.730134   9.005334  11.203530   9.346440
    30  C    9.788852  10.035173   9.468857  11.490129   9.418639
    31  H    1.097683   2.389000   2.867376   3.590183   2.905724
    32  H    1.098325   2.357367   2.884146   2.978148   3.690013
    33  H    1.096411   2.385662   3.575367   2.842391   2.903940
    34  H    3.522824   2.211225   3.112718   2.466971   1.023915
    35  H    3.472604   3.762054   4.375396   4.870383   2.634858
    36  H    5.527957   5.682597   5.755903   6.971842   4.590169
    37  H    6.476982   5.432164   4.793715   6.488936   4.625836
    38  H    4.834801   3.382639   2.997896   4.172562   2.727690
    39  H    9.061069   8.475955   8.087261   9.629576   7.294416
    40  H    8.008102   7.163937   6.776389   8.207549   5.987001
    41  H    7.478610   6.783939   5.792437   8.039615   6.382595
    42  H    9.752623   8.934146   7.737388  10.072220   8.741768
    43  H   10.998310  10.177858   9.520233  11.265381   9.190612
    44  H    9.589749   9.374900   8.981634  10.672122   8.302112
    45  H    9.463179   9.189245   8.531038  10.542608   8.391716
    46  H   12.142365  12.753063  12.308933  14.211087  12.206160
    47  H   11.698300  12.330537  11.676669  13.806215  12.113625
    48  H   10.171991  10.591487   9.746423  12.059988  10.525717
    49  H    8.898042   9.011117   8.185428  10.472547   8.697726
                    6          7          8          9         10
     6  C    0.000000
     7  C    1.400045   0.000000
     8  C    2.433097   1.393616   0.000000
     9  C    2.822821   2.425705   1.405772   0.000000
    10  C    2.424334   2.780330   2.419051   1.406078   0.000000
    11  C    1.399247   2.409962   2.795755   2.435276   1.394538
    12  N    4.256689   3.745622   2.475194   1.434290   2.459894
    13  C    5.102541   4.856595   3.722717   2.495946   2.927627
    14  C    5.969337   5.907177   4.838546   3.499059   3.588594
    15  C    5.874224   5.952676   5.023926   3.705264   3.564236
    16  C    7.115775   7.279944   6.385467   5.071208   4.822745
    17  S    8.248567   8.352307   7.348919   5.994863   5.840881
    18  C    7.263102   7.226855   6.142870   4.820381   4.863699
    19  C    5.125725   4.338763   2.972485   2.455161   3.660933
    20  O    5.030835   4.063608   2.808907   2.805489   4.074896
    21  C    6.600127   5.841015   4.457281   3.831522   4.905241
    22  N    7.542742   6.618001   5.258714   4.921707   6.105501
    23  N    8.321861   7.283536   5.936520   5.765116   7.028783
    24  N    9.236769   8.133237   6.837850   6.791919   8.079788
    25  C    9.162878   8.116223   6.860261   6.779213   8.002312
    26  C   10.135139   9.082401   7.906111   7.898174   9.090004
    27  C   10.109455   9.158923   8.056617   7.993431   9.068123
    28  C    9.147126   8.326058   7.244921   7.047107   8.000774
    29  C    8.077247   7.284150   6.117162   5.798024   6.766267
    30  C    8.100525   7.174988   5.898990   5.646770   6.782449
    31  H    3.213408   3.174994   4.207974   5.080545   5.094742
    32  H    4.451373   4.792152   5.903843   6.628029   6.377407
    33  H    3.867971   4.042126   5.331529   6.283361   6.162990
    34  H    2.068609   3.218283   4.417896   4.769891   4.063819
    35  H    2.151942   1.091617   2.156611   3.414815   3.871681
    36  H    3.412451   2.150725   1.086505   2.165692   3.408857
    37  H    3.401215   3.870280   3.415525   2.174370   1.090291
    38  H    2.160271   3.401487   3.886426   3.420101   2.155264
    39  H    5.899739   5.497963   4.287924   3.275169   3.898839
    40  H    4.660266   4.625725   3.716260   2.495068   2.533883
    41  H    5.116495   5.215254   4.396259   3.182579   3.002315
    42  H    7.582259   7.826116   7.028215   5.772320   5.428806
    43  H    7.839639   7.739145   6.621803   5.365480   5.499439
    44  H    6.886767   6.124334   4.742307   4.120520   5.179438
    45  H    6.963700   6.386403   5.049390   4.180644   5.012029
    46  H   11.006048   9.891987   8.730928   8.803719  10.040707
    47  H   10.979880  10.034022   8.991685   8.974936  10.023133
    48  H    9.391785   8.674739   7.691910   7.464019   8.287010
    49  H    7.427948   6.785111   5.665606   5.192554   6.005723
                   11         12         13         14         15
    11  C    0.000000
    12  N    3.742127   0.000000
    13  C    4.287314   1.473315   0.000000
    14  C    4.944791   2.526616   1.516441   0.000000
    15  C    4.793135   3.045734   2.620005   1.436172   0.000000
    16  C    5.964055   4.377189   3.786721   2.339949   1.370430
    17  S    7.070105   5.062817   4.055112   2.589012   2.578814
    18  C    6.185460   3.768765   2.543104   1.375316   2.328941
    19  C    4.838807   1.391647   2.494790   3.226995   3.605847
    20  O    5.022193   2.300645   3.626801   4.318310   4.433924
    21  C    6.192013   2.487416   2.830406   3.220409   3.840760
    22  N    7.309019   3.727862   4.261893   4.590779   5.042273
    23  N    8.198109   4.603050   5.047706   5.570854   6.228093
    24  N    9.200380   5.706373   6.257072   6.686831   7.199987
    25  C    9.099560   5.751511   6.422829   6.643691   6.882286
    26  C   10.126056   6.959168   7.695771   7.810475   7.880438
    27  C   10.056031   7.144511   7.930251   7.862737   7.679680
    28  C    8.987904   6.240885   7.020985   6.820084   6.469268
    29  C    7.834955   4.899127   5.636242   5.482296   5.239147
    30  C    7.915702   4.596966   5.275552   5.383851   5.510968
    31  H    4.277731   6.326828   7.548553   8.245843   7.805153
    32  H    5.361244   7.910239   9.039207   9.601715   9.009611
    33  H    5.086257   7.631185   8.756158   9.576082   9.246560
    34  H    2.722617   6.177610   6.799249   7.616288   7.509852
    35  H    3.395978   4.628213   5.805008   6.913820   6.977340
    36  H    3.882199   2.711090   4.052018   5.229798   5.518377
    37  H    2.141590   2.696532   2.657740   2.931639   2.838944
    38  H    1.090991   4.613770   4.938437   5.388345   5.117764
    39  H    5.208514   2.112833   1.100623   2.150922   3.462565
    40  H    3.755843   2.071188   1.098368   2.157530   3.141194
    41  H    4.116219   2.852287   2.935637   2.235701   1.089932
    42  H    6.434714   5.214694   4.787070   3.393545   2.214126
    43  H    6.812906   4.252957   2.901740   2.217621   3.384552
    44  H    6.472320   2.758707   2.743971   3.376143   4.337394
    45  H    6.360115   2.809545   2.793733   2.630648   3.127962
    46  H   11.061134   7.868803   8.593570   8.773792   8.916996
    47  H   10.963011   8.180691   8.988795   8.876357   8.613100
    48  H    9.202578   6.769325   7.555998   7.218111   6.657668
    49  H    7.070146   4.364284   5.072203   4.768331   4.324898
                   16         17         18         19         20
    16  C    0.000000
    17  S    1.735352   0.000000
    18  C    2.482260   1.735302   0.000000
    19  C    4.801197   5.482437   4.313171   0.000000
    20  O    5.609760   6.488432   5.455753   1.217046   0.000000
    21  C    4.750662   5.023317   3.870182   1.541394   2.400019
    22  N    5.824843   6.107204   5.136061   2.472199   2.717019
    23  N    7.014371   7.089789   5.980284   3.440508   3.636236
    24  N    7.906875   8.037927   7.081994   4.433195   4.361369
    25  C    7.503078   7.838886   7.117858   4.389972   4.136526
    26  C    8.397999   8.819712   8.280103   5.581148   5.160152
    27  C    8.091217   8.698520   8.385232   5.808786   5.305687
    28  C    6.851244   7.615330   7.411766   4.999762   4.542602
    29  C    5.746448   6.483609   6.121987   3.674988   3.386116
    30  C    6.155392   6.627160   5.954040   3.261544   3.111636
    31  H    8.947449  10.374067   9.617393   6.604267   5.919688
    32  H   10.033088  11.548930  10.952425   8.261601   7.606770
    33  H   10.412114  11.771340  10.927085   8.049375   7.437059
    34  H    8.643453   9.737124   8.815780   7.152279   7.094188
    35  H    8.308294   9.384173   8.227504   5.026558   4.563864
    36  H    6.867116   7.744066   6.473864   2.730598   2.326800
    37  H    3.981705   4.947841   4.104657   3.956814   4.581825
    38  H    6.131456   7.247192   6.530828   5.767790   6.009793
    39  H    4.466772   4.372466   2.689029   2.736996   3.921472
    40  H    4.273775   4.524573   3.049236   3.348033   4.364852
    41  H    2.167467   3.630193   3.360178   3.391130   3.974230
    42  H    1.088061   2.468392   3.542703   5.560237   6.221467
    43  H    3.542525   2.466009   1.088791   4.769838   5.967641
    44  H    5.234480   5.206694   3.816399   2.189111   3.146505
    45  H    3.828204   4.039780   3.108287   2.181017   3.090478
    46  H    9.436083   9.778410   9.196991   6.487193   6.052507
    47  H    8.956746   9.598325   9.385992   6.854440   6.289630
    48  H    6.922760   7.831728   7.829351   5.632767   5.142051
    49  H    4.821503   5.744713   5.493251   3.334471   3.157533
                   21         22         23         24         25
    21  C    0.000000
    22  N    1.440386   0.000000
    23  N    2.421570   1.369383   0.000000
    24  N    3.515596   2.170677   1.288034   0.000000
    25  C    3.608849   2.181946   2.166445   1.381851   0.000000
    26  C    4.913553   3.526802   3.543586   2.533931   1.406228
    27  C    5.306369   4.093791   4.509109   3.724991   2.387434
    28  C    4.643588   3.715681   4.538671   4.132952   2.773111
    29  C    3.295603   2.555816   3.632337   3.606233   2.464992
    30  C    2.555141   1.367925   2.242497   2.268712   1.411440
    31  H    8.128407   8.629132   9.433576  10.000188   9.638500
    32  H    9.776714  10.302754  11.168682  11.711969  11.266393
    33  H    9.586783  10.140282  10.835959  11.442361  11.202910
    34  H    8.591089   9.581693  10.316528  11.254153  11.220822
    35  H    6.510499   7.122468   7.669622   8.419357   8.429578
    36  H    4.124500   4.686318   5.210143   6.029519   6.123056
    37  H    4.957040   6.261754   7.248759   8.338694   8.236471
    38  H    7.050343   8.221663   9.156940  10.176111  10.039322
    39  H    2.608233   3.973512   4.507376   5.774105   6.149922
    40  H    3.877751   5.290187   5.996190   7.226769   7.448693
    41  H    4.008214   5.117806   6.365939   7.274712   6.855921
    42  H    5.575378   6.524591   7.776468   8.569461   8.018318
    43  H    4.136895   5.355320   5.977082   7.118411   7.344781
    44  H    1.098787   2.034172   2.415398   3.676582   4.139890
    45  H    1.101428   2.095017   3.189914   4.163857   4.054876
    46  H    5.781750   4.352411   4.069647   2.861825   2.173028
    47  H    6.393356   5.183964   5.541826   4.658085   3.385778
    48  H    5.420285   4.661423   5.584378   5.224458   3.865064
    49  H    3.192318   2.940668   4.218551   4.455493   3.459267
                   26         27         28         29         30
    26  C    0.000000
    27  C    1.387645   0.000000
    28  C    2.446545   1.418606   0.000000
    29  C    2.877094   2.456041   1.388979   0.000000
    30  C    2.448615   2.765557   2.373656   1.404613   0.000000
    31  H   10.245338   9.987426   9.114272   8.438508   8.737484
    32  H   11.789206  11.406611  10.480149   9.895301  10.333238
    33  H   11.851964  11.679000  10.863821  10.162724  10.357910
    34  H   12.189210  12.150665  11.175424  10.126996  10.168303
    35  H    9.326014   9.440981   8.717158   7.773192   7.621040
    36  H    7.159828   7.425794   6.767465   5.693401   5.318507
    37  H    9.337823   9.274564   8.142430   6.877994   6.950478
    38  H   11.051003  10.915561   9.783466   8.643120   8.807280
    39  H    7.495753   7.906957   7.153806   5.771055   5.163048
    40  H    8.729438   8.967400   8.042811   6.665634   6.321378
    41  H    7.784809   7.493064   6.228927   5.049341   5.456881
    42  H    8.776296   8.305214   6.997434   6.041007   6.662063
    43  H    8.569760   8.829188   7.984263   6.689533   6.318411
    44  H    5.521880   6.108116   5.595459   4.293208   3.356160
    45  H    5.243065   5.447047   4.620402   3.270715   2.866182
    46  H    1.090996   2.174204   3.447064   3.968035   3.438023
    47  H    2.149611   1.091895   2.168663   3.428052   3.856998
    48  H    3.421157   2.168540   1.092308   2.144088   3.371520
    49  H    3.967122   3.449598   2.168978   1.090222   2.187806
                   31         32         33         34         35
    31  H    0.000000
    32  H    1.804127   0.000000
    33  H    1.818889   1.813292   0.000000
    34  H    3.861024   4.382040   3.580820   0.000000
    35  H    2.860755   4.513519   3.480682   3.476250   0.000000
    36  H    4.647329   6.427975   5.788060   5.326823   2.477324
    37  H    6.019041   7.179737   7.105085   4.796859   4.961647
    38  H    4.760721   5.518750   5.392297   2.646206   4.299387
    39  H    8.334474   9.901269   9.499256   7.578931   6.349736
    40  H    7.432233   8.847557   8.463926   6.136712   5.607556
    41  H    6.804459   7.974828   8.294675   6.798150   6.219758
    42  H    9.150574  10.093068  10.654169   9.041964   8.838862
    43  H   10.332377  11.727981  11.570485   9.347443   8.702793
    44  H    8.695288  10.379719  10.028641   8.792899   6.779897
    45  H    8.560075  10.115101  10.076133   8.919701   7.160862
    46  H   11.046045  12.602304  12.601063  13.046126  10.061696
    47  H   10.623053  11.961182  12.318306  12.997968  10.267561
    48  H    9.149283  10.375191  10.937536  11.367971   9.080791
    49  H    7.901139   9.290359   9.650907   9.444681   7.378793
                   36         37         38         39         40
    36  H    0.000000
    37  H    4.323416   0.000000
    38  H    4.972840   2.456971   0.000000
    39  H    4.395616   3.709444   5.900621   0.000000
    40  H    4.243151   2.215410   4.302402   1.749498   0.000000
    41  H    4.955570   2.470995   4.482681   3.913284   3.380898
    42  H    7.540615   4.605765   6.502570   5.517894   5.241755
    43  H    6.873610   4.803825   7.187177   2.646712   3.310656
    44  H    4.391344   5.210210   7.326750   2.108933   3.687942
    45  H    4.901791   4.838291   7.099949   2.721216   3.891598
    46  H    7.913329  10.321934  12.013082   8.310360   9.614766
    47  H    8.358636  10.237332  11.805665   8.990210  10.021491
    48  H    7.317596   8.390783   9.923758   7.813443   8.544169
    49  H    5.427198   6.040319   7.805824   5.387484   6.061700
                   41         42         43         44         45
    41  H    0.000000
    42  H    2.637912   0.000000
    43  H    4.374974   4.578669   0.000000
    44  H    4.655823   6.168899   3.795929   0.000000
    45  H    3.488207   4.639665   3.512276   1.776458   0.000000
    46  H    8.842743   9.834034   9.409498   6.268027   6.174272
    47  H    8.393022   9.082146   9.851551   7.198858   6.501393
    48  H    6.339521   6.899100   8.503129   6.431842   5.269242
    49  H    4.065593   5.056691   6.195343   4.271589   2.955040
                   46         47         48         49
    46  H    0.000000
    47  H    2.509941   0.000000
    48  H    4.333793   2.474367   0.000000
    49  H    5.058041   4.330631   2.491174   0.000000
 Stoichiometry    C20H19N5O3S2
 Framework group  C1[X(C20H19N5O3S2)]
 Deg. of freedom   141
 Full point group                 C1      NOp   1
 Largest Abelian subgroup         C1      NOp   1
 Largest concise Abelian subgroup C1      NOp   1
                         Standard orientation:                         
 ---------------------------------------------------------------------
 Center     Atomic      Atomic             Coordinates (Angstroms)
 Number     Number       Type             X           Y           Z
 ---------------------------------------------------------------------
      1          6           0       -5.676659   -2.752281    0.827790
      2         16           0       -5.991490   -0.981581    0.692070
      3          8           0       -5.243950   -0.300231    1.775320
      4          8           0       -7.442250   -0.752441    0.499040
      5          7           0       -5.291370   -0.635821   -0.866330
      6          6           0       -3.901330   -0.273081   -0.899480
      7          6           0       -2.971280   -1.219721   -1.345580
      8          6           0       -1.611560   -0.920501   -1.407180
      9          6           0       -1.151260    0.351340   -1.024110
     10          6           0       -2.086880    1.302969   -0.581310
     11          6           0       -3.444840    0.992599   -0.515340
     12          7           0        0.237150    0.699350   -1.115730
     13          6           0        0.587140    2.082600   -1.482860
     14          6           0        1.093700    2.948030   -0.345310
     15          6           0        0.713610    2.805410    1.032290
     16          6           0        1.289500    3.746140    1.845590
     17         16           0        2.308980    4.829940    0.952570
     18          6           0        1.960510    3.999570   -0.530780
     19          6           0        1.223820   -0.239650   -0.830350
     20          8           0        0.987391   -1.367930   -0.440110
     21          6           0        2.678320    0.229550   -1.030790
     22          7           0        3.619320   -0.849280   -0.871550
     23          7           0        4.284541   -1.318680   -1.972620
     24          7           0        5.090611   -2.259179   -1.619430
     25          6           0        4.977951   -2.441120   -0.254250
     26          6           0        5.643791   -3.327839    0.610540
     27          6           0        5.321541   -3.267959    1.958920
     28          6           0        4.354211   -2.351910    2.446330
     29          6           0        3.683151   -1.472560    1.606280
     30          6           0        4.018451   -1.533580    0.243640
     31          1           0       -4.591549   -2.914681    0.795080
     32          1           0       -6.082079   -3.059791    1.801130
     33          1           0       -6.192319   -3.256381    0.001900
     34          1           0       -5.909080    0.090089   -1.240350
     35          1           0       -3.328379   -2.198971   -1.669890
     36          1           0       -0.908889   -1.673400   -1.753430
     37          1           0       -1.762390    2.292509   -0.258430
     38          1           0       -4.151760    1.732949   -0.137970
     39          1           0        1.330230    2.070240   -2.294670
     40          1           0       -0.317430    2.524960   -1.921590
     41          1           0        0.047810    2.025800    1.402250
     42          1           0        1.175850    3.863920    2.921270
     43          1           0        2.415670    4.335620   -1.461030
     44          1           0        2.831020    0.608840   -2.050670
     45          1           0        2.912370    1.047360   -0.331110
     46          1           0        6.383121   -4.029139    0.220870
     47          1           0        5.815451   -3.939499    2.664130
     48          1           0        4.125641   -2.344500    3.514430
     49          1           0        2.924260   -0.787620    1.985130
 ---------------------------------------------------------------------
 Rotational constants (GHZ):      0.1728147      0.0673943      0.0552269
 Leave Link  202 at Sat Sep 10 08:06:56 2022, MaxMem=  209715200 cpu:       0.2
 (Enter /opt/gaussian/l301.exe)
 Standard basis: CC-pVDZ (5D, 7F)
 Ernie: Thresh=  0.10000D-02 Tol=  0.10000D-05 Strict=F.
 Ernie:  76 primitive shells out of 811 were deleted.
 There are   523 symmetry adapted basis functions of A   symmetry.
 Integral buffers will be    131072 words long.
 Raffenetti 2 integral format.
 Two-electron integral symmetry is turned on.
   523 basis functions,  1199 primitive gaussians,   553 cartesian basis functions
   115 alpha electrons      115 beta electrons
       nuclear repulsion energy      3082.3867881714 Hartrees.
 IExCor=  402 DFT=T Ex+Corr=B3LYP ExCW=0 ScaHFX=  0.200000
 ScaDFX=  0.800000  0.720000  1.000000  0.810000 ScalE2=  1.000000  1.000000
 IRadAn=      0 IRanWt=     -1 IRanGd=            0 ICorTp=0
 NAtoms=   49 NActive=   49 NUniq=   49 SFac= 1.00D+00 NAtFMM=   60 NAOKFM=F Big=F
 Leave Link  301 at Sat Sep 10 08:06:56 2022, MaxMem=  209715200 cpu:       0.3
 (Enter /opt/gaussian/l302.exe)
 NPDir=0 NMtPBC=     1 NCelOv=     1 NCel=       1 NClECP=     1 NCelD=      1
         NCelK=      1 NCelE2=     1 NClLst=     1 CellRange=     0.0.
 One-electron integrals computed using PRISM.
 NBasis=   523 RedAO= T  NBF=   523
 NBsUse=   523 1.00D-06 NBFU=   523
 Precomputing XC quadrature grid using
 IXCGrd= 2 IRadAn=           0 IRanWt=          -1 IRanGd=           0 AccXCQ= 0.00D+00.
 NRdTot=    3154 NPtTot=      402362 NUsed=      425090 NTot=      425122
 NSgBfM=   532   532   532   532   532 NAtAll=    49    49.
 Leave Link  302 at Sat Sep 10 08:06:57 2022, MaxMem=  209715200 cpu:       7.8
 (Enter /opt/gaussian/l303.exe)
 DipDrv:  MaxL=1.
 Leave Link  303 at Sat Sep 10 08:06:57 2022, MaxMem=  209715200 cpu:       1.1
 (Enter /opt/gaussian/l401.exe)
 Harris functional with IExCor=  402 diagonalized for initial guess.
 ExpMin= 1.22D-01 ExpMax= 1.11D+05 ExpMxC= 1.07D+03 IAcc=2 IRadAn=         4 AccDes= 0.00D+00
 HarFok:  IExCor=  402 AccDes= 0.00D+00 IRadAn=         4 IDoV= 1
 ScaDFX=  1.000000  1.000000  1.000000  1.000000
 FoFCou: FMM=F IPFlag=           0 FMFlag=      100000 FMFlg1=           0
         NFxFlg=           0 DoJE=T BraDBF=F KetDBF=T FulRan=T
         Omega=  0.000000  0.000000  1.000000  0.000000  0.000000 ICntrl=     500 IOpCl=  0
         NMat0=    1 NMatS0=    1 NMatT0=    0 NMatD0=    1 NMtDS0=    0 NMtDT0=    0
         I1Cent=           4 NGrid=           0.
 Petite list used in FoFCou.
 Harris En= -2069.21469096900    
 Initial guess orbital symmetries:
       Occupied  (A) (A) (A) (A) (A) (A) (A) (A) (A) (A) (A) (A)
                 (A) (A) (A) (A) (A) (A) (A) (A) (A) (A) (A) (A)
                 (A) (A) (A) (A) (A) (A) (A) (A) (A) (A) (A) (A)
                 (A) (A) (A) (A) (A) (A) (A) (A) (A) (A) (A) (A)
                 (A) (A) (A) (A) (A) (A) (A) (A) (A) (A) (A) (A)
                 (A) (A) (A) (A) (A) (A) (A) (A) (A) (A) (A) (A)
                 (A) (A) (A) (A) (A) (A) (A) (A) (A) (A) (A) (A)
                 (A) (A) (A) (A) (A) (A) (A) (A) (A) (A) (A) (A)
                 (A) (A) (A) (A) (A) (A) (A) (A) (A) (A) (A) (A)
                 (A) (A) (A) (A) (A) (A) (A)
       Virtual   (A) (A) (A) (A) (A) (A) (A) (A) (A) (A) (A) (A)
                 (A) (A) (A) (A) (A) (A) (A) (A) (A) (A) (A) (A)
                 (A) (A) (A) (A) (A) (A) (A) (A) (A) (A) (A) (A)
                 (A) (A) (A) (A) (A) (A) (A) (A) (A) (A) (A) (A)
                 (A) (A) (A) (A) (A) (A) (A) (A) (A) (A) (A) (A)
                 (A) (A) (A) (A) (A) (A) (A) (A) (A) (A) (A) (A)
                 (A) (A) (A) (A) (A) (A) (A) (A) (A) (A) (A) (A)
                 (A) (A) (A) (A) (A) (A) (A) (A) (A) (A) (A) (A)
                 (A) (A) (A) (A) (A) (A) (A) (A) (A) (A) (A) (A)
                 (A) (A) (A) (A) (A) (A) (A) (A) (A) (A) (A) (A)
                 (A) (A) (A) (A) (A) (A) (A) (A) (A) (A) (A) (A)
                 (A) (A) (A) (A) (A) (A) (A) (A) (A) (A) (A) (A)
                 (A) (A) (A) (A) (A) (A) (A) (A) (A) (A) (A) (A)
                 (A) (A) (A) (A) (A) (A) (A) (A) (A) (A) (A) (A)
                 (A) (A) (A) (A) (A) (A) (A) (A) (A) (A) (A) (A)
                 (A) (A) (A) (A) (A) (A) (A) (A) (A) (A) (A) (A)
                 (A) (A) (A) (A) (A) (A) (A) (A) (A) (A) (A) (A)
                 (A) (A) (A) (A) (A) (A) (A) (A) (A) (A) (A) (A)
                 (A) (A) (A) (A) (A) (A) (A) (A) (A) (A) (A) (A)
                 (A) (A) (A) (A) (A) (A) (A) (A) (A) (A) (A) (A)
                 (A) (A) (A) (A) (A) (A) (A) (A) (A) (A) (A) (A)
                 (A) (A) (A) (A) (A) (A) (A) (A) (A) (A) (A) (A)
                 (A) (A) (A) (A) (A) (A) (A) (A) (A) (A) (A) (A)
                 (A) (A) (A) (A) (A) (A) (A) (A) (A) (A) (A) (A)
                 (A) (A) (A) (A) (A) (A) (A) (A) (A) (A) (A) (A)
                 (A) (A) (A) (A) (A) (A) (A) (A) (A) (A) (A) (A)
                 (A) (A) (A) (A) (A) (A) (A) (A) (A) (A) (A) (A)
                 (A) (A) (A) (A) (A) (A) (A) (A) (A) (A) (A) (A)
                 (A) (A) (A) (A) (A) (A) (A) (A) (A) (A) (A) (A)
                 (A) (A) (A) (A) (A) (A) (A) (A) (A) (A) (A) (A)
                 (A) (A) (A) (A) (A) (A) (A) (A) (A) (A) (A) (A)
                 (A) (A) (A) (A) (A) (A) (A) (A) (A) (A) (A) (A)
                 (A) (A) (A) (A) (A) (A) (A) (A) (A) (A) (A) (A)
                 (A) (A) (A) (A) (A) (A) (A) (A) (A) (A) (A) (A)
 The electronic state of the initial guess is 1-A.
 Leave Link  401 at Sat Sep 10 08:07:00 2022, MaxMem=  209715200 cpu:      23.9
 (Enter /opt/gaussian/l502.exe)
 Closed shell SCF:
 Requested convergence on RMS density matrix=1.00D-08 within 128 cycles.
 Requested convergence on MAX density matrix=1.00D-06.
 Requested convergence on             energy=1.00D-06.
 No special actions if energy rises.
 Using DIIS extrapolation, IDIIS=  1040.
 Integral symmetry usage will be decided dynamically.
       424636 words used for storage of precomputed grid.
 IEnd=     1368813 IEndB=     1368813 NGot=   209715200 MDV=   208669390
 LenX=   208669390 LenY=   208363028
 Fock matrices will be formed incrementally for  20 cycles.
 Integral accuracy reduced to 1.0D-05 until final iterations.

 Cycle   1  Pass 0  IDiag  1:
 FoFCou: FMM=F IPFlag=           0 FMFlag=      100000 FMFlg1=           0
         NFxFlg=           0 DoJE=F BraDBF=F KetDBF=F FulRan=T
         Omega=  0.000000  0.000000  1.000000  0.000000  0.000000 ICntrl=       0 IOpCl=  0
         NMat0=    1 NMatS0=    1 NMatT0=    0 NMatD0=    1 NMtDS0=    0 NMtDT0=    0
         I1Cent=           0 NGrid=           0.
 Symmetry not used in FoFCou.
 E= -2068.48028154951    
 DIIS: error= 2.86D-02 at cycle   1 NSaved=   1.
 NSaved= 1 IEnMin= 1 EnMin= -2068.48028154951     IErMin= 1 ErrMin= 2.86D-02
 ErrMax= 2.86D-02 EMaxC= 1.00D-01 BMatC= 9.14D-01 BMatP= 9.14D-01
 IDIUse=3 WtCom= 7.14D-01 WtEn= 2.86D-01
 Coeff-Com:  0.100D+01
 Coeff-En:   0.100D+01
 Coeff:      0.100D+01
 Gap=     0.308 Goal=   None    Shift=    0.000
 GapD=    0.308 DampG=1.000 DampE=0.500 DampFc=0.5000 IDamp=-1.
 Damping current iteration by 5.00D-01
 RMSDP=4.70D-03 MaxDP=2.98D-01              OVMax= 3.04D-01

 Cycle   2  Pass 0  IDiag  1:
 RMSU=  1.65D-03    CP:  9.85D-01
 E= -2068.63063537986     Delta-E=       -0.150353830352 Rises=F Damp=T
 DIIS: error= 1.70D-02 at cycle   2 NSaved=   2.
 NSaved= 2 IEnMin= 2 EnMin= -2068.63063537986     IErMin= 2 ErrMin= 1.70D-02
 ErrMax= 1.70D-02 EMaxC= 1.00D-01 BMatC= 1.90D-01 BMatP= 9.14D-01
 IDIUse=3 WtCom= 8.30D-01 WtEn= 1.70D-01
 Coeff-Com:  0.275D+00 0.725D+00
 Coeff-En:   0.421D+00 0.579D+00
 Coeff:      0.300D+00 0.700D+00
 Gap=     0.255 Goal=   None    Shift=    0.000
 RMSDP=1.50D-03 MaxDP=6.94D-02 DE=-1.50D-01 OVMax= 3.09D-01

 Cycle   3  Pass 0  IDiag  1:
 RMSU=  9.40D-04    CP:  9.75D-01  7.13D-01
 E= -2069.27836007536     Delta-E=       -0.647724695501 Rises=F Damp=F
 DIIS: error= 9.06D-03 at cycle   3 NSaved=   3.
 NSaved= 3 IEnMin= 3 EnMin= -2069.27836007536     IErMin= 3 ErrMin= 9.06D-03
 ErrMax= 9.06D-03 EMaxC= 1.00D-01 BMatC= 9.15D-02 BMatP= 1.90D-01
 IDIUse=3 WtCom= 9.09D-01 WtEn= 9.06D-02
 Coeff-Com:  0.120D+00 0.414D+00 0.466D+00
 Coeff-En:   0.000D+00 0.000D+00 0.100D+01
 Coeff:      0.109D+00 0.376D+00 0.515D+00
 Gap=     0.192 Goal=   None    Shift=    0.000
 RMSDP=7.74D-04 MaxDP=4.36D-02 DE=-6.48D-01 OVMax= 6.44D-02

 Cycle   4  Pass 0  IDiag  1:
 RMSU=  4.15D-04    CP:  9.78D-01  7.57D-01  6.30D-01
 E= -2069.34992323765     Delta-E=       -0.071563162290 Rises=F Damp=F
 DIIS: error= 3.50D-03 at cycle   4 NSaved=   4.
 NSaved= 4 IEnMin= 4 EnMin= -2069.34992323765     IErMin= 4 ErrMin= 3.50D-03
 ErrMax= 3.50D-03 EMaxC= 1.00D-01 BMatC= 1.71D-02 BMatP= 9.15D-02
 IDIUse=3 WtCom= 9.65D-01 WtEn= 3.50D-02
 Coeff-Com:  0.270D-01 0.106D+00 0.310D+00 0.556D+00
 Coeff-En:   0.000D+00 0.000D+00 0.163D+00 0.837D+00
 Coeff:      0.261D-01 0.102D+00 0.305D+00 0.566D+00
 Gap=     0.193 Goal=   None    Shift=    0.000
 RMSDP=3.14D-04 MaxDP=1.78D-02 DE=-7.16D-02 OVMax= 3.49D-02

 Cycle   5  Pass 0  IDiag  1:
 RMSU=  1.37D-04    CP:  9.78D-01  7.44D-01  6.96D-01  6.11D-01
 E= -2069.36327810506     Delta-E=       -0.013354867410 Rises=F Damp=F
 DIIS: error= 1.28D-03 at cycle   5 NSaved=   5.
 NSaved= 5 IEnMin= 5 EnMin= -2069.36327810506     IErMin= 5 ErrMin= 1.28D-03
 ErrMax= 1.28D-03 EMaxC= 1.00D-01 BMatC= 2.33D-03 BMatP= 1.71D-02
 IDIUse=3 WtCom= 9.87D-01 WtEn= 1.28D-02
 Coeff-Com:  0.453D-02 0.218D-01 0.141D+00 0.361D+00 0.472D+00
 Coeff-En:   0.000D+00 0.000D+00 0.000D+00 0.995D-01 0.900D+00
 Coeff:      0.448D-02 0.215D-01 0.139D+00 0.358D+00 0.477D+00
 Gap=     0.192 Goal=   None    Shift=    0.000
 RMSDP=1.17D-04 MaxDP=6.29D-03 DE=-1.34D-02 OVMax= 1.46D-02

 Cycle   6  Pass 0  IDiag  1:
 RMSU=  3.90D-05    CP:  9.78D-01  7.44D-01  7.11D-01  6.83D-01  5.22D-01
 E= -2069.36536489003     Delta-E=       -0.002086784972 Rises=F Damp=F
 DIIS: error= 4.62D-04 at cycle   6 NSaved=   6.
 NSaved= 6 IEnMin= 6 EnMin= -2069.36536489003     IErMin= 6 ErrMin= 4.62D-04
 ErrMax= 4.62D-04 EMaxC= 1.00D-01 BMatC= 2.57D-04 BMatP= 2.33D-03
 IDIUse=3 WtCom= 9.95D-01 WtEn= 4.62D-03
 Coeff-Com: -0.369D-03-0.523D-03 0.478D-01 0.152D+00 0.298D+00 0.503D+00
 Coeff-En:   0.000D+00 0.000D+00 0.000D+00 0.000D+00 0.650D-01 0.935D+00
 Coeff:     -0.367D-03-0.521D-03 0.476D-01 0.151D+00 0.297D+00 0.505D+00
 Gap=     0.191 Goal=   None    Shift=    0.000
 RMSDP=3.62D-05 MaxDP=1.53D-03 DE=-2.09D-03 OVMax= 4.11D-03

 Cycle   7  Pass 0  IDiag  1:
 RMSU=  1.60D-05    CP:  9.78D-01  7.44D-01  7.10D-01  6.85D-01  5.88D-01
                    CP:  5.47D-01
 E= -2069.36558401721     Delta-E=       -0.000219127181 Rises=F Damp=F
 DIIS: error= 1.83D-04 at cycle   7 NSaved=   7.
 NSaved= 7 IEnMin= 7 EnMin= -2069.36558401721     IErMin= 7 ErrMin= 1.83D-04
 ErrMax= 1.83D-04 EMaxC= 1.00D-01 BMatC= 2.84D-05 BMatP= 2.57D-04
 IDIUse=3 WtCom= 9.98D-01 WtEn= 1.83D-03
 Coeff-Com: -0.461D-03-0.231D-02 0.153D-01 0.553D-01 0.132D+00 0.313D+00
 Coeff-Com:  0.487D+00
 Coeff-En:   0.000D+00 0.000D+00 0.000D+00 0.000D+00 0.000D+00 0.706D-01
 Coeff-En:   0.929D+00
 Coeff:     -0.461D-03-0.231D-02 0.153D-01 0.552D-01 0.132D+00 0.313D+00
 Coeff:      0.488D+00
 Gap=     0.191 Goal=   None    Shift=    0.000
 RMSDP=1.31D-05 MaxDP=8.06D-04 DE=-2.19D-04 OVMax= 1.80D-03

 Cycle   8  Pass 0  IDiag  1:
 RMSU=  5.26D-06    CP:  9.78D-01  7.44D-01  7.11D-01  6.84D-01  5.86D-01
                    CP:  6.12D-01  5.59D-01
 E= -2069.36561224012     Delta-E=       -0.000028222912 Rises=F Damp=F
 DIIS: error= 7.68D-05 at cycle   8 NSaved=   8.
 NSaved= 8 IEnMin= 8 EnMin= -2069.36561224012     IErMin= 8 ErrMin= 7.68D-05
 ErrMax= 7.68D-05 EMaxC= 1.00D-01 BMatC= 3.10D-06 BMatP= 2.84D-05
 IDIUse=1 WtCom= 1.00D+00 WtEn= 0.00D+00
 Coeff-Com: -0.221D-03-0.162D-02 0.430D-02 0.178D-01 0.494D-01 0.138D+00
 Coeff-Com:  0.303D+00 0.490D+00
 Coeff:     -0.221D-03-0.162D-02 0.430D-02 0.178D-01 0.494D-01 0.138D+00
 Coeff:      0.303D+00 0.490D+00
 Gap=     0.191 Goal=   None    Shift=    0.000
 RMSDP=3.97D-06 MaxDP=2.66D-04 DE=-2.82D-05 OVMax= 5.48D-04

 Initial convergence to 1.0D-05 achieved.  Increase integral accuracy.
 Cycle   9  Pass 1  IDiag  1:
 E= -2069.36551472308     Delta-E=        0.000097517041 Rises=F Damp=F
 DIIS: error= 1.60D-04 at cycle   1 NSaved=   1.
 NSaved= 1 IEnMin= 1 EnMin= -2069.36551472308     IErMin= 1 ErrMin= 1.60D-04
 ErrMax= 1.60D-04 EMaxC= 1.00D-01 BMatC= 8.04D-06 BMatP= 8.04D-06
 IDIUse=3 WtCom= 9.98D-01 WtEn= 1.60D-03
 Coeff-Com:  0.100D+01
 Coeff-En:   0.100D+01
 Coeff:      0.100D+01
 Gap=     0.191 Goal=   None    Shift=    0.000
 RMSDP=3.97D-06 MaxDP=2.66D-04 DE= 9.75D-05 OVMax= 4.89D-04

 Cycle  10  Pass 1  IDiag  1:
 RMSU=  7.39D-05    CP:  1.00D+00
 E= -2069.36552218962     Delta-E=       -0.000007466534 Rises=F Damp=F
 DIIS: error= 3.34D-05 at cycle   2 NSaved=   2.
 NSaved= 2 IEnMin= 2 EnMin= -2069.36552218962     IErMin= 2 ErrMin= 3.34D-05
 ErrMax= 3.34D-05 EMaxC= 1.00D-01 BMatC= 7.99D-07 BMatP= 8.04D-06
 IDIUse=1 WtCom= 1.00D+00 WtEn= 0.00D+00
 Coeff-Com:  0.118D+00 0.882D+00
 Coeff:      0.118D+00 0.882D+00
 Gap=     0.191 Goal=   None    Shift=    0.000
 RMSDP=4.33D-06 MaxDP=2.89D-04 DE=-7.47D-06 OVMax= 4.87D-04

 Cycle  11  Pass 1  IDiag  1:
 RMSU=  2.98D-06    CP:  1.00D+00  1.01D+00
 E= -2069.36552073004     Delta-E=        0.000001459578 Rises=F Damp=F
 DIIS: error= 5.94D-05 at cycle   3 NSaved=   3.
 NSaved= 3 IEnMin= 2 EnMin= -2069.36552218962     IErMin= 2 ErrMin= 3.34D-05
 ErrMax= 5.94D-05 EMaxC= 1.00D-01 BMatC= 2.38D-06 BMatP= 7.99D-07
 IDIUse=1 WtCom= 1.00D+00 WtEn= 0.00D+00
 Coeff-Com: -0.335D-02 0.636D+00 0.368D+00
 Coeff:     -0.335D-02 0.636D+00 0.368D+00
 Gap=     0.191 Goal=   None    Shift=    0.000
 RMSDP=2.78D-06 MaxDP=2.08D-04 DE= 1.46D-06 OVMax= 3.32D-04

 Cycle  12  Pass 1  IDiag  1:
 RMSU=  4.17D-07    CP:  1.00D+00  1.01D+00  3.57D-01
 E= -2069.36552292207     Delta-E=       -0.000002192037 Rises=F Damp=F
 DIIS: error= 5.52D-06 at cycle   4 NSaved=   4.
 NSaved= 4 IEnMin= 4 EnMin= -2069.36552292207     IErMin= 4 ErrMin= 5.52D-06
 ErrMax= 5.52D-06 EMaxC= 1.00D-01 BMatC= 3.04D-08 BMatP= 7.99D-07
 IDIUse=1 WtCom= 1.00D+00 WtEn= 0.00D+00
 Coeff-Com: -0.412D-02 0.391D+00 0.235D+00 0.379D+00
 Coeff:     -0.412D-02 0.391D+00 0.235D+00 0.379D+00
 Gap=     0.191 Goal=   None    Shift=    0.000
 RMSDP=3.27D-07 MaxDP=1.99D-05 DE=-2.19D-06 OVMax= 3.75D-05

 Cycle  13  Pass 1  IDiag  1:
 RMSU=  1.32D-07    CP:  1.00D+00  1.01D+00  3.74D-01  5.62D-01
 E= -2069.36552295040     Delta-E=       -0.000000028322 Rises=F Damp=F
 DIIS: error= 6.54D-07 at cycle   5 NSaved=   5.
 NSaved= 5 IEnMin= 5 EnMin= -2069.36552295040     IErMin= 5 ErrMin= 6.54D-07
 ErrMax= 6.54D-07 EMaxC= 1.00D-01 BMatC= 6.75D-10 BMatP= 3.04D-08
 IDIUse=1 WtCom= 1.00D+00 WtEn= 0.00D+00
 Coeff-Com: -0.211D-02 0.186D+00 0.113D+00 0.207D+00 0.497D+00
 Coeff:     -0.211D-02 0.186D+00 0.113D+00 0.207D+00 0.497D+00
 Gap=     0.191 Goal=   None    Shift=    0.000
 RMSDP=6.62D-08 MaxDP=3.92D-06 DE=-2.83D-08 OVMax= 7.71D-06

 Cycle  14  Pass 1  IDiag  1:
 RMSU=  4.22D-08    CP:  1.00D+00  1.01D+00  3.75D-01  5.73D-01  8.52D-01
 E= -2069.36552295085     Delta-E=       -0.000000000456 Rises=F Damp=F
 DIIS: error= 2.84D-07 at cycle   6 NSaved=   6.
 NSaved= 6 IEnMin= 6 EnMin= -2069.36552295085     IErMin= 6 ErrMin= 2.84D-07
 ErrMax= 2.84D-07 EMaxC= 1.00D-01 BMatC= 1.30D-10 BMatP= 6.75D-10
 IDIUse=1 WtCom= 1.00D+00 WtEn= 0.00D+00
 Coeff-Com: -0.661D-03 0.541D-01 0.330D-01 0.690D-01 0.320D+00 0.524D+00
 Coeff:     -0.661D-03 0.541D-01 0.330D-01 0.690D-01 0.320D+00 0.524D+00
 Gap=     0.191 Goal=   None    Shift=    0.000
 RMSDP=2.96D-08 MaxDP=1.74D-06 DE=-4.56D-10 OVMax= 4.11D-06

 Cycle  15  Pass 1  IDiag  1:
 RMSU=  1.36D-08    CP:  1.00D+00  1.01D+00  3.74D-01  5.78D-01  9.01D-01
                    CP:  6.61D-01
 E= -2069.36552295100     Delta-E=       -0.000000000150 Rises=F Damp=F
 DIIS: error= 1.21D-07 at cycle   7 NSaved=   7.
 NSaved= 7 IEnMin= 7 EnMin= -2069.36552295100     IErMin= 7 ErrMin= 1.21D-07
 ErrMax= 1.21D-07 EMaxC= 1.00D-01 BMatC= 1.63D-11 BMatP= 1.30D-10
 IDIUse=1 WtCom= 1.00D+00 WtEn= 0.00D+00
 Coeff-Com: -0.365D-04 0.656D-03 0.566D-03 0.572D-02 0.106D+00 0.316D+00
 Coeff-Com:  0.571D+00
 Coeff:     -0.365D-04 0.656D-03 0.566D-03 0.572D-02 0.106D+00 0.316D+00
 Coeff:      0.571D+00
 Gap=     0.191 Goal=   None    Shift=    0.000
 RMSDP=9.49D-09 MaxDP=6.08D-07 DE=-1.50D-10 OVMax= 8.95D-07

 SCF Done:  E(RB3LYP) =  -2069.36552295     A.U. after   15 cycles
             Convg  =    0.9494D-08             -V/T =  2.0050
 KE= 2.059104143012D+03 PE=-1.101954949045D+04 EE= 3.808693036316D+03
 Leave Link  502 at Sat Sep 10 08:18:19 2022, MaxMem=  209715200 cpu:    5029.5
 (Enter /opt/gaussian/l601.exe)
 Copying SCF densities to generalized density rwf, IOpCl= 0 IROHF=0.

 **********************************************************************

            Population analysis using the SCF density.

 **********************************************************************

 Orbital symmetries:
       Occupied  (A) (A) (A) (A) (A) (A) (A) (A) (A) (A) (A) (A)
                 (A) (A) (A) (A) (A) (A) (A) (A) (A) (A) (A) (A)
                 (A) (A) (A) (A) (A) (A) (A) (A) (A) (A) (A) (A)
                 (A) (A) (A) (A) (A) (A) (A) (A) (A) (A) (A) (A)
                 (A) (A) (A) (A) (A) (A) (A) (A) (A) (A) (A) (A)
                 (A) (A) (A) (A) (A) (A) (A) (A) (A) (A) (A) (A)
                 (A) (A) (A) (A) (A) (A) (A) (A) (A) (A) (A) (A)
                 (A) (A) (A) (A) (A) (A) (A) (A) (A) (A) (A) (A)
                 (A) (A) (A) (A) (A) (A) (A) (A) (A) (A) (A) (A)
                 (A) (A) (A) (A) (A) (A) (A)
       Virtual   (A) (A) (A) (A) (A) (A) (A) (A) (A) (A) (A) (A)
                 (A) (A) (A) (A) (A) (A) (A) (A) (A) (A) (A) (A)
                 (A) (A) (A) (A) (A) (A) (A) (A) (A) (A) (A) (A)
                 (A) (A) (A) (A) (A) (A) (A) (A) (A) (A) (A) (A)
                 (A) (A) (A) (A) (A) (A) (A) (A) (A) (A) (A) (A)
                 (A) (A) (A) (A) (A) (A) (A) (A) (A) (A) (A) (A)
                 (A) (A) (A) (A) (A) (A) (A) (A) (A) (A) (A) (A)
                 (A) (A) (A) (A) (A) (A) (A) (A) (A) (A) (A) (A)
                 (A) (A) (A) (A) (A) (A) (A) (A) (A) (A) (A) (A)
                 (A) (A) (A) (A) (A) (A) (A) (A) (A) (A) (A) (A)
                 (A) (A) (A) (A) (A) (A) (A) (A) (A) (A) (A) (A)
                 (A) (A) (A) (A) (A) (A) (A) (A) (A) (A) (A) (A)
                 (A) (A) (A) (A) (A) (A) (A) (A) (A) (A) (A) (A)
                 (A) (A) (A) (A) (A) (A) (A) (A) (A) (A) (A) (A)
                 (A) (A) (A) (A) (A) (A) (A) (A) (A) (A) (A) (A)
                 (A) (A) (A) (A) (A) (A) (A) (A) (A) (A) (A) (A)
                 (A) (A) (A) (A) (A) (A) (A) (A) (A) (A) (A) (A)
                 (A) (A) (A) (A) (A) (A) (A) (A) (A) (A) (A) (A)
                 (A) (A) (A) (A) (A) (A) (A) (A) (A) (A) (A) (A)
                 (A) (A) (A) (A) (A) (A) (A) (A) (A) (A) (A) (A)
                 (A) (A) (A) (A) (A) (A) (A) (A) (A) (A) (A) (A)
                 (A) (A) (A) (A) (A) (A) (A) (A) (A) (A) (A) (A)
                 (A) (A) (A) (A) (A) (A) (A) (A) (A) (A) (A) (A)
                 (A) (A) (A) (A) (A) (A) (A) (A) (A) (A) (A) (A)
                 (A) (A) (A) (A) (A) (A) (A) (A) (A) (A) (A) (A)
                 (A) (A) (A) (A) (A) (A) (A) (A) (A) (A) (A) (A)
                 (A) (A) (A) (A) (A) (A) (A) (A) (A) (A) (A) (A)
                 (A) (A) (A) (A) (A) (A) (A) (A) (A) (A) (A) (A)
                 (A) (A) (A) (A) (A) (A) (A) (A) (A) (A) (A) (A)
                 (A) (A) (A) (A) (A) (A) (A) (A) (A) (A) (A) (A)
                 (A) (A) (A) (A) (A) (A) (A) (A) (A) (A) (A) (A)
                 (A) (A) (A) (A) (A) (A) (A) (A) (A) (A) (A) (A)
                 (A) (A) (A) (A) (A) (A) (A) (A) (A) (A) (A) (A)
                 (A) (A) (A) (A) (A) (A) (A) (A) (A) (A) (A) (A)
 The electronic state is 1-A.
 Alpha  occ. eigenvalues --  -89.10744 -88.92807 -19.13342 -19.13334 -19.13298
 Alpha  occ. eigenvalues --  -14.41264 -14.39484 -14.39086 -14.36894 -14.34870
 Alpha  occ. eigenvalues --  -10.31410 -10.26341 -10.25997 -10.25442 -10.24132
 Alpha  occ. eigenvalues --  -10.23539 -10.23493 -10.23405 -10.23232 -10.22453
 Alpha  occ. eigenvalues --  -10.21418 -10.21280 -10.21160 -10.21125 -10.20939
 Alpha  occ. eigenvalues --  -10.20690 -10.20425 -10.20085 -10.19931 -10.19518
 Alpha  occ. eigenvalues --   -8.14100  -7.99010  -6.10434  -6.10392  -6.10238
 Alpha  occ. eigenvalues --   -5.95330  -5.94950  -5.94655  -1.10447  -1.09533
 Alpha  occ. eigenvalues --   -1.06534  -0.99631  -0.97295  -0.93722  -0.92614
 Alpha  occ. eigenvalues --   -0.90195  -0.86503  -0.86175  -0.79386  -0.78446
 Alpha  occ. eigenvalues --   -0.77865  -0.77204  -0.76882  -0.75412  -0.74982
 Alpha  occ. eigenvalues --   -0.73763  -0.70624  -0.65977  -0.64941  -0.63390
 Alpha  occ. eigenvalues --   -0.62466  -0.61816  -0.59816  -0.59034  -0.57751
 Alpha  occ. eigenvalues --   -0.56377  -0.54638  -0.53541  -0.53074  -0.52758
 Alpha  occ. eigenvalues --   -0.52251  -0.52009  -0.51281  -0.48739  -0.48065
 Alpha  occ. eigenvalues --   -0.47132  -0.46963  -0.46752  -0.46646  -0.45748
 Alpha  occ. eigenvalues --   -0.44737  -0.44642  -0.44193  -0.43954  -0.43741
 Alpha  occ. eigenvalues --   -0.43298  -0.42945  -0.42532  -0.41741  -0.41299
 Alpha  occ. eigenvalues --   -0.40015  -0.39768  -0.39129  -0.38327  -0.37670
 Alpha  occ. eigenvalues --   -0.37328  -0.36753  -0.36480  -0.35650  -0.34111
 Alpha  occ. eigenvalues --   -0.33153  -0.32003  -0.31350  -0.31194  -0.30864
 Alpha  occ. eigenvalues --   -0.29539  -0.28600  -0.28056  -0.27185  -0.26967
 Alpha  occ. eigenvalues --   -0.26692  -0.25901  -0.25017  -0.24010  -0.23499
 Alpha virt. eigenvalues --   -0.04403  -0.04245  -0.03987  -0.02835   0.00346
 Alpha virt. eigenvalues --    0.00784   0.01713   0.02244   0.03398   0.04055
 Alpha virt. eigenvalues --    0.04126   0.05341   0.06197   0.06427   0.06674
 Alpha virt. eigenvalues --    0.07516   0.07713   0.08029   0.08636   0.08929
 Alpha virt. eigenvalues --    0.09098   0.09667   0.09938   0.10508   0.10706
 Alpha virt. eigenvalues --    0.12053   0.12433   0.12903   0.13004   0.13556
 Alpha virt. eigenvalues --    0.13990   0.14446   0.14950   0.15829   0.16024
 Alpha virt. eigenvalues --    0.16720   0.17579   0.19369   0.19962   0.20832
 Alpha virt. eigenvalues --    0.22102   0.23920   0.24296   0.24434   0.25483
 Alpha virt. eigenvalues --    0.26288   0.26944   0.28473   0.29024   0.29648
 Alpha virt. eigenvalues --    0.30103   0.30750   0.31652   0.33046   0.34690
 Alpha virt. eigenvalues --    0.35727   0.36658   0.36994   0.37722   0.38815
 Alpha virt. eigenvalues --    0.39610   0.40247   0.40439   0.41829   0.42115
 Alpha virt. eigenvalues --    0.42648   0.43390   0.43611   0.44400   0.44762
 Alpha virt. eigenvalues --    0.45036   0.45331   0.45519   0.45928   0.46007
 Alpha virt. eigenvalues --    0.46562   0.46662   0.47304   0.47581   0.47864
 Alpha virt. eigenvalues --    0.48335   0.48550   0.48647   0.49269   0.49772
 Alpha virt. eigenvalues --    0.50209   0.50378   0.50624   0.51024   0.51128
 Alpha virt. eigenvalues --    0.51885   0.52358   0.52996   0.53316   0.54327
 Alpha virt. eigenvalues --    0.54676   0.54958   0.55404   0.55594   0.55907
 Alpha virt. eigenvalues --    0.56110   0.57296   0.57998   0.58273   0.58557
 Alpha virt. eigenvalues --    0.58771   0.59740   0.60087   0.60171   0.60676
 Alpha virt. eigenvalues --    0.61116   0.61477   0.61795   0.62208   0.62627
 Alpha virt. eigenvalues --    0.63175   0.63593   0.64256   0.64479   0.64838
 Alpha virt. eigenvalues --    0.65147   0.65542   0.65968   0.66847   0.67134
 Alpha virt. eigenvalues --    0.67433   0.68516   0.68984   0.69853   0.70024
 Alpha virt. eigenvalues --    0.70443   0.70991   0.71900   0.71997   0.72501
 Alpha virt. eigenvalues --    0.74128   0.74190   0.75256   0.75557   0.77091
 Alpha virt. eigenvalues --    0.77350   0.77647   0.78441   0.78844   0.79565
 Alpha virt. eigenvalues --    0.80796   0.82346   0.83355   0.83698   0.84219
 Alpha virt. eigenvalues --    0.84700   0.85835   0.86370   0.86798   0.87532
 Alpha virt. eigenvalues --    0.88465   0.88727   0.89091   0.90002   0.90551
 Alpha virt. eigenvalues --    0.90696   0.92103   0.92818   0.92941   0.93251
 Alpha virt. eigenvalues --    0.93406   0.94922   0.95764   0.96308   0.97638
 Alpha virt. eigenvalues --    0.97895   0.98262   0.98525   0.99093   0.99735
 Alpha virt. eigenvalues --    1.00416   1.00638   1.00847   1.01361   1.02331
 Alpha virt. eigenvalues --    1.02400   1.03052   1.03554   1.04404   1.04744
 Alpha virt. eigenvalues --    1.05089   1.06034   1.06360   1.06552   1.07204
 Alpha virt. eigenvalues --    1.07565   1.08123   1.09440   1.10053   1.10510
 Alpha virt. eigenvalues --    1.11061   1.11957   1.13268   1.14343   1.15670
 Alpha virt. eigenvalues --    1.15985   1.16577   1.17336   1.18305   1.18968
 Alpha virt. eigenvalues --    1.20283   1.21404   1.22425   1.23364   1.23790
 Alpha virt. eigenvalues --    1.24097   1.24694   1.25513   1.27629   1.28562
 Alpha virt. eigenvalues --    1.30095   1.30926   1.31498   1.32445   1.33437
 Alpha virt. eigenvalues --    1.34072   1.35271   1.36236   1.37279   1.38234
 Alpha virt. eigenvalues --    1.38519   1.39402   1.41248   1.42624   1.43267
 Alpha virt. eigenvalues --    1.45210   1.46246   1.46705   1.47955   1.48686
 Alpha virt. eigenvalues --    1.49291   1.50236   1.50472   1.51374   1.52139
 Alpha virt. eigenvalues --    1.53097   1.53638   1.54181   1.55451   1.55753
 Alpha virt. eigenvalues --    1.56229   1.56455   1.57742   1.57912   1.58142
 Alpha virt. eigenvalues --    1.58807   1.58868   1.59199   1.59716   1.61163
 Alpha virt. eigenvalues --    1.61577   1.61799   1.62865   1.63245   1.64202
 Alpha virt. eigenvalues --    1.64805   1.64895   1.65726   1.66223   1.66544
 Alpha virt. eigenvalues --    1.67176   1.67336   1.67962   1.68452   1.68631
 Alpha virt. eigenvalues --    1.69631   1.69947   1.70482   1.70700   1.72129
 Alpha virt. eigenvalues --    1.72402   1.73775   1.74141   1.74944   1.75681
 Alpha virt. eigenvalues --    1.75833   1.76672   1.77186   1.77331   1.78626
 Alpha virt. eigenvalues --    1.78983   1.79290   1.80005   1.80211   1.80365
 Alpha virt. eigenvalues --    1.82494   1.82960   1.83528   1.83985   1.84483
 Alpha virt. eigenvalues --    1.84680   1.85797   1.86491   1.86788   1.87621
 Alpha virt. eigenvalues --    1.88784   1.88975   1.90648   1.91225   1.92225
 Alpha virt. eigenvalues --    1.92670   1.93384   1.94904   1.95958   1.96819
 Alpha virt. eigenvalues --    1.97198   1.97886   1.98057   1.98724   1.99375
 Alpha virt. eigenvalues --    2.00048   2.01024   2.02096   2.03456   2.03644
 Alpha virt. eigenvalues --    2.04623   2.05360   2.07123   2.08330   2.09112
 Alpha virt. eigenvalues --    2.09968   2.11204   2.11849   2.12249   2.12782
 Alpha virt. eigenvalues --    2.14070   2.15365   2.15722   2.16183   2.16957
 Alpha virt. eigenvalues --    2.17604   2.20464   2.21896   2.23797   2.24635
 Alpha virt. eigenvalues --    2.26058   2.26123   2.28881   2.29116   2.30844
 Alpha virt. eigenvalues --    2.33364   2.33485   2.36748   2.37018   2.38172
 Alpha virt. eigenvalues --    2.38987   2.39578   2.40036   2.40161   2.41260
 Alpha virt. eigenvalues --    2.42321   2.42962   2.43636   2.44446   2.45809
 Alpha virt. eigenvalues --    2.45900   2.48535   2.49194   2.50422   2.51812
 Alpha virt. eigenvalues --    2.52251   2.53222   2.57351   2.58840   2.60875
 Alpha virt. eigenvalues --    2.61111   2.61899   2.62221   2.62520   2.62885
 Alpha virt. eigenvalues --    2.65176   2.65722   2.67735   2.67816   2.69546
 Alpha virt. eigenvalues --    2.69845   2.70005   2.70635   2.73541   2.74919
 Alpha virt. eigenvalues --    2.75953   2.77216   2.78416   2.79582   2.81044
 Alpha virt. eigenvalues --    2.86199   2.88429   2.91321   2.93404   2.94520
 Alpha virt. eigenvalues --    2.96064   2.98087   3.00105   3.04233   3.07075
 Alpha virt. eigenvalues --    3.09670   3.14481   3.24702   3.32774   3.40135
 Alpha virt. eigenvalues --    3.48110   3.51259   3.53620
          Condensed to atoms (all electrons):
              1          2          3          4          5          6
     1  C    4.849256   0.292078  -0.049140  -0.044654  -0.040805  -0.003189
     2  S    0.292078  13.662549   0.537131   0.549025   0.225711  -0.059187
     3  O   -0.049140   0.537131   8.000672  -0.028243  -0.042374   0.007811
     4  O   -0.044654   0.549025  -0.028243   8.001148  -0.038637  -0.000455
     5  N   -0.040805   0.225711  -0.042374  -0.038637   6.647317   0.327532
     6  C   -0.003189  -0.059187   0.007811  -0.000455   0.327532   4.998884
     7  C   -0.000550  -0.006371  -0.000255  -0.000005  -0.044639   0.454992
     8  C   -0.000101   0.000149   0.000014   0.000001   0.004431   0.007225
     9  C    0.000003   0.000026  -0.000001   0.000000   0.000364  -0.083878
    10  C   -0.000011   0.000335  -0.000361  -0.000002   0.008419   0.007034
    11  C    0.000808  -0.002809   0.002925  -0.000170  -0.059755   0.455577
    12  N    0.000000   0.000000   0.000000   0.000000   0.000000   0.000439
    13  C    0.000000   0.000000   0.000000   0.000000   0.000000  -0.000017
    14  C    0.000000   0.000000   0.000000   0.000000   0.000000  -0.000004
    15  C    0.000000   0.000000   0.000000   0.000000   0.000000   0.000004
    16  C    0.000000   0.000000   0.000000   0.000000   0.000000   0.000000
    17  S    0.000000   0.000000   0.000000   0.000000   0.000000   0.000000
    18  C    0.000000   0.000000   0.000000   0.000000   0.000000   0.000000
    19  C    0.000000   0.000000   0.000000   0.000000   0.000000  -0.000061
    20  O    0.000000   0.000000   0.000000   0.000000   0.000000  -0.000024
    21  C    0.000000   0.000000   0.000000   0.000000   0.000000   0.000000
    22  N    0.000000   0.000000   0.000000   0.000000   0.000000   0.000000
    23  N    0.000000   0.000000   0.000000   0.000000   0.000000   0.000000
    24  N    0.000000   0.000000   0.000000   0.000000   0.000000   0.000000
    25  C    0.000000   0.000000   0.000000   0.000000   0.000000   0.000000
    26  C    0.000000   0.000000   0.000000   0.000000   0.000000   0.000000
    27  C    0.000000   0.000000   0.000000   0.000000   0.000000   0.000000
    28  C    0.000000   0.000000   0.000000   0.000000   0.000000   0.000000
    29  C    0.000000   0.000000   0.000000   0.000000   0.000000   0.000000
    30  C    0.000000   0.000000   0.000000   0.000000   0.000000   0.000000
    31  H    0.362550  -0.005816   0.001838   0.002512  -0.003041   0.003117
    32  H    0.375391  -0.012567   0.001758   0.000877   0.003626  -0.000053
    33  H    0.360404  -0.006754   0.002849   0.002531   0.002944  -0.000046
    34  H    0.004994  -0.014919   0.000144   0.011782   0.347392  -0.030948
    35  H    0.000635  -0.001498   0.000063  -0.000027  -0.000086  -0.050802
    36  H   -0.000003  -0.000003   0.000000   0.000000  -0.000148   0.011099
    37  H    0.000000  -0.000024  -0.000005   0.000000  -0.000207   0.009630
    38  H    0.000189   0.001244   0.005433  -0.000253  -0.007510  -0.047878
    39  H    0.000000   0.000000   0.000000   0.000000   0.000000   0.000002
    40  H    0.000000   0.000000   0.000000   0.000000   0.000000  -0.000122
    41  H    0.000000   0.000000   0.000000   0.000000   0.000000  -0.000022
    42  H    0.000000   0.000000   0.000000   0.000000   0.000000   0.000000
    43  H    0.000000   0.000000   0.000000   0.000000   0.000000   0.000000
    44  H    0.000000   0.000000   0.000000   0.000000   0.000000   0.000000
    45  H    0.000000   0.000000   0.000000   0.000000   0.000000   0.000000
    46  H    0.000000   0.000000   0.000000   0.000000   0.000000   0.000000
    47  H    0.000000   0.000000   0.000000   0.000000   0.000000   0.000000
    48  H    0.000000   0.000000   0.000000   0.000000   0.000000   0.000000
    49  H    0.000000   0.000000   0.000000   0.000000   0.000000   0.000000
              7          8          9         10         11         12
     1  C   -0.000550  -0.000101   0.000003  -0.000011   0.000808   0.000000
     2  S   -0.006371   0.000149   0.000026   0.000335  -0.002809   0.000000
     3  O   -0.000255   0.000014  -0.000001  -0.000361   0.002925   0.000000
     4  O   -0.000005   0.000001   0.000000  -0.000002  -0.000170   0.000000
     5  N   -0.044639   0.004431   0.000364   0.008419  -0.059755   0.000000
     6  C    0.454992   0.007225  -0.083878   0.007034   0.455577   0.000439
     7  C    4.724311   0.492705   0.016311  -0.069684  -0.006210   0.003363
     8  C    0.492705   4.760196   0.475132  -0.037617  -0.064017  -0.048318
     9  C    0.016311   0.475132   4.896924   0.432252   0.004264   0.331453
    10  C   -0.069684  -0.037617   0.432252   4.901199   0.448212  -0.054869
    11  C   -0.006210  -0.064017   0.004264   0.448212   4.769852   0.004003
    12  N    0.003363  -0.048318   0.331453  -0.054869   0.004003   6.548458
    13  C    0.000167   0.002173  -0.054541  -0.000849  -0.000136   0.357478
    14  C    0.000002  -0.000428  -0.004931  -0.003330   0.000284  -0.044004
    15  C    0.000001  -0.000003   0.000437  -0.003505  -0.000143   0.000965
    16  C    0.000000  -0.000001  -0.000021  -0.000127  -0.000004   0.000353
    17  S    0.000000   0.000000   0.000000   0.000007   0.000000  -0.000146
    18  C    0.000000   0.000013  -0.000069  -0.000055   0.000005   0.003817
    19  C    0.000249  -0.013002  -0.054058   0.003503   0.000372   0.374003
    20  O    0.000068   0.001568  -0.009145  -0.000395   0.000029  -0.067142
    21  C    0.000001   0.000562   0.006527  -0.000661   0.000004  -0.072982
    22  N    0.000000  -0.000024  -0.000009   0.000002   0.000000   0.001525
    23  N    0.000000  -0.000001   0.000001   0.000000   0.000000  -0.000023
    24  N    0.000000   0.000000   0.000000   0.000000   0.000000   0.000000
    25  C    0.000000   0.000000   0.000000   0.000000   0.000000  -0.000009
    26  C    0.000000   0.000000   0.000000   0.000000   0.000000   0.000000
    27  C    0.000000   0.000000   0.000000   0.000000   0.000000   0.000000
    28  C    0.000000   0.000000   0.000000   0.000000   0.000000  -0.000001
    29  C    0.000000   0.000001  -0.000001   0.000000   0.000000  -0.000022
    30  C    0.000000  -0.000005   0.000002   0.000001   0.000000   0.000411
    31  H    0.002964   0.000029  -0.000019  -0.000018   0.000143   0.000000
    32  H   -0.000041   0.000004   0.000000  -0.000002  -0.000009   0.000000
    33  H    0.000077   0.000014   0.000000  -0.000002  -0.000085   0.000000
    34  H    0.001257  -0.000077  -0.000033   0.000648  -0.005502   0.000000
    35  H    0.376724  -0.044727   0.011335  -0.001206   0.013330  -0.000118
    36  H   -0.039726   0.381440  -0.039485   0.010343  -0.000613  -0.011439
    37  H   -0.000051   0.008977  -0.047933   0.370606  -0.030720  -0.011994
    38  H    0.011786  -0.000723   0.011074  -0.032900   0.372689  -0.000136
    39  H   -0.000003   0.000004   0.007297  -0.000145  -0.000064  -0.019404
    40  H   -0.000152   0.000687  -0.014856   0.014501   0.001581  -0.010310
    41  H   -0.000027   0.000005   0.000076   0.002882   0.000643   0.002462
    42  H    0.000000   0.000000   0.000001  -0.000002   0.000000   0.000009
    43  H    0.000000   0.000000  -0.000017   0.000001   0.000000   0.000179
    44  H   -0.000003  -0.000043   0.000026   0.000008   0.000000  -0.001326
    45  H    0.000001   0.000009  -0.000516   0.000071   0.000000  -0.000803
    46  H    0.000000   0.000000   0.000000   0.000000   0.000000   0.000000
    47  H    0.000000   0.000000   0.000000   0.000000   0.000000   0.000000
    48  H    0.000000   0.000000   0.000000   0.000000   0.000000   0.000000
    49  H    0.000000   0.000000   0.000014   0.000003   0.000000  -0.000038
             13         14         15         16         17         18
     1  C    0.000000   0.000000   0.000000   0.000000   0.000000   0.000000
     2  S    0.000000   0.000000   0.000000   0.000000   0.000000   0.000000
     3  O    0.000000   0.000000   0.000000   0.000000   0.000000   0.000000
     4  O    0.000000   0.000000   0.000000   0.000000   0.000000   0.000000
     5  N    0.000000   0.000000   0.000000   0.000000   0.000000   0.000000
     6  C   -0.000017  -0.000004   0.000004   0.000000   0.000000   0.000000
     7  C    0.000167   0.000002   0.000001   0.000000   0.000000   0.000000
     8  C    0.002173  -0.000428  -0.000003  -0.000001   0.000000   0.000013
     9  C   -0.054541  -0.004931   0.000437  -0.000021   0.000000  -0.000069
    10  C   -0.000849  -0.003330  -0.003505  -0.000127   0.000007  -0.000055
    11  C   -0.000136   0.000284  -0.000143  -0.000004   0.000000   0.000005
    12  N    0.357478  -0.044004   0.000965   0.000353  -0.000146   0.003817
    13  C    4.654540   0.389705  -0.081246   0.009591   0.007014  -0.079057
    14  C    0.389705   4.890186   0.470347  -0.014789  -0.080500   0.527392
    15  C   -0.081246   0.470347   4.748107   0.556790  -0.088506  -0.050235
    16  C    0.009591  -0.014789   0.556790   4.945487   0.368028  -0.105253
    17  S    0.007014  -0.080500  -0.088506   0.368028  15.350754   0.356369
    18  C   -0.079057   0.527392  -0.050235  -0.105253   0.356369   5.102685
    19  C   -0.052720  -0.001433   0.000551  -0.000170  -0.000021   0.000085
    20  O    0.002986  -0.000238  -0.000105  -0.000002   0.000000  -0.000007
    21  C    0.007842  -0.009322  -0.001345  -0.000037   0.000175  -0.001833
    22  N    0.000118   0.000107  -0.000007  -0.000001   0.000000   0.000015
    23  N    0.000023   0.000001   0.000000   0.000000   0.000000   0.000000
    24  N    0.000000   0.000000   0.000000   0.000000   0.000000   0.000000
    25  C    0.000001   0.000000   0.000000   0.000000   0.000000   0.000000
    26  C    0.000000   0.000000   0.000000   0.000000   0.000000   0.000000
    27  C    0.000000   0.000000   0.000000   0.000000   0.000000   0.000000
    28  C    0.000000   0.000000   0.000000   0.000000   0.000000   0.000000
    29  C    0.000002  -0.000006  -0.000090  -0.000026   0.000001   0.000002
    30  C    0.000007  -0.000027  -0.000019  -0.000002   0.000000   0.000000
    31  H    0.000000   0.000000   0.000000   0.000000   0.000000   0.000000
    32  H    0.000000   0.000000   0.000000   0.000000   0.000000   0.000000
    33  H    0.000000   0.000000   0.000000   0.000000   0.000000   0.000000
    34  H    0.000000   0.000000   0.000000   0.000000   0.000000   0.000000
    35  H    0.000005   0.000000   0.000000   0.000000   0.000000   0.000000
    36  H   -0.000614  -0.000028   0.000001   0.000000   0.000000   0.000001
    37  H    0.008552  -0.005329   0.006867   0.000504  -0.000094  -0.000325
    38  H    0.000024   0.000000  -0.000002  -0.000001   0.000000   0.000000
    39  H    0.353820  -0.020395   0.008164  -0.000064  -0.000104  -0.011721
    40  H    0.348541  -0.010314  -0.005552   0.000052  -0.000094   0.000935
    41  H   -0.015610  -0.035614   0.398146  -0.052835   0.007545   0.011826
    42  H   -0.000289   0.006806  -0.015811   0.387738  -0.043650   0.003720
    43  H   -0.011944  -0.015961   0.011023   0.002068  -0.043007   0.384985
    44  H    0.001045  -0.001809   0.000175   0.000006  -0.000006  -0.000032
    45  H   -0.000046   0.004765   0.000016  -0.000400  -0.000328   0.002043
    46  H    0.000000   0.000000   0.000000   0.000000   0.000000   0.000000
    47  H    0.000000   0.000000   0.000000   0.000000   0.000000   0.000000
    48  H    0.000000   0.000000   0.000000   0.000000   0.000000   0.000000
    49  H   -0.000032   0.000045   0.000613   0.000183  -0.000011  -0.000024
             19         20         21         22         23         24
     1  C    0.000000   0.000000   0.000000   0.000000   0.000000   0.000000
     2  S    0.000000   0.000000   0.000000   0.000000   0.000000   0.000000
     3  O    0.000000   0.000000   0.000000   0.000000   0.000000   0.000000
     4  O    0.000000   0.000000   0.000000   0.000000   0.000000   0.000000
     5  N    0.000000   0.000000   0.000000   0.000000   0.000000   0.000000
     6  C   -0.000061  -0.000024   0.000000   0.000000   0.000000   0.000000
     7  C    0.000249   0.000068   0.000001   0.000000   0.000000   0.000000
     8  C   -0.013002   0.001568   0.000562  -0.000024  -0.000001   0.000000
     9  C   -0.054058  -0.009145   0.006527  -0.000009   0.000001   0.000000
    10  C    0.003503  -0.000395  -0.000661   0.000002   0.000000   0.000000
    11  C    0.000372   0.000029   0.000004   0.000000   0.000000   0.000000
    12  N    0.374003  -0.067142  -0.072982   0.001525  -0.000023   0.000000
    13  C   -0.052720   0.002986   0.007842   0.000118   0.000023   0.000000
    14  C   -0.001433  -0.000238  -0.009322   0.000107   0.000001   0.000000
    15  C    0.000551  -0.000105  -0.001345  -0.000007   0.000000   0.000000
    16  C   -0.000170  -0.000002  -0.000037  -0.000001   0.000000   0.000000
    17  S   -0.000021   0.000000   0.000175   0.000000   0.000000   0.000000
    18  C    0.000085  -0.000007  -0.001833   0.000015   0.000000   0.000000
    19  C    4.626374   0.755677   0.291453  -0.040916  -0.000523  -0.000313
    20  O    0.755677   7.615871  -0.088676  -0.003325   0.000009   0.000010
    21  C    0.291453  -0.088676   4.787685   0.366530  -0.049170   0.006666
    22  N   -0.040916  -0.003325   0.366530   6.506989   0.291952  -0.113431
    23  N   -0.000523   0.000009  -0.049170   0.291952   6.548588   0.460228
    24  N   -0.000313   0.000010   0.006666  -0.113431   0.460228   6.429561
    25  C   -0.000901  -0.000924   0.010512  -0.005107  -0.126440   0.509195
    26  C    0.000023  -0.000021  -0.000459   0.007223   0.000551  -0.050783
    27  C   -0.000003   0.000015   0.000042   0.000525   0.000117   0.004317
    28  C    0.000068   0.000022  -0.000354   0.002451  -0.000121  -0.000691
    29  C    0.001899   0.004579  -0.005552  -0.059076   0.003374   0.011571
    30  C    0.001162   0.009484  -0.074669   0.321900  -0.090749  -0.072884
    31  H    0.000000   0.000000   0.000000   0.000000   0.000000   0.000000
    32  H    0.000000   0.000000   0.000000   0.000000   0.000000   0.000000
    33  H    0.000000   0.000000   0.000000   0.000000   0.000000   0.000000
    34  H    0.000000   0.000000   0.000000   0.000000   0.000000   0.000000
    35  H   -0.000002  -0.000011   0.000000   0.000000   0.000000   0.000000
    36  H   -0.000565   0.014315   0.000219  -0.000009   0.000001   0.000000
    37  H   -0.000891  -0.000007  -0.000025   0.000000   0.000000   0.000000
    38  H    0.000004   0.000000   0.000000   0.000000   0.000000   0.000000
    39  H   -0.013419   0.000251   0.010169   0.000389  -0.000223   0.000002
    40  H    0.005468  -0.000177  -0.000622  -0.000006   0.000000   0.000000
    41  H    0.001121   0.000107  -0.000031   0.000000   0.000000   0.000000
    42  H   -0.000001   0.000000  -0.000002   0.000000   0.000000   0.000000
    43  H   -0.000005   0.000000  -0.000110  -0.000002   0.000000   0.000000
    44  H   -0.006865   0.001232   0.334728  -0.023089   0.023785   0.000145
[...]
    46  H    0.000000   0.000000   0.000000   0.000000   0.000000   0.000000
    47  H    0.000000   0.000000   0.000000   0.000000   0.000000   0.000000
    48  H    0.000000   0.000000   0.000000   0.000000   0.000000   0.000000
    49  H   -0.000001   0.000000  -0.000005   0.000000   0.000117   0.000000
             43         44         45         46         47         48
     1  C    0.000000   0.000000   0.000000   0.000000   0.000000   0.000000
     2  S    0.000000   0.000000   0.000000   0.000000   0.000000   0.000000
     3  O    0.000000   0.000000   0.000000   0.000000   0.000000   0.000000
     4  O    0.000000   0.000000   0.000000   0.000000   0.000000   0.000000
     5  N    0.000000   0.000000   0.000000   0.000000   0.000000   0.000000
     6  C    0.000000   0.000000   0.000000   0.000000   0.000000   0.000000
     7  C    0.000000  -0.000003   0.000001   0.000000   0.000000   0.000000
     8  C    0.000000  -0.000043   0.000009   0.000000   0.000000   0.000000
     9  C   -0.000017   0.000026  -0.000516   0.000000   0.000000   0.000000
    10  C    0.000001   0.000008   0.000071   0.000000   0.000000   0.000000
    11  C    0.000000   0.000000   0.000000   0.000000   0.000000   0.000000
    12  N    0.000179  -0.001326  -0.000803   0.000000   0.000000   0.000000
    13  C   -0.011944   0.001045  -0.000046   0.000000   0.000000   0.000000
    14  C   -0.015961  -0.001809   0.004765   0.000000   0.000000   0.000000
    15  C    0.011023   0.000175   0.000016   0.000000   0.000000   0.000000
    16  C    0.002068   0.000006  -0.000400   0.000000   0.000000   0.000000
    17  S   -0.043007  -0.000006  -0.000328   0.000000   0.000000   0.000000
    18  C    0.384985  -0.000032   0.002043   0.000000   0.000000   0.000000
    19  C   -0.000005  -0.006865  -0.016066   0.000000   0.000000   0.000000
    20  O    0.000000   0.001232   0.000777   0.000000   0.000000  -0.000004
    21  C   -0.000110   0.334728   0.354635   0.000003  -0.000001  -0.000015
    22  N   -0.000002  -0.023089  -0.019802  -0.000011   0.000003  -0.000135
    23  N    0.000000   0.023785   0.001830  -0.000556   0.000008   0.000005
    24  N    0.000000   0.000145  -0.000344  -0.000945  -0.000096  -0.000008
    25  C    0.000000  -0.000670   0.000852  -0.041134   0.010765  -0.000727
    26  C    0.000000  -0.000021   0.000026   0.377102  -0.048256   0.010951
    27  C    0.000000   0.000003  -0.000018  -0.058520   0.389492  -0.050067
    28  C    0.000000   0.000016   0.000029   0.010109  -0.051014   0.386199
    29  C    0.000000   0.000326   0.001814  -0.001358   0.011342  -0.046784
    30  C    0.000000   0.010638  -0.000897   0.015942  -0.000922   0.010668
    31  H    0.000000   0.000000   0.000000   0.000000   0.000000   0.000000
    32  H    0.000000   0.000000   0.000000   0.000000   0.000000   0.000000
    33  H    0.000000   0.000000   0.000000   0.000000   0.000000   0.000000
    34  H    0.000000   0.000000   0.000000   0.000000   0.000000   0.000000
    35  H    0.000000   0.000000   0.000000   0.000000   0.000000   0.000000
    36  H    0.000000  -0.000076   0.000001   0.000000   0.000000   0.000000
    37  H   -0.000012  -0.000004   0.000014   0.000000   0.000000   0.000000
    38  H    0.000000   0.000000   0.000000   0.000000   0.000000   0.000000
    39  H    0.005243   0.001748  -0.004638   0.000000   0.000000   0.000000
    40  H    0.000569   0.000301   0.000579   0.000000   0.000000   0.000000
    41  H   -0.000138   0.000011  -0.000046   0.000000   0.000000   0.000000
    42  H   -0.000133   0.000000   0.000021   0.000000   0.000000   0.000000
    43  H    0.660225  -0.000031   0.000185   0.000000   0.000000   0.000000
    44  H   -0.000031   0.622685  -0.020418  -0.000002   0.000000  -0.000001
    45  H    0.000185  -0.020418   0.627501   0.000001   0.000000   0.000006
    46  H    0.000000  -0.000002   0.000001   0.737128  -0.015362  -0.000162
    47  H    0.000000   0.000000   0.000000  -0.015362   0.747023  -0.015814
    48  H    0.000000  -0.000001   0.000006  -0.000162  -0.015814   0.745777
    49  H    0.000000  -0.000031   0.000595   0.000059  -0.000219  -0.015033
             49
     1  C    0.000000
     2  S    0.000000
     3  O    0.000000
     4  O    0.000000
     5  N    0.000000
     6  C    0.000000
     7  C    0.000000
     8  C    0.000000
     9  C    0.000014
    10  C    0.000003
    11  C    0.000000
    12  N   -0.000038
    13  C   -0.000032
    14  C    0.000045
    15  C    0.000613
    16  C    0.000183
    17  S   -0.000011
    18  C   -0.000024
    19  C    0.000232
    20  O    0.002974
    21  C    0.002121
    22  N   -0.006232
    23  N   -0.000268
    24  N   -0.000233
    25  C    0.009550
    26  C   -0.000026
    27  C    0.008660
    28  C   -0.044179
    29  C    0.366275
    30  C   -0.029014
    31  H    0.000000
    32  H    0.000000
    33  H    0.000000
    34  H    0.000000
    35  H    0.000000
    36  H    0.000003
    37  H   -0.000001
    38  H    0.000000
    39  H   -0.000005
    40  H    0.000000
    41  H    0.000117
    42  H    0.000000
    43  H    0.000000
    44  H   -0.000031
    45  H    0.000595
    46  H    0.000059
    47  H   -0.000219
    48  H   -0.015033
    49  H    0.732926
 Mulliken atomic charges:
              1
     1  C   -0.107855
     2  S    0.841700
     3  O   -0.440259
     4  O   -0.455430
     5  N   -0.330533
     6  C   -0.006658
     7  C    0.082738
     8  C    0.073747
     9  C    0.115994
    10  C    0.005715
    11  C    0.095514
    12  N   -0.285835
    13  C    0.153467
    14  C   -0.041176
    15  C    0.044367
    16  C   -0.097067
    17  S    0.166574
    18  C   -0.145279
    19  C    0.139690
    20  O   -0.239771
    21  C    0.125992
    22  N   -0.228547
    23  N   -0.062398
    24  N   -0.181967
    25  C    0.010547
    26  C    0.044336
    27  C    0.037595
    28  C    0.039295
    29  C    0.031590
    30  C    0.212702
    31  H    0.076328
    32  H    0.081875
    33  H    0.074057
    34  H    0.126371
    35  H   -0.032049
    36  H   -0.008091
    37  H   -0.015131
    38  H   -0.030078
    39  H    0.027823
    40  H    0.052607
    41  H   -0.003976
    42  H    0.021615
    43  H    0.006883
    44  H    0.057549
    45  H    0.068553
    46  H   -0.022295
    47  H   -0.026947
    48  H   -0.024859
    49  H   -0.029021
 Sum of Mulliken atomic charges =   0.00000
 Mulliken charges with hydrogens summed into heavy atoms:
              1
     1  C    0.124406
     2  S    0.841700
     3  O   -0.440259
     4  O   -0.455430
     5  N   -0.204162
     6  C   -0.006658
     7  C    0.050689
     8  C    0.065656
     9  C    0.115994
    10  C   -0.009417
    11  C    0.065436
    12  N   -0.285835
    13  C    0.233896
    14  C   -0.041176
    15  C    0.040391
    16  C   -0.075452
    17  S    0.166574
    18  C   -0.138396
    19  C    0.139690
    20  O   -0.239771
    21  C    0.252093
    22  N   -0.228547
    23  N   -0.062398
    24  N   -0.181967
    25  C    0.010547
    26  C    0.022041
    27  C    0.010647
    28  C    0.014436
    29  C    0.002569
    30  C    0.212702
 Sum of Mulliken charges with hydrogens summed into heavy atoms =   0.00000
 Electronic spatial extent (au):  <R**2>=          18765.1083
 Charge=              0.0000 electrons
 Dipole moment (field-independent basis, Debye):
    X=              0.1675    Y=              2.8753    Z=              0.1747  Tot=              2.8855
 Quadrupole moment (field-independent basis, Debye-Ang):
   XX=           -224.2866   YY=           -172.2558   ZZ=           -184.4599
   XY=             18.6471   XZ=             22.3325   YZ=            -11.8674
 Traceless Quadrupole moment (field-independent basis, Debye-Ang):
   XX=            -30.6192   YY=             21.4116   ZZ=              9.2075
   XY=             18.6471   XZ=             22.3325   YZ=            -11.8674
 Octapole moment (field-independent basis, Debye-Ang**2):
  XXX=            100.3945  YYY=            -25.4456  ZZZ=             37.1578  XYY=            -60.0201
  XXY=            -33.3417  XXZ=             13.8584  XZZ=            -17.8328  YZZ=             19.9774
  YYZ=             22.4032  XYZ=            -29.0090
 Hexadecapole moment (field-independent basis, Debye-Ang**3):
 XXXX=         -19813.9882 YYYY=          -6016.9369 ZZZZ=          -1818.5491 XXXY=            237.9741
 XXXZ=            620.1090 YYYX=            229.5103 YYYZ=            -63.5228 ZZZX=             66.5036
 ZZZY=            -28.4306 XXYY=          -3381.4879 XXZZ=          -3305.5941 YYZZ=          -1212.8805
 XXYZ=           -366.1177 YYXZ=             12.5901 ZZXY=            114.4027
 N-N= 3.082386788171D+03 E-N=-1.101954958091D+04  KE= 2.059104143012D+03
 No NMR shielding tensors so no spin-rotation constants.
 Leave Link  601 at Sat Sep 10 08:18:20 2022, MaxMem=  209715200 cpu:       3.8
 (Enter /opt/gaussian/l602.exe)
 Breneman (CHELPG) radii used.
 Read replacement radii for each type of atom:
 Rad(35) =   1.900000000000D+00
 Atom Element Radius
    1     6    1.50
    2    16    2.00
    3     8    1.70
    4     8    1.70
    5     7    1.70
    6     6    1.50
    7     6    1.50
    8     6    1.50
    9     6    1.50
   10     6    1.50
   11     6    1.50
   12     7    1.70
   13     6    1.50
   14     6    1.50
   15     6    1.50
   16     6    1.50
   17    16    2.00
   18     6    1.50
   19     6    1.50
   20     8    1.70
   21     6    1.50
   22     7    1.70
   23     7    1.70
   24     7    1.70
   25     6    1.50
   26     6    1.50
   27     6    1.50
   28     6    1.50
   29     6    1.50
   30     6    1.50
   31     1    1.45
   32     1    1.45
   33     1    1.45
   34     1    1.45
   35     1    1.45
   36     1    1.45
   37     1    1.45
   38     1    1.45
   39     1    1.45
   40     1    1.45
   41     1    1.45
   42     1    1.45
   43     1    1.45
   44     1    1.45
   45     1    1.45
   46     1    1.45
   47     1    1.45
   48     1    1.45
   49     1    1.45
 Generate Potential Derived Charges using the Breneman model, NDens= 1.
 Grid spacing= 0.300 Box extension= 2.800
 NStep X,Y,Z=   66     50     40   Total possible points=      132000
 Number of Points to Fit=   27700

 **********************************************************************

            Electrostatic Properties Using The SCF Density

 **********************************************************************

       Atomic Center    1 is at  -5.676659 -2.752281  0.827790
       Atomic Center    2 is at  -5.991490 -0.981581  0.692070
       Atomic Center    3 is at  -5.243950 -0.300231  1.775320
       Atomic Center    4 is at  -7.442250 -0.752441  0.499040
       Atomic Center    5 is at  -5.291370 -0.635821 -0.866330
       Atomic Center    6 is at  -3.901330 -0.273081 -0.899480
       Atomic Center    7 is at  -2.971280 -1.219721 -1.345580
       Atomic Center    8 is at  -1.611560 -0.920501 -1.407180
       Atomic Center    9 is at  -1.151260  0.351340 -1.024110
       Atomic Center   10 is at  -2.086880  1.302969 -0.581310
       Atomic Center   11 is at  -3.444840  0.992599 -0.515340
       Atomic Center   12 is at   0.237150  0.699350 -1.115730
       Atomic Center   13 is at   0.587140  2.082600 -1.482860
       Atomic Center   14 is at   1.093700  2.948030 -0.345310
       Atomic Center   15 is at   0.713610  2.805410  1.032290
       Atomic Center   16 is at   1.289500  3.746140  1.845590
       Atomic Center   17 is at   2.308980  4.829940  0.952570
       Atomic Center   18 is at   1.960510  3.999570 -0.530780
       Atomic Center   19 is at   1.223820 -0.239650 -0.830350
       Atomic Center   20 is at   0.987391 -1.367930 -0.440110
       Atomic Center   21 is at   2.678320  0.229550 -1.030790
       Atomic Center   22 is at   3.619320 -0.849280 -0.871550
       Atomic Center   23 is at   4.284541 -1.318680 -1.972620
       Atomic Center   24 is at   5.090611 -2.259179 -1.619430
       Atomic Center   25 is at   4.977951 -2.441120 -0.254250
       Atomic Center   26 is at   5.643791 -3.327839  0.610540
       Atomic Center   27 is at   5.321541 -3.267959  1.958920
       Atomic Center   28 is at   4.354211 -2.351910  2.446330
       Atomic Center   29 is at   3.683151 -1.472560  1.606280
       Atomic Center   30 is at   4.018451 -1.533580  0.243640
       Atomic Center   31 is at  -4.591549 -2.914681  0.795080
       Atomic Center   32 is at  -6.082079 -3.059791  1.801130
       Atomic Center   33 is at  -6.192319 -3.256381  0.001900
       Atomic Center   34 is at  -5.909080  0.090089 -1.240350
       Atomic Center   35 is at  -3.328379 -2.198971 -1.669890
       Atomic Center   36 is at  -0.908889 -1.673400 -1.753430
       Atomic Center   37 is at  -1.762390  2.292509 -0.258430
       Atomic Center   38 is at  -4.151760  1.732949 -0.137970
       Atomic Center   39 is at   1.330230  2.070240 -2.294670
       Atomic Center   40 is at  -0.317430  2.524960 -1.921590
       Atomic Center   41 is at   0.047810  2.025800  1.402250
       Atomic Center   42 is at   1.175850  3.863920  2.921270
       Atomic Center   43 is at   2.415670  4.335620 -1.461030
       Atomic Center   44 is at   2.831020  0.608840 -2.050670
       Atomic Center   45 is at   2.912370  1.047360 -0.331110
       Atomic Center   46 is at   6.383121 -4.029139  0.220870
       Atomic Center   47 is at   5.815451 -3.939499  2.664130
       Atomic Center   48 is at   4.125641 -2.344500  3.514430
       Atomic Center   49 is at   2.924260 -0.787620  1.985130
   27700 points will be used for fitting atomic charges
 Fitting point charges to electrostatic potential
 Charges from ESP fit, RMS=   0.00383 RRMS=   0.21179:
 Charge=   0.00000 Dipole=     0.4365     3.0172     0.0454 Tot=     3.0489
              1
     1  C   -0.253770
     2  S    1.096804
     3  O   -0.532351
     4  O   -0.529978
     5  N   -0.707117
     6  C    0.296569
     7  C   -0.090241
     8  C   -0.221331
     9  C    0.214719
    10  C   -0.070343
    11  C   -0.220822
    12  N   -0.309504
    13  C   -0.001875
    14  C    0.155548
    15  C   -0.118954
    16  C   -0.193474
    17  S    0.048408
    18  C   -0.269612
    19  C    0.580187
    20  O   -0.493004
    21  C   -0.039882
    22  N    0.292461
    23  N   -0.216269
    24  N   -0.347076
    25  C    0.418819
    26  C   -0.260751
    27  C   -0.038632
    28  C   -0.120333
    29  C   -0.121182
    30  C   -0.085126
    31  H    0.110811
    32  H    0.107620
    33  H    0.105131
    34  H    0.348465
    35  H    0.102214
    36  H    0.151556
    37  H    0.081381
    38  H    0.144487
    39  H    0.092055
    40  H    0.021615
    41  H    0.094503
    42  H    0.178415
    43  H    0.177147
    44  H    0.006031
    45  H    0.008475
    46  H    0.126921
    47  H    0.082317
    48  H    0.099396
    49  H    0.099573
 Charges from ESP fit with hydrogens summed into heavy atoms:
              1
     1  C    0.069792
     2  S    1.096804
     3  O   -0.532351
     4  O   -0.529978
     5  N   -0.358652
     6  C    0.296569
     7  C    0.011973
     8  C   -0.069774
     9  C    0.214719
    10  C    0.011039
    11  C   -0.076335
    12  N   -0.309504
    13  C    0.111795
    14  C    0.155548
    15  C   -0.024451
    16  C   -0.015059
    17  S    0.048408
    18  C   -0.092466
    19  C    0.580187
    20  O   -0.493004
    21  C   -0.025376
    22  N    0.292461
    23  N   -0.216269
    24  N   -0.347076
    25  C    0.418819
    26  C   -0.133831
    27  C    0.043684
    28  C   -0.020937
    29  C   -0.021609
    30  C   -0.085126
    31  H    0.000000
    32  H    0.000000
    33  H    0.000000
    34  H    0.000000
    35  H    0.000000
    36  H    0.000000
    37  H    0.000000
    38  H    0.000000
    39  H    0.000000
    40  H    0.000000
    41  H    0.000000
    42  H    0.000000
    43  H    0.000000
    44  H    0.000000
    45  H    0.000000
    46  H    0.000000
    47  H    0.000000
    48  H    0.000000
    49  H    0.000000
 -----------------------------------------------------------------

              Electrostatic Properties (Atomic Units)

 -----------------------------------------------------------------
    Center     Electric         -------- Electric Field --------
               Potential          X             Y             Z
 -----------------------------------------------------------------
    1 Atom    -14.708065
    2 Atom    -58.981194
    3 Atom    -22.361978
    4 Atom    -22.362042
    5 Atom    -18.339510
    6 Atom    -14.702731
    7 Atom    -14.738312
    8 Atom    -14.740090
    9 Atom    -14.689202
   10 Atom    -14.734036
   11 Atom    -14.736252
   12 Atom    -18.306965
   13 Atom    -14.675488
   14 Atom    -14.722004
   15 Atom    -14.732255
   16 Atom    -14.712068
   17 Atom    -59.168420
   18 Atom    -14.712875
   19 Atom    -14.628750
   20 Atom    -22.356838
   21 Atom    -14.679856
   22 Atom    -18.291961
   23 Atom    -18.329609
   24 Atom    -18.368032
   25 Atom    -14.736380
   26 Atom    -14.747239
   27 Atom    -14.750660
   28 Atom    -14.745252
   29 Atom    -14.741212
   30 Atom    -14.713621
   31 Atom     -1.051231
   32 Atom     -1.050962
   33 Atom     -1.054053
   34 Atom     -0.995636
   35 Atom     -1.077992
   36 Atom     -1.084779
   37 Atom     -1.070497
   38 Atom     -1.076034
   39 Atom     -1.061840
   40 Atom     -1.060996
   41 Atom     -1.064227
   42 Atom     -1.049050
   43 Atom     -1.045517
   44 Atom     -1.051402
   45 Atom     -1.055279
   46 Atom     -1.088501
   47 Atom     -1.094503
   48 Atom     -1.091220
   49 Atom     -1.080910
 -----------------------------------------------------------------
 Leave Link  602 at Sat Sep 10 08:18:34 2022, MaxMem=  209715200 cpu:     102.6
 (Enter /opt/gaussian/l9999.exe)
 1\1\GINC-LQCAPF-6\SP\RB3LYP\CC-pVDZ\C20H19N5O3S2\LQCAPF-6\10-Sep-2022\
 0\\#p b3lyp/cc-pvdz pop=(chelpg,readradii)\\Mol12.log\\0,1\C,0,-5.6766
 6,-2.75228,0.82779\S,0,-5.99149,-0.98158,0.69207\O,0,-5.24395,-0.30023
 ,1.77532\O,0,-7.44225,-0.75244,0.49904\N,0,-5.29137,-0.63582,-0.86633\
 C,0,-3.90133,-0.27308,-0.89948\C,0,-2.97128,-1.21972,-1.34558\C,0,-1.6
 1156,-0.9205,-1.40718\C,0,-1.15126,0.35134,-1.02411\C,0,-2.08688,1.302
 97,-0.58131\C,0,-3.44484,0.9926,-0.51534\N,0,0.23715,0.69935,-1.11573\
 C,0,0.58714,2.0826,-1.48286\C,0,1.0937,2.94803,-0.34531\C,0,0.71361,2.
 80541,1.03229\C,0,1.2895,3.74614,1.84559\S,0,2.30898,4.82994,0.95257\C
 ,0,1.96051,3.99957,-0.53078\C,0,1.22382,-0.23965,-0.83035\O,0,0.98739,
 -1.36793,-0.44011\C,0,2.67832,0.22955,-1.03079\N,0,3.61932,-0.84928,-0
 .87155\N,0,4.28454,-1.31868,-1.97262\N,0,5.09061,-2.25918,-1.61943\C,0
 ,4.97795,-2.44112,-0.25425\C,0,5.64379,-3.32784,0.61054\C,0,5.32154,-3
 .26796,1.95892\C,0,4.35421,-2.35191,2.44633\C,0,3.68315,-1.47256,1.606
 28\C,0,4.01845,-1.53358,0.24364\H,0,-4.59155,-2.91468,0.79508\H,0,-6.0
 8208,-3.05979,1.80113\H,0,-6.19232,-3.25638,0.0019\H,0,-5.90908,0.0900
 9,-1.24035\H,0,-3.32838,-2.19897,-1.66989\H,0,-0.90889,-1.6734,-1.7534
 3\H,0,-1.76239,2.29251,-0.25843\H,0,-4.15176,1.73295,-0.13797\H,0,1.33
 023,2.07024,-2.29467\H,0,-0.31743,2.52496,-1.92159\H,0,0.04781,2.0258,
 1.40225\H,0,1.17585,3.86392,2.92127\H,0,2.41567,4.33562,-1.46103\H,0,2
 .83102,0.60884,-2.05067\H,0,2.91237,1.04736,-0.33111\H,0,6.38312,-4.02
 914,0.22087\H,0,5.81545,-3.9395,2.66413\H,0,4.12564,-2.3445,3.51443\H,
 0,2.92426,-0.78762,1.98513\\Version=EM64L-G09RevC.01\State=1-A\HF=-206
 9.365523\RMSD=9.494e-09\Dipole=0.0658968,1.1312341,0.0687214\Quadrupol
 e=-22.7645865,15.9190232,6.8455632,13.8636864,16.6036343,-8.8231176\PG
 =C01 [X(C20H19N5O3S2)]\\@


 SCIENCE IS LONG AND LIFE IS SHORT.

                     DON MOSER IN THE FEBRUARY 1979 SMITHSONIAN
 Job cpu time:  0 days  1 hours 26 minutes 10.3 seconds.
 File lengths (MBytes):  RWF=    152 Int=      0 D2E=      0 Chk=     11 Scr=      1
 Normal termination of Gaussian 09 at Sat Sep 10 08:18:34 2022.
