 Entering Gaussian System, Link 0=g09
 Input=Mol11.gjf
 Output=Mol11.log
 Initial command:
 /opt/gaussian/l1.exe /home/scr/lqcapf-6/Gau-546435.inp -scrdir=/home/scr/lqcapf-6/
 Entering Link 1 = /opt/gaussian/l1.exe PID=    546437.
  
 Copyright (c) 1988,1990,1992,1993,1995,1998,2003,2009,2011,
            Gaussian, Inc.  All Rights Reserved.
  
 This is part of the Gaussian(R) 09 program.  It is based on
 the Gaussian(R) 03 system (copyright 2003, Gaussian, Inc.),
 the Gaussian(R) 98 system (copyright 1998, Gaussian, Inc.),
 the Gaussian(R) 94 system (copyright 1995, Gaussian, Inc.),
 the Gaussian 92(TM) system (copyright 1992, Gaussian, Inc.),
 the Gaussian 90(TM) system (copyright 1990, Gaussian, Inc.),
 the Gaussian 88(TM) system (copyright 1988, Gaussian, Inc.),
 the Gaussian 86(TM) system (copyright 1986, Carnegie Mellon
 University), and the Gaussian 82(TM) system (copyright 1983,
 Carnegie Mellon University). Gaussian is a federally registered
 trademark of Gaussian, Inc.
  
 This software contains proprietary and confidential information,
 including trade secrets, belonging to Gaussian, Inc.
  
 This software is provided under written license and may be
 used, copied, transmitted, or stored only in accord with that
 written license.
  
 The following legend is applicable only to US Government
 contracts under FAR:
  
                    RESTRICTED RIGHTS LEGEND
  
 Use, reproduction and disclosure by the US Government is
 subject to restrictions as set forth in subparagraphs (a)
 and (c) of the Commercial Computer Software - Restricted
 Rights clause in FAR 52.227-19.
  
 Gaussian, Inc.
 340 Quinnipiac St., Bldg. 40, Wallingford CT 06492
  
  
 ---------------------------------------------------------------
 Warning -- This program may not be used in any manner that
 competes with the business of Gaussian, Inc. or will provide
 assistance to any competitor of Gaussian, Inc.  The licensee
 of this program is prohibited from giving any competitor of
 Gaussian, Inc. access to this program.  By using this program,
 the user acknowledges that Gaussian, Inc. is engaged in the
 business of creating and licensing software in the field of
 computational chemistry and represents and warrants to the
 licensee that it is not a competitor of Gaussian, Inc. and that
 it will not use this program in any manner prohibited above.
 ---------------------------------------------------------------
  

 Cite this work as:
 Gaussian 09, Revision C.01,
 M. J. Frisch, G. W. Trucks, H. B. Schlegel, G. E. Scuseria, 
 M. A. Robb, J. R. Cheeseman, G. Scalmani, V. Barone, B. Mennucci, 
 G. A. Petersson, H. Nakatsuji, M. Caricato, X. Li, H. P. Hratchian, 
 A. F. Izmaylov, J. Bloino, G. Zheng, J. L. Sonnenberg, M. Hada, 
 M. Ehara, K. Toyota, R. Fukuda, J. Hasegawa, M. Ishida, T. Nakajima, 
 Y. Honda, O. Kitao, H. Nakai, T. Vreven, J. A. Montgomery, Jr., 
 J. E. Peralta, F. Ogliaro, M. Bearpark, J. J. Heyd, E. Brothers, 
 K. N. Kudin, V. N. Staroverov, T. Keith, R. Kobayashi, J. Normand, 
 K. Raghavachari, A. Rendell, J. C. Burant, S. S. Iyengar, J. Tomasi, 
 M. Cossi, N. Rega, J. M. Millam, M. Klene, J. E. Knox, J. B. Cross, 
 V. Bakken, C. Adamo, J. Jaramillo, R. Gomperts, R. E. Stratmann, 
 O. Yazyev, A. J. Austin, R. Cammi, C. Pomelli, J. W. Ochterski, 
 R. L. Martin, K. Morokuma, V. G. Zakrzewski, G. A. Voth, 
 P. Salvador, J. J. Dannenberg, S. Dapprich, A. D. Daniels, 
 O. Farkas, J. B. Foresman, J. V. Ortiz, J. Cioslowski, 
 and D. J. Fox, Gaussian, Inc., Wallingford CT, 2010.
 
 ******************************************
 Gaussian 09:  EM64L-G09RevC.01 23-Sep-2011
                10-Sep-2022 
 ******************************************
 %nprocshared=8
 Will use up to    8 processors via shared memory.
 %mem=1600MB
 ---------------------------------------
 #p b3lyp/cc-pvdz pop=(chelpg,readradii)
 ---------------------------------------
 1/38=1/1;
 2/12=2,17=6,18=5,40=1/2;
 3/5=16,11=2,16=1,25=1,30=1,74=-5/1,2,3;
 4//1;
 5/5=2,38=5/2;
 6/7=2,8=2,9=2,10=2,15=8,20=103,28=1/1,2;
 99/5=1,9=1/99;
 Leave Link    1 at Sat Sep 10 07:54:44 2022, MaxMem=  209715200 cpu:       0.2
 (Enter /opt/gaussian/l101.exe)
 ---------
 Mol11.log
 ---------
 Charge =  0 Multiplicity = 1
 Symbolic Z-Matrix:
 O                     1.29428  -1.49309  -0.15337 
 C                     1.38226  -0.43191  -0.74094 
 C                     2.75852   0.11396  -1.17451 
 N                     3.82208  -0.81077  -0.87924 
 N                     4.44337  -1.46194  -1.91129 
 N                     5.36961  -2.22439  -1.4432 
 C                     5.38551  -2.09796  -0.06717 
 C                     6.20795  -2.70317   0.89942 
 C                     5.9897   -2.36412   2.22732 
 C                     4.97379  -1.44582   2.59656 
 C                     4.14937  -0.84186   1.65564 
 C                     4.37819  -1.18531   0.31308 
 N                     0.28498   0.3621   -1.06224 
 C                     0.45828   1.69079  -1.66437 
 C                     0.83873   2.80217  -0.70725 
 C                     1.24059   4.10442  -1.16016 
 C                     1.52642   4.9646   -0.13423 
 S                     1.3157    4.20652   1.41387 
 C                     0.83464   2.71423   0.66396 
 C                    -1.04849  -0.0846   -0.78051 
 C                    -2.02087   0.83977  -0.36535 
 C                    -3.33452   0.42926  -0.13183 
 C                    -3.70778  -0.91106  -0.29811 
 C                    -2.73522  -1.82434  -0.7325 
 C                    -1.42204  -1.42836  -0.96462 
 C                    -5.1043   -1.42608  -0.08113 
 O                    -5.48618  -2.48313  -0.56528 
 N                    -5.92995  -0.62869   0.68581 
 C                    -7.23821  -1.09342   1.05969 
 C                    -8.38601  -0.85751   0.11248 
 C                    -8.27539  -0.04875   1.38604 
 H                     2.78919   0.26376  -2.26299 
 H                     2.95411   1.08479  -0.69223 
 H                     6.98381  -3.40964   0.60078 
 H                     6.60615  -2.81224   3.00921 
 H                     4.83218  -1.21269   3.65426 
 H                     3.35842  -0.15163   1.95029 
 H                     1.20766   1.63161  -2.46892 
 H                    -0.48675   1.94114  -2.1685 
 H                     1.31422   4.38392  -2.21246 
 H                     1.85473   6.0002   -0.19601 
 H                     0.56947   1.85575   1.27763 
 H                    -1.75748   1.88724  -0.21444 
 H                    -4.07243   1.17911   0.16081 
 H                    -3.03791  -2.85978  -0.89351 
 H                    -0.68465  -2.15912  -1.28738 
 H                    -5.47717   0.01207   1.32921 
 H                    -7.25527  -2.03004   1.62785 
 H                    -8.15337  -0.35426  -0.8276 
 H                    -9.15328  -1.63139   0.04716 
 H                    -8.968    -0.25538   2.20445 
 H                    -7.97702   0.99845   1.29181 
 
 NAtoms=     52 NQM=        0 NQMF=       0 NMMI=     52 NMMIF=      0
                NMic=       0 NMicF=      0.
                    Isotopes and Nuclear Properties:
 (Nuclear quadrupole moments (NQMom) in fm**2, nuclear magnetic moments (NMagM)
  in nuclear magnetons)

  Atom         1           2           3           4           5           6           7           8           9          10
 IAtWgt=          16          12          12          14          14          14          12          12          12          12
 AtmWgt=  15.9949146  12.0000000  12.0000000  14.0030740  14.0030740  14.0030740  12.0000000  12.0000000  12.0000000  12.0000000
 NucSpn=           0           0           0           2           2           2           0           0           0           0
 AtZEff=   0.0000000   0.0000000   0.0000000   0.0000000   0.0000000   0.0000000   0.0000000   0.0000000   0.0000000   0.0000000
 NQMom=    0.0000000   0.0000000   0.0000000   2.0440000   2.0440000   2.0440000   0.0000000   0.0000000   0.0000000   0.0000000
 NMagM=    0.0000000   0.0000000   0.0000000   0.4037610   0.4037610   0.4037610   0.0000000   0.0000000   0.0000000   0.0000000

  Atom        11          12          13          14          15          16          17          18          19          20
 IAtWgt=          12          12          14          12          12          12          12          32          12          12
 AtmWgt=  12.0000000  12.0000000  14.0030740  12.0000000  12.0000000  12.0000000  12.0000000  31.9720718  12.0000000  12.0000000
 NucSpn=           0           0           2           0           0           0           0           0           0           0
 AtZEff=   0.0000000   0.0000000   0.0000000   0.0000000   0.0000000   0.0000000   0.0000000   0.0000000   0.0000000   0.0000000
 NQMom=    0.0000000   0.0000000   2.0440000   0.0000000   0.0000000   0.0000000   0.0000000   0.0000000   0.0000000   0.0000000
 NMagM=    0.0000000   0.0000000   0.4037610   0.0000000   0.0000000   0.0000000   0.0000000   0.0000000   0.0000000   0.0000000

  Atom        21          22          23          24          25          26          27          28          29          30
 IAtWgt=          12          12          12          12          12          12          16          14          12          12
 AtmWgt=  12.0000000  12.0000000  12.0000000  12.0000000  12.0000000  12.0000000  15.9949146  14.0030740  12.0000000  12.0000000
 NucSpn=           0           0           0           0           0           0           0           2           0           0
 AtZEff=   0.0000000   0.0000000   0.0000000   0.0000000   0.0000000   0.0000000   0.0000000   0.0000000   0.0000000   0.0000000
 NQMom=    0.0000000   0.0000000   0.0000000   0.0000000   0.0000000   0.0000000   0.0000000   2.0440000   0.0000000   0.0000000
 NMagM=    0.0000000   0.0000000   0.0000000   0.0000000   0.0000000   0.0000000   0.0000000   0.4037610   0.0000000   0.0000000

  Atom        31          32          33          34          35          36          37          38          39          40
 IAtWgt=          12           1           1           1           1           1           1           1           1           1
 AtmWgt=  12.0000000   1.0078250   1.0078250   1.0078250   1.0078250   1.0078250   1.0078250   1.0078250   1.0078250   1.0078250
 NucSpn=           0           1           1           1           1           1           1           1           1           1
 AtZEff=   0.0000000   0.0000000   0.0000000   0.0000000   0.0000000   0.0000000   0.0000000   0.0000000   0.0000000   0.0000000
 NQMom=    0.0000000   0.0000000   0.0000000   0.0000000   0.0000000   0.0000000   0.0000000   0.0000000   0.0000000   0.0000000
 NMagM=    0.0000000   2.7928460   2.7928460   2.7928460   2.7928460   2.7928460   2.7928460   2.7928460   2.7928460   2.7928460

  Atom        41          42          43          44          45          46          47          48          49          50
 IAtWgt=           1           1           1           1           1           1           1           1           1           1
 AtmWgt=   1.0078250   1.0078250   1.0078250   1.0078250   1.0078250   1.0078250   1.0078250   1.0078250   1.0078250   1.0078250
 NucSpn=           1           1           1           1           1           1           1           1           1           1
 AtZEff=   0.0000000   0.0000000   0.0000000   0.0000000   0.0000000   0.0000000   0.0000000   0.0000000   0.0000000   0.0000000
 NQMom=    0.0000000   0.0000000   0.0000000   0.0000000   0.0000000   0.0000000   0.0000000   0.0000000   0.0000000   0.0000000
 NMagM=    2.7928460   2.7928460   2.7928460   2.7928460   2.7928460   2.7928460   2.7928460   2.7928460   2.7928460   2.7928460

  Atom        51          52
 IAtWgt=           1           1
 AtmWgt=   1.0078250   1.0078250
 NucSpn=           1           1
 AtZEff=   0.0000000   0.0000000
 NQMom=    0.0000000   0.0000000
 NMagM=    2.7928460   2.7928460
 Leave Link  101 at Sat Sep 10 07:54:44 2022, MaxMem=  209715200 cpu:       0.7
 (Enter /opt/gaussian/l202.exe)
 Stoichiometry    C23H21N5O2S
 Framework group  C1[X(C23H21N5O2S)]
 Deg. of freedom   150
 Full point group                 C1      NOp   1
 Largest Abelian subgroup         C1      NOp   1
 Largest concise Abelian subgroup C1      NOp   1
                         Standard orientation:                         
 ---------------------------------------------------------------------
 Center     Atomic      Atomic             Coordinates (Angstroms)
 Number     Number       Type             X           Y           Z
 ---------------------------------------------------------------------
      1          8           0        1.294280   -1.493091   -0.153370
      2          6           0        1.382260   -0.431911   -0.740940
      3          6           0        2.758520    0.113959   -1.174510
      4          7           0        3.822080   -0.810771   -0.879240
      5          7           0        4.443370   -1.461941   -1.911290
      6          7           0        5.369610   -2.224391   -1.443200
      7          6           0        5.385510   -2.097961   -0.067170
      8          6           0        6.207950   -2.703171    0.899420
      9          6           0        5.989700   -2.364121    2.227320
     10          6           0        4.973790   -1.445821    2.596560
     11          6           0        4.149370   -0.841861    1.655640
     12          6           0        4.378190   -1.185311    0.313080
     13          7           0        0.284980    0.362099   -1.062240
     14          6           0        0.458280    1.690789   -1.664370
     15          6           0        0.838730    2.802169   -0.707250
     16          6           0        1.240590    4.104419   -1.160160
     17          6           0        1.526420    4.964599   -0.134230
     18         16           0        1.315700    4.206519    1.413870
     19          6           0        0.834640    2.714229    0.663960
     20          6           0       -1.048490   -0.084601   -0.780510
     21          6           0       -2.020870    0.839769   -0.365350
     22          6           0       -3.334520    0.429259   -0.131830
     23          6           0       -3.707780   -0.911061   -0.298110
     24          6           0       -2.735220   -1.824341   -0.732500
     25          6           0       -1.422040   -1.428361   -0.964620
     26          6           0       -5.104300   -1.426081   -0.081130
     27          8           0       -5.486180   -2.483131   -0.565280
     28          7           0       -5.929950   -0.628691    0.685810
     29          6           0       -7.238210   -1.093421    1.059690
     30          6           0       -8.386010   -0.857510    0.112480
     31          6           0       -8.275390   -0.048750    1.386040
     32          1           0        2.789190    0.263759   -2.262990
     33          1           0        2.954110    1.084789   -0.692230
     34          1           0        6.983810   -3.409641    0.600780
     35          1           0        6.606150   -2.812241    3.009210
     36          1           0        4.832180   -1.212691    3.654260
     37          1           0        3.358420   -0.151631    1.950290
     38          1           0        1.207660    1.631609   -2.468920
     39          1           0       -0.486750    1.941139   -2.168500
     40          1           0        1.314220    4.383919   -2.212460
     41          1           0        1.854730    6.000199   -0.196010
     42          1           0        0.569470    1.855749    1.277630
     43          1           0       -1.757480    1.887239   -0.214440
     44          1           0       -4.072430    1.179109    0.160810
     45          1           0       -3.037910   -2.859781   -0.893510
     46          1           0       -0.684650   -2.159121   -1.287380
     47          1           0       -5.477170    0.012069    1.329210
     48          1           0       -7.255270   -2.030041    1.627850
     49          1           0       -8.153370   -0.354260   -0.827600
     50          1           0       -9.153280   -1.631390    0.047160
     51          1           0       -8.968000   -0.255380    2.204450
     52          1           0       -7.977020    0.998449    1.291810
 ---------------------------------------------------------------------
 Rotational constants (GHZ):      0.1930585      0.0607613      0.0516930
 Leave Link  202 at Sat Sep 10 07:54:44 2022, MaxMem=  209715200 cpu:       0.0
 (Enter /opt/gaussian/l301.exe)
 Standard basis: CC-pVDZ (5D, 7F)
 Ernie: Thresh=  0.10000D-02 Tol=  0.10000D-05 Strict=F.
 Ernie:  70 primitive shells out of 815 were deleted.
 There are   543 symmetry adapted basis functions of A   symmetry.
 Integral buffers will be    131072 words long.
 Raffenetti 2 integral format.
 Two-electron integral symmetry is turned on.
   543 basis functions,  1208 primitive gaussians,   574 cartesian basis functions
   113 alpha electrons      113 beta electrons
       nuclear repulsion energy      2944.2608884956 Hartrees.
 IExCor=  402 DFT=T Ex+Corr=B3LYP ExCW=0 ScaHFX=  0.200000
 ScaDFX=  0.800000  0.720000  1.000000  0.810000 ScalE2=  1.000000  1.000000
 IRadAn=      0 IRanWt=     -1 IRanGd=            0 ICorTp=0
 NAtoms=   52 NActive=   52 NUniq=   52 SFac= 1.00D+00 NAtFMM=   60 NAOKFM=F Big=F
 Leave Link  301 at Sat Sep 10 07:54:44 2022, MaxMem=  209715200 cpu:       0.3
 (Enter /opt/gaussian/l302.exe)
 NPDir=0 NMtPBC=     1 NCelOv=     1 NCel=       1 NClECP=     1 NCelD=      1
         NCelK=      1 NCelE2=     1 NClLst=     1 CellRange=     0.0.
 One-electron integrals computed using PRISM.
 NBasis=   543 RedAO= T  NBF=   543
 NBsUse=   543 1.00D-06 NBFU=   543
 Precomputing XC quadrature grid using
 IXCGrd= 2 IRadAn=           0 IRanWt=          -1 IRanGd=           0 AccXCQ= 0.00D+00.
 NRdTot=    3367 NPtTot=      430638 NUsed=      454896 NTot=      454928
 NSgBfM=   546   547   550   550   550 NAtAll=    52    52.
 Leave Link  302 at Sat Sep 10 07:54:45 2022, MaxMem=  209715200 cpu:       8.2
 (Enter /opt/gaussian/l303.exe)
 DipDrv:  MaxL=1.
 Leave Link  303 at Sat Sep 10 07:54:45 2022, MaxMem=  209715200 cpu:       1.1
 (Enter /opt/gaussian/l401.exe)
 Harris functional with IExCor=  402 diagonalized for initial guess.
 ExpMin= 1.22D-01 ExpMax= 1.11D+05 ExpMxC= 1.07D+03 IAcc=2 IRadAn=         4 AccDes= 0.00D+00
 HarFok:  IExCor=  402 AccDes= 0.00D+00 IRadAn=         4 IDoV= 1
 ScaDFX=  1.000000  1.000000  1.000000  1.000000
 FoFCou: FMM=F IPFlag=           0 FMFlag=      100000 FMFlg1=           0
         NFxFlg=           0 DoJE=T BraDBF=F KetDBF=T FulRan=T
         Omega=  0.000000  0.000000  1.000000  0.000000  0.000000 ICntrl=     500 IOpCl=  0
         NMat0=    1 NMatS0=    1 NMatT0=    0 NMatD0=    1 NMtDS0=    0 NMtDT0=    0
         I1Cent=           4 NGrid=           0.
 Petite list used in FoFCou.
 Harris En= -1711.33048473006    
 Initial guess orbital symmetries:
       Occupied  (A) (A) (A) (A) (A) (A) (A) (A) (A) (A) (A) (A)
                 (A) (A) (A) (A) (A) (A) (A) (A) (A) (A) (A) (A)
                 (A) (A) (A) (A) (A) (A) (A) (A) (A) (A) (A) (A)
                 (A) (A) (A) (A) (A) (A) (A) (A) (A) (A) (A) (A)
                 (A) (A) (A) (A) (A) (A) (A) (A) (A) (A) (A) (A)
                 (A) (A) (A) (A) (A) (A) (A) (A) (A) (A) (A) (A)
                 (A) (A) (A) (A) (A) (A) (A) (A) (A) (A) (A) (A)
                 (A) (A) (A) (A) (A) (A) (A) (A) (A) (A) (A) (A)
                 (A) (A) (A) (A) (A) (A) (A) (A) (A) (A) (A) (A)
                 (A) (A) (A) (A) (A)
       Virtual   (A) (A) (A) (A) (A) (A) (A) (A) (A) (A) (A) (A)
                 (A) (A) (A) (A) (A) (A) (A) (A) (A) (A) (A) (A)
                 (A) (A) (A) (A) (A) (A) (A) (A) (A) (A) (A) (A)
                 (A) (A) (A) (A) (A) (A) (A) (A) (A) (A) (A) (A)
                 (A) (A) (A) (A) (A) (A) (A) (A) (A) (A) (A) (A)
                 (A) (A) (A) (A) (A) (A) (A) (A) (A) (A) (A) (A)
                 (A) (A) (A) (A) (A) (A) (A) (A) (A) (A) (A) (A)
                 (A) (A) (A) (A) (A) (A) (A) (A) (A) (A) (A) (A)
                 (A) (A) (A) (A) (A) (A) (A) (A) (A) (A) (A) (A)
                 (A) (A) (A) (A) (A) (A) (A) (A) (A) (A) (A) (A)
                 (A) (A) (A) (A) (A) (A) (A) (A) (A) (A) (A) (A)
                 (A) (A) (A) (A) (A) (A) (A) (A) (A) (A) (A) (A)
                 (A) (A) (A) (A) (A) (A) (A) (A) (A) (A) (A) (A)
                 (A) (A) (A) (A) (A) (A) (A) (A) (A) (A) (A) (A)
                 (A) (A) (A) (A) (A) (A) (A) (A) (A) (A) (A) (A)
                 (A) (A) (A) (A) (A) (A) (A) (A) (A) (A) (A) (A)
                 (A) (A) (A) (A) (A) (A) (A) (A) (A) (A) (A) (A)
                 (A) (A) (A) (A) (A) (A) (A) (A) (A) (A) (A) (A)
                 (A) (A) (A) (A) (A) (A) (A) (A) (A) (A) (A) (A)
                 (A) (A) (A) (A) (A) (A) (A) (A) (A) (A) (A) (A)
                 (A) (A) (A) (A) (A) (A) (A) (A) (A) (A) (A) (A)
                 (A) (A) (A) (A) (A) (A) (A) (A) (A) (A) (A) (A)
                 (A) (A) (A) (A) (A) (A) (A) (A) (A) (A) (A) (A)
                 (A) (A) (A) (A) (A) (A) (A) (A) (A) (A) (A) (A)
                 (A) (A) (A) (A) (A) (A) (A) (A) (A) (A) (A) (A)
                 (A) (A) (A) (A) (A) (A) (A) (A) (A) (A) (A) (A)
                 (A) (A) (A) (A) (A) (A) (A) (A) (A) (A) (A) (A)
                 (A) (A) (A) (A) (A) (A) (A) (A) (A) (A) (A) (A)
                 (A) (A) (A) (A) (A) (A) (A) (A) (A) (A) (A) (A)
                 (A) (A) (A) (A) (A) (A) (A) (A) (A) (A) (A) (A)
                 (A) (A) (A) (A) (A) (A) (A) (A) (A) (A) (A) (A)
                 (A) (A) (A) (A) (A) (A) (A) (A) (A) (A) (A) (A)
                 (A) (A) (A) (A) (A) (A) (A) (A) (A) (A) (A) (A)
                 (A) (A) (A) (A) (A) (A) (A) (A) (A) (A) (A) (A)
                 (A) (A) (A) (A) (A) (A) (A) (A) (A) (A) (A) (A)
                 (A) (A) (A) (A) (A) (A) (A) (A) (A) (A)
 The electronic state of the initial guess is 1-A.
 Leave Link  401 at Sat Sep 10 07:54:48 2022, MaxMem=  209715200 cpu:      24.7
 (Enter /opt/gaussian/l502.exe)
 Closed shell SCF:
 Requested convergence on RMS density matrix=1.00D-08 within 128 cycles.
 Requested convergence on MAX density matrix=1.00D-06.
 Requested convergence on             energy=1.00D-06.
 No special actions if energy rises.
 Using DIIS extrapolation, IDIIS=  1040.
 Integral symmetry usage will be decided dynamically.
       454415 words used for storage of precomputed grid.
 IEnd=     1469923 IEndB=     1469923 NGot=   209715200 MDV=   208591968
 LenX=   208591968 LenY=   208261918
 Fock matrices will be formed incrementally for  20 cycles.
 Integral accuracy reduced to 1.0D-05 until final iterations.

 Cycle   1  Pass 0  IDiag  1:
 FoFCou: FMM=F IPFlag=           0 FMFlag=      100000 FMFlg1=           0
         NFxFlg=           0 DoJE=F BraDBF=F KetDBF=F FulRan=T
         Omega=  0.000000  0.000000  1.000000  0.000000  0.000000 ICntrl=       0 IOpCl=  0
         NMat0=    1 NMatS0=    1 NMatT0=    0 NMatD0=    1 NMtDS0=    0 NMtDT0=    0
         I1Cent=           0 NGrid=           0.
 Symmetry not used in FoFCou.
 E= -1710.80432530992    
 DIIS: error= 2.14D-02 at cycle   1 NSaved=   1.
 NSaved= 1 IEnMin= 1 EnMin= -1710.80432530992     IErMin= 1 ErrMin= 2.14D-02
 ErrMax= 2.14D-02 EMaxC= 1.00D-01 BMatC= 6.86D-01 BMatP= 6.86D-01
 IDIUse=3 WtCom= 7.86D-01 WtEn= 2.14D-01
 Coeff-Com:  0.100D+01
 Coeff-En:   0.100D+01
 Coeff:      0.100D+01
 Gap=     0.286 Goal=   None    Shift=    0.000
 GapD=    0.286 DampG=1.000 DampE=0.500 DampFc=0.5000 IDamp=-1.
 Damping current iteration by 5.00D-01
 RMSDP=4.42D-03 MaxDP=2.02D-01              OVMax= 3.02D-01

 Cycle   2  Pass 0  IDiag  1:
 RMSU=  1.55D-03    CP:  9.83D-01
 E= -1710.95672162640     Delta-E=       -0.152396316487 Rises=F Damp=T
 DIIS: error= 9.07D-03 at cycle   2 NSaved=   2.
 NSaved= 2 IEnMin= 2 EnMin= -1710.95672162640     IErMin= 2 ErrMin= 9.07D-03
 ErrMax= 9.07D-03 EMaxC= 1.00D-01 BMatC= 1.45D-01 BMatP= 6.86D-01
 IDIUse=3 WtCom= 9.09D-01 WtEn= 9.07D-02
 Coeff-Com:  0.265D+00 0.735D+00
 Coeff-En:   0.394D+00 0.606D+00
 Coeff:      0.277D+00 0.723D+00
 Gap=     0.274 Goal=   None    Shift=    0.000
 RMSDP=1.44D-03 MaxDP=6.81D-02 DE=-1.52D-01 OVMax= 3.05D-01

 Cycle   3  Pass 0  IDiag  1:
 RMSU=  9.09D-04    CP:  9.70D-01  7.16D-01
 E= -1711.43774690212     Delta-E=       -0.481025275716 Rises=F Damp=F
 DIIS: error= 8.70D-03 at cycle   3 NSaved=   3.
 NSaved= 3 IEnMin= 3 EnMin= -1711.43774690212     IErMin= 3 ErrMin= 8.70D-03
 ErrMax= 8.70D-03 EMaxC= 1.00D-01 BMatC= 9.98D-02 BMatP= 1.45D-01
 IDIUse=3 WtCom= 9.13D-01 WtEn= 8.70D-02
 Coeff-Com:  0.983D-01 0.447D+00 0.455D+00
 Coeff-En:   0.000D+00 0.000D+00 0.100D+01
 Coeff:      0.897D-01 0.408D+00 0.502D+00
 Gap=     0.201 Goal=   None    Shift=    0.000
 RMSDP=7.55D-04 MaxDP=4.81D-02 DE=-4.81D-01 OVMax= 7.57D-02

 Cycle   4  Pass 0  IDiag  1:
 RMSU=  3.96D-04    CP:  9.74D-01  8.01D-01  6.36D-01
 E= -1711.51298084266     Delta-E=       -0.075233940543 Rises=F Damp=F
 DIIS: error= 3.52D-03 at cycle   4 NSaved=   4.
 NSaved= 4 IEnMin= 4 EnMin= -1711.51298084266     IErMin= 4 ErrMin= 3.52D-03
 ErrMax= 3.52D-03 EMaxC= 1.00D-01 BMatC= 1.88D-02 BMatP= 9.98D-02
 IDIUse=3 WtCom= 9.65D-01 WtEn= 3.52D-02
 Coeff-Com:  0.235D-01 0.125D+00 0.315D+00 0.537D+00
 Coeff-En:   0.000D+00 0.000D+00 0.181D+00 0.819D+00
 Coeff:      0.226D-01 0.120D+00 0.310D+00 0.547D+00
 Gap=     0.184 Goal=   None    Shift=    0.000
 RMSDP=3.21D-04 MaxDP=2.06D-02 DE=-7.52D-02 OVMax= 3.17D-02

 Cycle   5  Pass 0  IDiag  1:
 RMSU=  1.39D-04    CP:  9.73D-01  7.75D-01  7.04D-01  5.87D-01
 E= -1711.52800610012     Delta-E=       -0.015025257456 Rises=F Damp=F
 DIIS: error= 2.31D-03 at cycle   5 NSaved=   5.
 NSaved= 5 IEnMin= 5 EnMin= -1711.52800610012     IErMin= 5 ErrMin= 2.31D-03
 ErrMax= 2.31D-03 EMaxC= 1.00D-01 BMatC= 2.06D-03 BMatP= 1.88D-02
 IDIUse=3 WtCom= 9.77D-01 WtEn= 2.31D-02
 Coeff-Com:  0.446D-02 0.235D-01 0.138D+00 0.345D+00 0.488D+00
 Coeff-En:   0.000D+00 0.000D+00 0.000D+00 0.896D-01 0.910D+00
 Coeff:      0.436D-02 0.230D-01 0.135D+00 0.339D+00 0.498D+00
 Gap=     0.185 Goal=   None    Shift=    0.000
 RMSDP=1.19D-04 MaxDP=7.50D-03 DE=-1.50D-02 OVMax= 1.86D-02

 Cycle   6  Pass 0  IDiag  1:
 RMSU=  3.66D-05    CP:  9.73D-01  7.74D-01  7.19D-01  6.72D-01  5.23D-01
 E= -1711.53009511884     Delta-E=       -0.002089018716 Rises=F Damp=F
 DIIS: error= 7.25D-04 at cycle   6 NSaved=   6.
 NSaved= 6 IEnMin= 6 EnMin= -1711.53009511884     IErMin= 6 ErrMin= 7.25D-04
 ErrMax= 7.25D-04 EMaxC= 1.00D-01 BMatC= 2.17D-04 BMatP= 2.06D-03
 IDIUse=3 WtCom= 9.93D-01 WtEn= 7.25D-03
 Coeff-Com:  0.743D-04-0.275D-02 0.422D-01 0.136D+00 0.300D+00 0.525D+00
 Coeff-En:   0.000D+00 0.000D+00 0.000D+00 0.000D+00 0.593D-01 0.941D+00
 Coeff:      0.738D-04-0.273D-02 0.419D-01 0.135D+00 0.298D+00 0.528D+00
 Gap=     0.185 Goal=   None    Shift=    0.000
 RMSDP=3.21D-05 MaxDP=2.39D-03 DE=-2.09D-03 OVMax= 4.37D-03

 Cycle   7  Pass 0  IDiag  1:
 RMSU=  1.44D-05    CP:  9.73D-01  7.75D-01  7.20D-01  6.65D-01  5.85D-01
                    CP:  5.94D-01
 E= -1711.53030633667     Delta-E=       -0.000211217831 Rises=F Damp=F
 DIIS: error= 1.61D-04 at cycle   7 NSaved=   7.
 NSaved= 7 IEnMin= 7 EnMin= -1711.53030633667     IErMin= 7 ErrMin= 1.61D-04
 ErrMax= 1.61D-04 EMaxC= 1.00D-01 BMatC= 2.20D-05 BMatP= 2.17D-04
 IDIUse=3 WtCom= 9.98D-01 WtEn= 1.61D-03
 Coeff-Com: -0.134D-03-0.365D-02 0.122D-01 0.460D-01 0.127D+00 0.314D+00
 Coeff-Com:  0.504D+00
 Coeff-En:   0.000D+00 0.000D+00 0.000D+00 0.000D+00 0.000D+00 0.290D-01
 Coeff-En:   0.971D+00
 Coeff:     -0.134D-03-0.364D-02 0.121D-01 0.459D-01 0.127D+00 0.313D+00
 Coeff:      0.505D+00
 Gap=     0.185 Goal=   None    Shift=    0.000
 RMSDP=1.06D-05 MaxDP=6.93D-04 DE=-2.11D-04 OVMax= 1.10D-03

 Cycle   8  Pass 0  IDiag  1:
 RMSU=  4.33D-06    CP:  9.73D-01  7.75D-01  7.20D-01  6.67D-01  5.89D-01
                    CP:  6.53D-01  6.10D-01
 E= -1711.53032672028     Delta-E=       -0.000020383614 Rises=F Damp=F
 DIIS: error= 5.72D-05 at cycle   8 NSaved=   8.
 NSaved= 8 IEnMin= 8 EnMin= -1711.53032672028     IErMin= 8 ErrMin= 5.72D-05
 ErrMax= 5.72D-05 EMaxC= 1.00D-01 BMatC= 2.89D-06 BMatP= 2.20D-05
 IDIUse=1 WtCom= 1.00D+00 WtEn= 0.00D+00
 Coeff-Com: -0.282D-04-0.229D-02 0.437D-02 0.180D-01 0.566D-01 0.158D+00
 Coeff-Com:  0.324D+00 0.441D+00
 Coeff:     -0.282D-04-0.229D-02 0.437D-02 0.180D-01 0.566D-01 0.158D+00
 Coeff:      0.324D+00 0.441D+00
 Gap=     0.185 Goal=   None    Shift=    0.000
 RMSDP=3.50D-06 MaxDP=2.58D-04 DE=-2.04D-05 OVMax= 3.47D-04

 Initial convergence to 1.0D-05 achieved.  Increase integral accuracy.
 Cycle   9  Pass 1  IDiag  1:
 E= -1711.53041241160     Delta-E=       -0.000085691321 Rises=F Damp=F
 DIIS: error= 1.83D-04 at cycle   1 NSaved=   1.
 NSaved= 1 IEnMin= 1 EnMin= -1711.53041241160     IErMin= 1 ErrMin= 1.83D-04
 ErrMax= 1.83D-04 EMaxC= 1.00D-01 BMatC= 9.24D-06 BMatP= 9.24D-06
 IDIUse=3 WtCom= 9.98D-01 WtEn= 1.83D-03
 Coeff-Com:  0.100D+01
 Coeff-En:   0.100D+01
 Coeff:      0.100D+01
 Gap=     0.185 Goal=   None    Shift=    0.000
 RMSDP=3.50D-06 MaxDP=2.58D-04 DE=-8.57D-05 OVMax= 4.48D-04

 Cycle  10  Pass 1  IDiag  1:
 RMSU=  7.67D-05    CP:  1.00D+00
 E= -1711.53042053299     Delta-E=       -0.000008121384 Rises=F Damp=F
 DIIS: error= 5.15D-05 at cycle   2 NSaved=   2.
 NSaved= 2 IEnMin= 2 EnMin= -1711.53042053299     IErMin= 2 ErrMin= 5.15D-05
 ErrMax= 5.15D-05 EMaxC= 1.00D-01 BMatC= 1.16D-06 BMatP= 9.24D-06
 IDIUse=1 WtCom= 1.00D+00 WtEn= 0.00D+00
 Coeff-Com:  0.142D+00 0.858D+00
 Coeff:      0.142D+00 0.858D+00
 Gap=     0.185 Goal=   None    Shift=    0.000
 RMSDP=5.32D-06 MaxDP=5.19D-04 DE=-8.12D-06 OVMax= 6.53D-04

 Cycle  11  Pass 1  IDiag  1:
 RMSU=  3.70D-06    CP:  1.00D+00  1.01D+00
 E= -1711.53041830794     Delta-E=        0.000002225045 Rises=F Damp=F
 DIIS: error= 9.70D-05 at cycle   3 NSaved=   3.
 NSaved= 3 IEnMin= 2 EnMin= -1711.53042053299     IErMin= 2 ErrMin= 5.15D-05
 ErrMax= 9.70D-05 EMaxC= 1.00D-01 BMatC= 3.83D-06 BMatP= 1.16D-06
 IDIUse=1 WtCom= 1.00D+00 WtEn= 0.00D+00
 Coeff-Com: -0.396D-02 0.648D+00 0.356D+00
 Coeff:     -0.396D-02 0.648D+00 0.356D+00
 Gap=     0.185 Goal=   None    Shift=    0.000
 RMSDP=3.47D-06 MaxDP=3.53D-04 DE= 2.23D-06 OVMax= 4.44D-04

 Cycle  12  Pass 1  IDiag  1:
 RMSU=  3.73D-07    CP:  1.00D+00  1.01D+00  3.47D-01
 E= -1711.53042150493     Delta-E=       -0.000003196991 Rises=F Damp=F
 DIIS: error= 6.37D-06 at cycle   4 NSaved=   4.
 NSaved= 4 IEnMin= 4 EnMin= -1711.53042150493     IErMin= 4 ErrMin= 6.37D-06
 ErrMax= 6.37D-06 EMaxC= 1.00D-01 BMatC= 2.21D-08 BMatP= 1.16D-06
 IDIUse=1 WtCom= 1.00D+00 WtEn= 0.00D+00
 Coeff-Com: -0.388D-02 0.381D+00 0.215D+00 0.408D+00
 Coeff:     -0.388D-02 0.381D+00 0.215D+00 0.408D+00
 Gap=     0.185 Goal=   None    Shift=    0.000
 RMSDP=2.78D-07 MaxDP=2.34D-05 DE=-3.20D-06 OVMax= 3.45D-05

 Cycle  13  Pass 1  IDiag  1:
 RMSU=  1.20D-07    CP:  1.00D+00  1.01D+00  3.58D-01  5.95D-01
 E= -1711.53042152654     Delta-E=       -0.000000021611 Rises=F Damp=F
 DIIS: error= 1.15D-06 at cycle   5 NSaved=   5.
 NSaved= 5 IEnMin= 5 EnMin= -1711.53042152654     IErMin= 5 ErrMin= 1.15D-06
 ErrMax= 1.15D-06 EMaxC= 1.00D-01 BMatC= 5.07D-10 BMatP= 2.21D-08
 IDIUse=1 WtCom= 1.00D+00 WtEn= 0.00D+00
 Coeff-Com: -0.181D-02 0.166D+00 0.941D-01 0.210D+00 0.531D+00
 Coeff:     -0.181D-02 0.166D+00 0.941D-01 0.210D+00 0.531D+00
 Gap=     0.185 Goal=   None    Shift=    0.000
 RMSDP=5.63D-08 MaxDP=3.78D-06 DE=-2.16D-08 OVMax= 7.09D-06

 Cycle  14  Pass 1  IDiag  1:
 RMSU=  3.72D-08    CP:  1.00D+00  1.01D+00  3.58D-01  6.09D-01  8.93D-01
 E= -1711.53042152691     Delta-E=       -0.000000000372 Rises=F Damp=F
 DIIS: error= 4.25D-07 at cycle   6 NSaved=   6.
 NSaved= 6 IEnMin= 6 EnMin= -1711.53042152691     IErMin= 6 ErrMin= 4.25D-07
 ErrMax= 4.25D-07 EMaxC= 1.00D-01 BMatC= 9.94D-11 BMatP= 5.07D-10
 IDIUse=1 WtCom= 1.00D+00 WtEn= 0.00D+00
 Coeff-Com: -0.583D-03 0.501D-01 0.284D-01 0.740D-01 0.330D+00 0.518D+00
 Coeff:     -0.583D-03 0.501D-01 0.284D-01 0.740D-01 0.330D+00 0.518D+00
 Gap=     0.185 Goal=   None    Shift=    0.000
 RMSDP=2.60D-08 MaxDP=1.65D-06 DE=-3.72D-10 OVMax= 4.18D-06

 Cycle  15  Pass 1  IDiag  1:
 RMSU=  1.25D-08    CP:  1.00D+00  1.01D+00  3.58D-01  6.14D-01  9.24D-01
                    CP:  6.55D-01
 E= -1711.53042152702     Delta-E=       -0.000000000102 Rises=F Damp=F
 DIIS: error= 1.32D-07 at cycle   7 NSaved=   7.
 NSaved= 7 IEnMin= 7 EnMin= -1711.53042152702     IErMin= 7 ErrMin= 1.32D-07
 ErrMax= 1.32D-07 EMaxC= 1.00D-01 BMatC= 1.83D-11 BMatP= 9.94D-11
 IDIUse=1 WtCom= 1.00D+00 WtEn= 0.00D+00
 Coeff-Com: -0.303D-04 0.685D-03 0.384D-03 0.767D-02 0.112D+00 0.342D+00
 Coeff-Com:  0.538D+00
 Coeff:     -0.303D-04 0.685D-03 0.384D-03 0.767D-02 0.112D+00 0.342D+00
 Coeff:      0.538D+00
 Gap=     0.185 Goal=   None    Shift=    0.000
 RMSDP=9.55D-09 MaxDP=6.07D-07 DE=-1.02D-10 OVMax= 1.25D-06

 SCF Done:  E(RB3LYP) =  -1711.53042153     A.U. after   15 cycles
             Convg  =    0.9552D-08             -V/T =  2.0057
 KE= 1.701819817910D+03 PE=-9.888478474941D+03 EE= 3.530867347008D+03
 Leave Link  502 at Sat Sep 10 08:06:41 2022, MaxMem=  209715200 cpu:    5279.0
 (Enter /opt/gaussian/l601.exe)
 Copying SCF densities to generalized density rwf, IOpCl= 0 IROHF=0.

 **********************************************************************

            Population analysis using the SCF density.

 **********************************************************************

 Orbital symmetries:
       Occupied  (A) (A) (A) (A) (A) (A) (A) (A) (A) (A) (A) (A)
                 (A) (A) (A) (A) (A) (A) (A) (A) (A) (A) (A) (A)
                 (A) (A) (A) (A) (A) (A) (A) (A) (A) (A) (A) (A)
                 (A) (A) (A) (A) (A) (A) (A) (A) (A) (A) (A) (A)
                 (A) (A) (A) (A) (A) (A) (A) (A) (A) (A) (A) (A)
                 (A) (A) (A) (A) (A) (A) (A) (A) (A) (A) (A) (A)
                 (A) (A) (A) (A) (A) (A) (A) (A) (A) (A) (A) (A)
                 (A) (A) (A) (A) (A) (A) (A) (A) (A) (A) (A) (A)
                 (A) (A) (A) (A) (A) (A) (A) (A) (A) (A) (A) (A)
                 (A) (A) (A) (A) (A)
       Virtual   (A) (A) (A) (A) (A) (A) (A) (A) (A) (A) (A) (A)
                 (A) (A) (A) (A) (A) (A) (A) (A) (A) (A) (A) (A)
                 (A) (A) (A) (A) (A) (A) (A) (A) (A) (A) (A) (A)
                 (A) (A) (A) (A) (A) (A) (A) (A) (A) (A) (A) (A)
                 (A) (A) (A) (A) (A) (A) (A) (A) (A) (A) (A) (A)
                 (A) (A) (A) (A) (A) (A) (A) (A) (A) (A) (A) (A)
                 (A) (A) (A) (A) (A) (A) (A) (A) (A) (A) (A) (A)
                 (A) (A) (A) (A) (A) (A) (A) (A) (A) (A) (A) (A)
                 (A) (A) (A) (A) (A) (A) (A) (A) (A) (A) (A) (A)
                 (A) (A) (A) (A) (A) (A) (A) (A) (A) (A) (A) (A)
                 (A) (A) (A) (A) (A) (A) (A) (A) (A) (A) (A) (A)
                 (A) (A) (A) (A) (A) (A) (A) (A) (A) (A) (A) (A)
                 (A) (A) (A) (A) (A) (A) (A) (A) (A) (A) (A) (A)
                 (A) (A) (A) (A) (A) (A) (A) (A) (A) (A) (A) (A)
                 (A) (A) (A) (A) (A) (A) (A) (A) (A) (A) (A) (A)
                 (A) (A) (A) (A) (A) (A) (A) (A) (A) (A) (A) (A)
                 (A) (A) (A) (A) (A) (A) (A) (A) (A) (A) (A) (A)
                 (A) (A) (A) (A) (A) (A) (A) (A) (A) (A) (A) (A)
                 (A) (A) (A) (A) (A) (A) (A) (A) (A) (A) (A) (A)
                 (A) (A) (A) (A) (A) (A) (A) (A) (A) (A) (A) (A)
                 (A) (A) (A) (A) (A) (A) (A) (A) (A) (A) (A) (A)
                 (A) (A) (A) (A) (A) (A) (A) (A) (A) (A) (A) (A)
                 (A) (A) (A) (A) (A) (A) (A) (A) (A) (A) (A) (A)
                 (A) (A) (A) (A) (A) (A) (A) (A) (A) (A) (A) (A)
                 (A) (A) (A) (A) (A) (A) (A) (A) (A) (A) (A) (A)
                 (A) (A) (A) (A) (A) (A) (A) (A) (A) (A) (A) (A)
                 (A) (A) (A) (A) (A) (A) (A) (A) (A) (A) (A) (A)
                 (A) (A) (A) (A) (A) (A) (A) (A) (A) (A) (A) (A)
                 (A) (A) (A) (A) (A) (A) (A) (A) (A) (A) (A) (A)
                 (A) (A) (A) (A) (A) (A) (A) (A) (A) (A) (A) (A)
                 (A) (A) (A) (A) (A) (A) (A) (A) (A) (A) (A) (A)
                 (A) (A) (A) (A) (A) (A) (A) (A) (A) (A) (A) (A)
                 (A) (A) (A) (A) (A) (A) (A) (A) (A) (A) (A) (A)
                 (A) (A) (A) (A) (A) (A) (A) (A) (A) (A) (A) (A)
                 (A) (A) (A) (A) (A) (A) (A) (A) (A) (A) (A) (A)
                 (A) (A) (A) (A) (A) (A) (A) (A) (A) (A)
 The electronic state is 1-A.
 Alpha  occ. eigenvalues --  -88.92809 -19.13201 -19.10666 -14.41206 -14.39315
 Alpha  occ. eigenvalues --  -14.39020 -14.35672 -14.34799 -10.31296 -10.28693
 Alpha  occ. eigenvalues --  -10.26352 -10.25986 -10.25134 -10.23648 -10.23426
 Alpha  occ. eigenvalues --  -10.23208 -10.23091 -10.22531 -10.21595 -10.21146
 Alpha  occ. eigenvalues --  -10.21114 -10.20855 -10.20590 -10.20454 -10.20118
 Alpha  occ. eigenvalues --  -10.20083 -10.20058 -10.20016 -10.19894 -10.19483
 Alpha  occ. eigenvalues --  -10.19430  -7.99013  -5.95337  -5.94956  -5.94648
 Alpha  occ. eigenvalues --   -1.09475  -1.06421  -1.03556  -0.97212  -0.93256
 Alpha  occ. eigenvalues --   -0.92571  -0.90245  -0.86966  -0.86452  -0.84492
 Alpha  occ. eigenvalues --   -0.79532  -0.78421  -0.77314  -0.76338  -0.76038
 Alpha  occ. eigenvalues --   -0.74951  -0.74195  -0.70782  -0.67059  -0.64928
 Alpha  occ. eigenvalues --   -0.63426  -0.62475  -0.61703  -0.61171  -0.59863
 Alpha  occ. eigenvalues --   -0.58957  -0.57636  -0.56930  -0.56379  -0.54590
 Alpha  occ. eigenvalues --   -0.53689  -0.52961  -0.52589  -0.51900  -0.51620
 Alpha  occ. eigenvalues --   -0.50504  -0.48463  -0.47853  -0.46843  -0.46707
 Alpha  occ. eigenvalues --   -0.46186  -0.45663  -0.44737  -0.44626  -0.43833
 Alpha  occ. eigenvalues --   -0.43542  -0.43183  -0.42788  -0.42475  -0.42301
 Alpha  occ. eigenvalues --   -0.41525  -0.40691  -0.40013  -0.39732  -0.39125
 Alpha  occ. eigenvalues --   -0.38001  -0.37676  -0.37286  -0.37147  -0.36723
 Alpha  occ. eigenvalues --   -0.36518  -0.35824  -0.35603  -0.33089  -0.31983
 Alpha  occ. eigenvalues --   -0.31231  -0.30636  -0.30205  -0.28095  -0.27113
 Alpha  occ. eigenvalues --   -0.26717  -0.26646  -0.26305  -0.25980  -0.24983
 Alpha  occ. eigenvalues --   -0.24824  -0.24030  -0.23488
 Alpha virt. eigenvalues --   -0.04983  -0.04232  -0.03842  -0.02283   0.00051
 Alpha virt. eigenvalues --    0.00722   0.01326   0.01997   0.03501   0.04456
 Alpha virt. eigenvalues --    0.04707   0.05136   0.05944   0.06564   0.07125
 Alpha virt. eigenvalues --    0.07335   0.07861   0.08449   0.08527   0.09054
 Alpha virt. eigenvalues --    0.10205   0.10642   0.10907   0.10958   0.11569
 Alpha virt. eigenvalues --    0.12837   0.12907   0.13316   0.13709   0.14359
 Alpha virt. eigenvalues --    0.14937   0.15499   0.15980   0.16381   0.16660
 Alpha virt. eigenvalues --    0.17397   0.17788   0.19549   0.20440   0.20954
 Alpha virt. eigenvalues --    0.21834   0.23010   0.23421   0.23984   0.24336
 Alpha virt. eigenvalues --    0.24890   0.25211   0.25490   0.26659   0.27918
 Alpha virt. eigenvalues --    0.28082   0.28836   0.29747   0.30098   0.30866
 Alpha virt. eigenvalues --    0.31400   0.32316   0.33981   0.34320   0.36039
 Alpha virt. eigenvalues --    0.36195   0.36766   0.38176   0.39719   0.40635
 Alpha virt. eigenvalues --    0.40845   0.41690   0.42717   0.43302   0.43570
 Alpha virt. eigenvalues --    0.43824   0.44377   0.44862   0.45215   0.45540
 Alpha virt. eigenvalues --    0.45761   0.46244   0.46374   0.46597   0.46747
 Alpha virt. eigenvalues --    0.46816   0.46902   0.47435   0.47945   0.48441
 Alpha virt. eigenvalues --    0.48769   0.49151   0.49638   0.50017   0.50428
 Alpha virt. eigenvalues --    0.50634   0.51018   0.51178   0.51561   0.51691
 Alpha virt. eigenvalues --    0.52342   0.52701   0.53041   0.53505   0.54124
 Alpha virt. eigenvalues --    0.54484   0.54814   0.55039   0.55107   0.55381
 Alpha virt. eigenvalues --    0.55667   0.56771   0.57089   0.57907   0.58318
 Alpha virt. eigenvalues --    0.58717   0.59239   0.59531   0.59918   0.60596
 Alpha virt. eigenvalues --    0.60673   0.61162   0.61662   0.62175   0.63274
 Alpha virt. eigenvalues --    0.63300   0.63782   0.64079   0.64303   0.64472
 Alpha virt. eigenvalues --    0.64853   0.64885   0.65620   0.65869   0.66009
 Alpha virt. eigenvalues --    0.66523   0.66586   0.67446   0.67701   0.68048
 Alpha virt. eigenvalues --    0.68773   0.69139   0.69852   0.70955   0.71002
 Alpha virt. eigenvalues --    0.71417   0.71767   0.72404   0.72984   0.73395
 Alpha virt. eigenvalues --    0.74196   0.74695   0.75458   0.76644   0.76797
 Alpha virt. eigenvalues --    0.77805   0.78243   0.79242   0.81058   0.81506
 Alpha virt. eigenvalues --    0.82896   0.83333   0.83948   0.84540   0.84948
 Alpha virt. eigenvalues --    0.85337   0.85979   0.87413   0.88481   0.88598
 Alpha virt. eigenvalues --    0.89642   0.90347   0.91078   0.91137   0.92543
 Alpha virt. eigenvalues --    0.92925   0.93515   0.93691   0.94436   0.94712
 Alpha virt. eigenvalues --    0.94939   0.96431   0.96909   0.97774   0.98324
 Alpha virt. eigenvalues --    0.98985   0.99498   0.99573   1.00264   1.00672
 Alpha virt. eigenvalues --    1.01256   1.01628   1.02201   1.02562   1.04005
 Alpha virt. eigenvalues --    1.04424   1.04674   1.05412   1.05527   1.06580
 Alpha virt. eigenvalues --    1.07029   1.07883   1.08555   1.08953   1.10357
 Alpha virt. eigenvalues --    1.10517   1.11368   1.11999   1.13195   1.14093
 Alpha virt. eigenvalues --    1.14895   1.15558   1.16219   1.17248   1.17494
 Alpha virt. eigenvalues --    1.17857   1.18491   1.19150   1.20587   1.22050
 Alpha virt. eigenvalues --    1.23038   1.23497   1.23894   1.24785   1.25593
 Alpha virt. eigenvalues --    1.26572   1.27956   1.28269   1.28866   1.30440
 Alpha virt. eigenvalues --    1.30697   1.31308   1.33141   1.33825   1.34845
 Alpha virt. eigenvalues --    1.35494   1.37247   1.37455   1.39014   1.39375
 Alpha virt. eigenvalues --    1.40426   1.42047   1.43256   1.43408   1.44197
 Alpha virt. eigenvalues --    1.45426   1.45707   1.46090   1.46634   1.47427
 Alpha virt. eigenvalues --    1.48592   1.49078   1.49588   1.50316   1.50835
 Alpha virt. eigenvalues --    1.51092   1.51880   1.52728   1.53360   1.54262
 Alpha virt. eigenvalues --    1.54696   1.55367   1.55616   1.55969   1.56419
 Alpha virt. eigenvalues --    1.56985   1.57429   1.58023   1.58530   1.58839
 Alpha virt. eigenvalues --    1.59671   1.59957   1.60320   1.61449   1.61984
 Alpha virt. eigenvalues --    1.62258   1.62624   1.63066   1.63777   1.64332
 Alpha virt. eigenvalues --    1.64729   1.65072   1.65916   1.66503   1.67186
 Alpha virt. eigenvalues --    1.67529   1.68243   1.68434   1.69053   1.69842
 Alpha virt. eigenvalues --    1.70332   1.70963   1.71303   1.71996   1.72526
 Alpha virt. eigenvalues --    1.73146   1.73836   1.74780   1.74877   1.75236
 Alpha virt. eigenvalues --    1.75931   1.76170   1.77032   1.77375   1.78336
 Alpha virt. eigenvalues --    1.78661   1.79560   1.80079   1.80284   1.81274
 Alpha virt. eigenvalues --    1.81962   1.82116   1.82824   1.83354   1.84364
 Alpha virt. eigenvalues --    1.84377   1.84682   1.85606   1.86026   1.86759
 Alpha virt. eigenvalues --    1.87567   1.88169   1.88802   1.89124   1.90914
 Alpha virt. eigenvalues --    1.91533   1.91631   1.92053   1.93122   1.94084
 Alpha virt. eigenvalues --    1.94298   1.95454   1.95559   1.96675   1.96956
 Alpha virt. eigenvalues --    1.97670   1.98393   1.98800   1.99744   2.00148
 Alpha virt. eigenvalues --    2.01204   2.01465   2.02861   2.03441   2.03916
 Alpha virt. eigenvalues --    2.04336   2.05559   2.06257   2.06820   2.07926
 Alpha virt. eigenvalues --    2.08987   2.10229   2.10894   2.12296   2.12671
 Alpha virt. eigenvalues --    2.14137   2.14173   2.15759   2.16398   2.17246
 Alpha virt. eigenvalues --    2.18326   2.19243   2.20689   2.21782   2.23182
 Alpha virt. eigenvalues --    2.23350   2.24634   2.26593   2.27634   2.28194
 Alpha virt. eigenvalues --    2.29245   2.29403   2.32249   2.33565   2.35356
 Alpha virt. eigenvalues --    2.37648   2.38245   2.38433   2.39336   2.39808
 Alpha virt. eigenvalues --    2.40830   2.41626   2.42450   2.43459   2.44506
 Alpha virt. eigenvalues --    2.45007   2.45472   2.46558   2.47616   2.49499
 Alpha virt. eigenvalues --    2.50526   2.51771   2.52709   2.55692   2.57045
 Alpha virt. eigenvalues --    2.58108   2.59072   2.59637   2.60969   2.62449
 Alpha virt. eigenvalues --    2.63476   2.64202   2.65336   2.68201   2.69530
 Alpha virt. eigenvalues --    2.69992   2.70303   2.70712   2.73320   2.73591
 Alpha virt. eigenvalues --    2.73742   2.76565   2.77310   2.77717   2.78662
 Alpha virt. eigenvalues --    2.79733   2.82158   2.86737   2.89028   2.93198
 Alpha virt. eigenvalues --    2.93438   2.95606   2.97886   3.03277   3.07282
 Alpha virt. eigenvalues --    3.09864   3.10201   3.14440   3.16103   3.38486
 Alpha virt. eigenvalues --    3.40530   3.48543   3.49148   3.53647   3.56594
          Condensed to atoms (all electrons):
 Mulliken atomic charges:
              1
     1  O   -0.234130
     2  C    0.131811
     3  C    0.122226
     4  N   -0.228446
     5  N   -0.060668
     6  N   -0.181363
     7  C    0.011327
     8  C    0.044967
     9  C    0.038017
    10  C    0.039736
    11  C    0.031176
    12  C    0.213361
    13  N   -0.280919
    14  C    0.140115
    15  C   -0.025580
    16  C    0.048132
    17  C   -0.099561
    18  S    0.163438
    19  C   -0.151293
    20  C    0.101112
    21  C    0.022083
    22  C    0.013460
    23  C   -0.036884
    24  C    0.069352
    25  C    0.080025
    26  C    0.190664
    27  O   -0.255969
    28  N   -0.150102
    29  C    0.005839
    30  C    0.027340
    31  C   -0.022481
    32  H    0.062402
    33  H    0.060653
    34  H   -0.021701
    35  H   -0.026761
    36  H   -0.025544
    37  H   -0.032687
    38  H    0.039723
    39  H    0.049589
    40  H   -0.025604
    41  H    0.020852
    42  H    0.023238
    43  H   -0.019521
    44  H   -0.043663
    45  H   -0.021149
    46  H   -0.008899
    47  H    0.095033
    48  H    0.009358
    49  H    0.025362
    50  H    0.029095
    51  H    0.025758
    52  H    0.017680
 Sum of Mulliken atomic charges =   0.00000
 Mulliken charges with hydrogens summed into heavy atoms:
              1
     1  O   -0.234130
     2  C    0.131811
     3  C    0.245281
     4  N   -0.228446
     5  N   -0.060668
     6  N   -0.181363
     7  C    0.011327
     8  C    0.023266
     9  C    0.011256
    10  C    0.014192
    11  C   -0.001511
    12  C    0.213361
    13  N   -0.280919
    14  C    0.229427
    15  C   -0.025580
    16  C    0.022529
    17  C   -0.078709
    18  S    0.163438
    19  C   -0.128054
    20  C    0.101112
    21  C    0.002562
    22  C   -0.030203
    23  C   -0.036884
    24  C    0.048203
    25  C    0.071126
    26  C    0.190664
    27  O   -0.255969
    28  N   -0.055069
    29  C    0.015198
    30  C    0.081797
    31  C    0.020957
 Sum of Mulliken charges with hydrogens summed into heavy atoms =   0.00000
 Electronic spatial extent (au):  <R**2>=          20212.3652
 Charge=              0.0000 electrons
 Dipole moment (field-independent basis, Debye):
    X=             -1.7640    Y=              7.4959    Z=              2.5485  Tot=              8.1114
 Quadrupole moment (field-independent basis, Debye-Ang):
   XX=           -196.1651   YY=           -185.7832   ZZ=           -180.3842
   XY=             -0.6342   XZ=              0.7964   YZ=            -12.6875
 Traceless Quadrupole moment (field-independent basis, Debye-Ang):
   XX=             -8.7209   YY=              1.6610   ZZ=              7.0599
   XY=             -0.6342   XZ=              0.7964   YZ=            -12.6875
 Octapole moment (field-independent basis, Debye-Ang**2):
  XXX=           -154.7510  YYY=             81.1352  ZZZ=             17.6588  XYY=             39.5185
  XXY=             70.2296  XXZ=            166.9880  XZZ=            -18.4566  YZZ=             14.9285
  YYZ=              2.0378  XYZ=            -27.9902
 Hexadecapole moment (field-independent basis, Debye-Ang**3):
 XXXX=         -20100.1085 YYYY=          -5027.6092 ZZZZ=          -1694.3889 XXXY=           -171.1811
 XXXZ=            -72.7857 YYYX=            141.2286 YYYZ=            -63.6329 ZZZX=             82.9927
 ZZZY=            -61.2452 XXYY=          -4448.6393 XXZZ=          -3676.4030 YYZZ=          -1187.3270
 XXYZ=           -378.5203 YYXZ=             15.0874 ZZXY=             60.1366
 N-N= 2.944260888496D+03 E-N=-9.888478569735D+03  KE= 1.701819817910D+03
 No NMR shielding tensors so no spin-rotation constants.
 Leave Link  601 at Sat Sep 10 08:06:41 2022, MaxMem=  209715200 cpu:       3.9
 (Enter /opt/gaussian/l602.exe)
 Breneman (CHELPG) radii used.
 Read replacement radii for each type of atom:
 Rad(35) =   1.900000000000D+00
 Atom Element Radius
    1     8    1.70
    2     6    1.50
    3     6    1.50
    4     7    1.70
    5     7    1.70
    6     7    1.70
    7     6    1.50
    8     6    1.50
    9     6    1.50
   10     6    1.50
   11     6    1.50
   12     6    1.50
   13     7    1.70
   14     6    1.50
   15     6    1.50
   16     6    1.50
   17     6    1.50
   18    16    2.00
   19     6    1.50
   20     6    1.50
   21     6    1.50
   22     6    1.50
   23     6    1.50
   24     6    1.50
   25     6    1.50
   26     6    1.50
   27     8    1.70
   28     7    1.70
   29     6    1.50
   30     6    1.50
   31     6    1.50
   32     1    1.45
   33     1    1.45
   34     1    1.45
   35     1    1.45
   36     1    1.45
   37     1    1.45
   38     1    1.45
   39     1    1.45
   40     1    1.45
   41     1    1.45
   42     1    1.45
   43     1    1.45
   44     1    1.45
   45     1    1.45
   46     1    1.45
   47     1    1.45
   48     1    1.45
   49     1    1.45
   50     1    1.45
   51     1    1.45
   52     1    1.45
 Generate Potential Derived Charges using the Breneman model, NDens= 1.
 Grid spacing= 0.300 Box extension= 2.800
 NStep X,Y,Z=   74     52     41   Total possible points=      157768
 Number of Points to Fit=   29328

 **********************************************************************

            Electrostatic Properties Using The SCF Density

 **********************************************************************

       Atomic Center    1 is at   1.294280 -1.493091 -0.153370
       Atomic Center    2 is at   1.382260 -0.431911 -0.740940
       Atomic Center    3 is at   2.758520  0.113959 -1.174510
       Atomic Center    4 is at   3.822080 -0.810771 -0.879240
       Atomic Center    5 is at   4.443370 -1.461941 -1.911290
       Atomic Center    6 is at   5.369610 -2.224391 -1.443200
       Atomic Center    7 is at   5.385510 -2.097961 -0.067170
       Atomic Center    8 is at   6.207950 -2.703171  0.899420
       Atomic Center    9 is at   5.989700 -2.364121  2.227320
       Atomic Center   10 is at   4.973790 -1.445821  2.596560
       Atomic Center   11 is at   4.149370 -0.841861  1.655640
       Atomic Center   12 is at   4.378190 -1.185311  0.313080
       Atomic Center   13 is at   0.284980  0.362099 -1.062240
       Atomic Center   14 is at   0.458280  1.690789 -1.664370
       Atomic Center   15 is at   0.838730  2.802169 -0.707250
       Atomic Center   16 is at   1.240590  4.104419 -1.160160
       Atomic Center   17 is at   1.526420  4.964599 -0.134230
       Atomic Center   18 is at   1.315700  4.206519  1.413870
       Atomic Center   19 is at   0.834640  2.714229  0.663960
       Atomic Center   20 is at  -1.048490 -0.084601 -0.780510
       Atomic Center   21 is at  -2.020870  0.839769 -0.365350
       Atomic Center   22 is at  -3.334520  0.429259 -0.131830
       Atomic Center   23 is at  -3.707780 -0.911061 -0.298110
       Atomic Center   24 is at  -2.735220 -1.824341 -0.732500
       Atomic Center   25 is at  -1.422040 -1.428361 -0.964620
       Atomic Center   26 is at  -5.104300 -1.426081 -0.081130
       Atomic Center   27 is at  -5.486180 -2.483131 -0.565280
       Atomic Center   28 is at  -5.929950 -0.628691  0.685810
       Atomic Center   29 is at  -7.238210 -1.093421  1.059690
       Atomic Center   30 is at  -8.386010 -0.857510  0.112480
       Atomic Center   31 is at  -8.275390 -0.048750  1.386040
       Atomic Center   32 is at   2.789190  0.263759 -2.262990
       Atomic Center   33 is at   2.954110  1.084789 -0.692230
       Atomic Center   34 is at   6.983810 -3.409641  0.600780
       Atomic Center   35 is at   6.606150 -2.812241  3.009210
       Atomic Center   36 is at   4.832180 -1.212691  3.654260
       Atomic Center   37 is at   3.358420 -0.151631  1.950290
       Atomic Center   38 is at   1.207660  1.631609 -2.468920
       Atomic Center   39 is at  -0.486750  1.941139 -2.168500
       Atomic Center   40 is at   1.314220  4.383919 -2.212460
       Atomic Center   41 is at   1.854730  6.000199 -0.196010
       Atomic Center   42 is at   0.569470  1.855749  1.277630
       Atomic Center   43 is at  -1.757480  1.887239 -0.214440
       Atomic Center   44 is at  -4.072430  1.179109  0.160810
       Atomic Center   45 is at  -3.037910 -2.859781 -0.893510
       Atomic Center   46 is at  -0.684650 -2.159121 -1.287380
       Atomic Center   47 is at  -5.477170  0.012069  1.329210
       Atomic Center   48 is at  -7.255270 -2.030041  1.627850
       Atomic Center   49 is at  -8.153370 -0.354260 -0.827600
       Atomic Center   50 is at  -9.153280 -1.631390  0.047160
       Atomic Center   51 is at  -8.968000 -0.255380  2.204450
       Atomic Center   52 is at  -7.977020  0.998449  1.291810
   29328 points will be used for fitting atomic charges
 Fitting point charges to electrostatic potential
 Charges from ESP fit, RMS=   0.00391 RRMS=   0.21461:
 Charge=   0.00000 Dipole=    -1.5684     7.6541     2.4882 Tot=     8.1998
              1
     1  O   -0.511072
     2  C    0.618886
     3  C    0.000422
     4  N    0.290822
     5  N   -0.226082
     6  N   -0.338776
     7  C    0.397869
     8  C   -0.241534
     9  C   -0.072109
    10  C   -0.088535
    11  C   -0.152324
    12  C   -0.055689
    13  N   -0.445991
    14  C    0.087496
    15  C    0.168257
    16  C   -0.212324
    17  C   -0.146050
    18  S    0.015006
    19  C   -0.186809
    20  C    0.260300
    21  C   -0.087779
    22  C   -0.151813
    23  C   -0.075799
    24  C   -0.047564
    25  C   -0.172951
    26  C    0.575237
    27  O   -0.517733
    28  N   -0.465574
    29  C    0.218866
    30  C   -0.129652
    31  C   -0.282520
    32  H    0.011364
    33  H   -0.034462
    34  H    0.125851
    35  H    0.092091
    36  H    0.090996
    37  H    0.106753
    38  H    0.080309
    39  H    0.035507
    40  H    0.113353
    41  H    0.167662
    42  H    0.156873
    43  H    0.039148
    44  H    0.121391
    45  H    0.100262
    46  H    0.141604
    47  H    0.232788
    48  H    0.036249
    49  H    0.074233
    50  H    0.075676
    51  H    0.096572
    52  H    0.111303
 Charges from ESP fit with hydrogens summed into heavy atoms:
              1
     1  O   -0.511072
     2  C    0.618886
     3  C   -0.022677
     4  N    0.290822
     5  N   -0.226082
     6  N   -0.338776
     7  C    0.397869
     8  C   -0.115683
     9  C    0.019982
    10  C    0.002461
    11  C   -0.045571
    12  C   -0.055689
    13  N   -0.445991
    14  C    0.203311
    15  C    0.168257
    16  C   -0.098971
    17  C    0.021612
    18  S    0.015006
    19  C   -0.029937
    20  C    0.260300
    21  C   -0.048631
    22  C   -0.030422
    23  C   -0.075799
    24  C    0.052697
    25  C   -0.031347
    26  C    0.575237
    27  O   -0.517733
    28  N   -0.232787
    29  C    0.255114
    30  C    0.020257
    31  C   -0.074646
    32  H    0.000000
    33  H    0.000000
    34  H    0.000000
    35  H    0.000000
    36  H    0.000000
    37  H    0.000000
    38  H    0.000000
    39  H    0.000000
    40  H    0.000000
    41  H    0.000000
    42  H    0.000000
    43  H    0.000000
    44  H    0.000000
    45  H    0.000000
    46  H    0.000000
    47  H    0.000000
    48  H    0.000000
    49  H    0.000000
    50  H    0.000000
    51  H    0.000000
    52  H    0.000000
 -----------------------------------------------------------------

              Electrostatic Properties (Atomic Units)

 -----------------------------------------------------------------
    Center     Electric         -------- Electric Field --------
               Potential          X             Y             Z
 -----------------------------------------------------------------
    1 Atom    -22.358223
    2 Atom    -14.629922
    3 Atom    -14.679925
    4 Atom    -18.292534
    5 Atom    -18.330311
    6 Atom    -18.368761
    7 Atom    -14.736846
    8 Atom    -14.747618
    9 Atom    -14.751014
   10 Atom    -14.745268
   11 Atom    -14.740861
   12 Atom    -14.713860
   13 Atom    -18.308582
   14 Atom    -14.675340
   15 Atom    -14.721423
   16 Atom    -14.730380
   17 Atom    -14.710583
   18 Atom    -59.168383
   19 Atom    -14.712697
   20 Atom    -14.692581
   21 Atom    -14.738190
   22 Atom    -14.735557
   23 Atom    -14.741648
   24 Atom    -14.747457
   25 Atom    -14.746002
   26 Atom    -14.655603
   27 Atom    -22.382607
   28 Atom    -18.345683
   29 Atom    -14.705789
   30 Atom    -14.745151
   31 Atom    -14.738440
   32 Atom     -1.051463
   33 Atom     -1.055596
   34 Atom     -1.089015
   35 Atom     -1.094862
   36 Atom     -1.091171
   37 Atom     -1.080089
   38 Atom     -1.060615
   39 Atom     -1.060679
   40 Atom     -1.060350
   41 Atom     -1.047333
   42 Atom     -1.047070
   43 Atom     -1.074113
   44 Atom     -1.075640
   45 Atom     -1.094926
   46 Atom     -1.090790
   47 Atom     -1.007411
   48 Atom     -1.099452
   49 Atom     -1.098725
   50 Atom     -1.099266
   51 Atom     -1.093147
   52 Atom     -1.090188
 -----------------------------------------------------------------
 Leave Link  602 at Sat Sep 10 08:06:56 2022, MaxMem=  209715200 cpu:     107.8
 (Enter /opt/gaussian/l9999.exe)
 1\1\GINC-LQCAPF-6\SP\RB3LYP\CC-pVDZ\C23H21N5O2S1\LQCAPF-6\10-Sep-2022\
 0\\#p b3lyp/cc-pvdz pop=(chelpg,readradii)\\Mol11.log\\0,1\O,0,1.29428
 ,-1.49309,-0.15337\C,0,1.38226,-0.43191,-0.74094\C,0,2.75852,0.11396,-
 1.17451\N,0,3.82208,-0.81077,-0.87924\N,0,4.44337,-1.46194,-1.91129\N,
 0,5.36961,-2.22439,-1.4432\C,0,5.38551,-2.09796,-0.06717\C,0,6.20795,-
 2.70317,0.89942\C,0,5.9897,-2.36412,2.22732\C,0,4.97379,-1.44582,2.596
 56\C,0,4.14937,-0.84186,1.65564\C,0,4.37819,-1.18531,0.31308\N,0,0.284
 98,0.3621,-1.06224\C,0,0.45828,1.69079,-1.66437\C,0,0.83873,2.80217,-0
 .70725\C,0,1.24059,4.10442,-1.16016\C,0,1.52642,4.9646,-0.13423\S,0,1.
 3157,4.20652,1.41387\C,0,0.83464,2.71423,0.66396\C,0,-1.04849,-0.0846,
 -0.78051\C,0,-2.02087,0.83977,-0.36535\C,0,-3.33452,0.42926,-0.13183\C
 ,0,-3.70778,-0.91106,-0.29811\C,0,-2.73522,-1.82434,-0.7325\C,0,-1.422
 04,-1.42836,-0.96462\C,0,-5.1043,-1.42608,-0.08113\O,0,-5.48618,-2.483
 13,-0.56528\N,0,-5.92995,-0.62869,0.68581\C,0,-7.23821,-1.09342,1.0596
 9\C,0,-8.38601,-0.85751,0.11248\C,0,-8.27539,-0.04875,1.38604\H,0,2.78
 919,0.26376,-2.26299\H,0,2.95411,1.08479,-0.69223\H,0,6.98381,-3.40964
 ,0.60078\H,0,6.60615,-2.81224,3.00921\H,0,4.83218,-1.21269,3.65426\H,0
 ,3.35842,-0.15163,1.95029\H,0,1.20766,1.63161,-2.46892\H,0,-0.48675,1.
 94114,-2.1685\H,0,1.31422,4.38392,-2.21246\H,0,1.85473,6.0002,-0.19601
 \H,0,0.56947,1.85575,1.27763\H,0,-1.75748,1.88724,-0.21444\H,0,-4.0724
 3,1.17911,0.16081\H,0,-3.03791,-2.85978,-0.89351\H,0,-0.68465,-2.15912
 ,-1.28738\H,0,-5.47717,0.01207,1.32921\H,0,-7.25527,-2.03004,1.62785\H
 ,0,-8.15337,-0.35426,-0.8276\H,0,-9.15328,-1.63139,0.04716\H,0,-8.968,
 -0.25538,2.20445\H,0,-7.97702,0.99845,1.29181\\Version=EM64L-G09RevC.0
 1\State=1-A\HF=-1711.5304215\RMSD=9.552e-09\Dipole=-0.6940197,2.949097
 4,1.0026652\Quadrupole=-6.4837908,1.2348952,5.2488955,-0.4714963,0.592
 0791,-9.4328638\PG=C01 [X(C23H21N5O2S1)]\\@


 CHARLIE BROWN -- WHICH DO YOU THINK LASTS LONGER IN LIFE, THE GOOD THINGS 
                  OR THE BAD THINGS?
 LINUS --         GOOD THINGS LAST EIGHT SECONDS ..
                  BAD THINGS LAST THREE WEEKS
 CHARLIE BROWN -- WHAT ABOUT IN BETWEEN?
 SNOOPY --        IN BETWEEN YOU SHOULD TAKE A NAP ...
 Job cpu time:  0 days  1 hours 30 minutes 26.5 seconds.
 File lengths (MBytes):  RWF=    163 Int=      0 D2E=      0 Chk=     11 Scr=      1
 Normal termination of Gaussian 09 at Sat Sep 10 08:06:56 2022.
