 Entering Gaussian System, Link 0=g09
 Input=Mol18.gjf
 Output=Mol18.log
 Initial command:
 /opt/gaussian/l1.exe /home/scr/lqcapf-6/Gau-554805.inp -scrdir=/home/scr/lqcapf-6/
 Entering Link 1 = /opt/gaussian/l1.exe PID=    554807.
  
 Copyright (c) 1988,1990,1992,1993,1995,1998,2003,2009,2011,
            Gaussian, Inc.  All Rights Reserved.
  
 This is part of the Gaussian(R) 09 program.  It is based on
 the Gaussian(R) 03 system (copyright 2003, Gaussian, Inc.),
 the Gaussian(R) 98 system (copyright 1998, Gaussian, Inc.),
 the Gaussian(R) 94 system (copyright 1995, Gaussian, Inc.),
 the Gaussian 92(TM) system (copyright 1992, Gaussian, Inc.),
 the Gaussian 90(TM) system (copyright 1990, Gaussian, Inc.),
 the Gaussian 88(TM) system (copyright 1988, Gaussian, Inc.),
 the Gaussian 86(TM) system (copyright 1986, Carnegie Mellon
 University), and the Gaussian 82(TM) system (copyright 1983,
 Carnegie Mellon University). Gaussian is a federally registered
 trademark of Gaussian, Inc.
  
 This software contains proprietary and confidential information,
 including trade secrets, belonging to Gaussian, Inc.
  
 This software is provided under written license and may be
 used, copied, transmitted, or stored only in accord with that
 written license.
  
 The following legend is applicable only to US Government
 contracts under FAR:
  
                    RESTRICTED RIGHTS LEGEND
  
 Use, reproduction and disclosure by the US Government is
 subject to restrictions as set forth in subparagraphs (a)
 and (c) of the Commercial Computer Software - Restricted
 Rights clause in FAR 52.227-19.
  
 Gaussian, Inc.
 340 Quinnipiac St., Bldg. 40, Wallingford CT 06492
  
  
 ---------------------------------------------------------------
 Warning -- This program may not be used in any manner that
 competes with the business of Gaussian, Inc. or will provide
 assistance to any competitor of Gaussian, Inc.  The licensee
 of this program is prohibited from giving any competitor of
 Gaussian, Inc. access to this program.  By using this program,
 the user acknowledges that Gaussian, Inc. is engaged in the
 business of creating and licensing software in the field of
 computational chemistry and represents and warrants to the
 licensee that it is not a competitor of Gaussian, Inc. and that
 it will not use this program in any manner prohibited above.
 ---------------------------------------------------------------
  

 Cite this work as:
 Gaussian 09, Revision C.01,
 M. J. Frisch, G. W. Trucks, H. B. Schlegel, G. E. Scuseria, 
 M. A. Robb, J. R. Cheeseman, G. Scalmani, V. Barone, B. Mennucci, 
 G. A. Petersson, H. Nakatsuji, M. Caricato, X. Li, H. P. Hratchian, 
 A. F. Izmaylov, J. Bloino, G. Zheng, J. L. Sonnenberg, M. Hada, 
 M. Ehara, K. Toyota, R. Fukuda, J. Hasegawa, M. Ishida, T. Nakajima, 
 Y. Honda, O. Kitao, H. Nakai, T. Vreven, J. A. Montgomery, Jr., 
 J. E. Peralta, F. Ogliaro, M. Bearpark, J. J. Heyd, E. Brothers, 
 K. N. Kudin, V. N. Staroverov, T. Keith, R. Kobayashi, J. Normand, 
 K. Raghavachari, A. Rendell, J. C. Burant, S. S. Iyengar, J. Tomasi, 
 M. Cossi, N. Rega, J. M. Millam, M. Klene, J. E. Knox, J. B. Cross, 
 V. Bakken, C. Adamo, J. Jaramillo, R. Gomperts, R. E. Stratmann, 
 O. Yazyev, A. J. Austin, R. Cammi, C. Pomelli, J. W. Ochterski, 
 R. L. Martin, K. Morokuma, V. G. Zakrzewski, G. A. Voth, 
 P. Salvador, J. J. Dannenberg, S. Dapprich, A. D. Daniels, 
 O. Farkas, J. B. Foresman, J. V. Ortiz, J. Cioslowski, 
 and D. J. Fox, Gaussian, Inc., Wallingford CT, 2010.
 
 ******************************************
 Gaussian 09:  EM64L-G09RevC.01 23-Sep-2011
                10-Sep-2022 
 ******************************************
 %nprocshared=8
 Will use up to    8 processors via shared memory.
 %mem=1600MB
 ---------------------------------------
 #p b3lyp/cc-pvdz pop=(chelpg,readradii)
 ---------------------------------------
 1/38=1/1;
 2/12=2,17=6,18=5,40=1/2;
 3/5=16,11=2,16=1,25=1,30=1,74=-5/1,2,3;
 4//1;
 5/5=2,38=5/2;
 6/7=2,8=2,9=2,10=2,15=8,20=103,28=1/1,2;
 99/5=1,9=1/99;
 Leave Link    1 at Sat Sep 10 09:24:49 2022, MaxMem=  209715200 cpu:       0.2
 (Enter /opt/gaussian/l101.exe)
 ---------
 Mol18.log
 ---------
 Charge =  0 Multiplicity = 1
 Symbolic Z-Matrix:
 C                    -8.26871  -2.50351   0.80606 
 N                    -7.23492  -1.54574   0.46446 
 C                    -5.90812  -1.77931   0.28433 
 C                    -5.2992   -0.54634   0.05685 
 C                    -6.38525   0.37059   0.13084 
 N                    -7.54498  -0.23675   0.37595 
 C                    -3.88126  -0.26677  -0.20451 
 C                    -3.01216  -1.2549   -0.70607 
 C                    -1.66618  -0.99689  -0.94984 
 C                    -1.1336    0.27888  -0.70074 
 C                    -1.98715   1.27542  -0.20322 
 C                    -3.33437   1.00502   0.037 
 N                     0.2403    0.5859   -0.99045 
 C                     0.55109   1.91504  -1.53112 
 C                     1.07479   2.92595  -0.53066 
 C                     1.60693   4.19914  -0.9287 
 C                     2.00959   4.96766   0.13028 
 S                     1.75263   4.1556    1.64377 
 C                     1.09357   2.76609   0.83383 
 C                     1.24187  -0.34194  -0.73732 
 O                     1.04427  -1.4204   -0.20791 
 C                     2.66549   0.06637  -1.17153 
 N                     3.61724  -0.99433  -0.96048 
 N                     4.14229  -1.643    -2.04541 
 N                     4.9759   -2.54129  -1.64825 
 C                     5.0235   -2.51213  -0.26764 
 C                     5.77805  -3.27617   0.64019 
 C                     5.6178   -3.00522   1.99173 
 C                     4.72418  -1.99956   2.44142 
 C                     3.96772  -1.2386    1.55934 
 C                     4.13802  -1.51384   0.19251 
 H                    -8.49242  -2.47529   1.88486 
 H                    -9.18156  -2.25536   0.24813 
 H                    -7.93412  -3.51294   0.53147 
 H                    -5.49545  -2.78253   0.34887 
 H                    -6.36819   1.4493   -0.01334 
 H                    -3.40146  -2.2492   -0.93564 
 H                    -1.02714  -1.78785  -1.33495 
 H                    -1.60003   2.27034   0.02089 
 H                    -3.96418   1.79729   0.44637 
 H                     1.27189   1.81696  -2.3582 
 H                    -0.37129   2.29552  -1.99407 
 H                     1.68555   4.52451  -1.96738 
 H                     2.44764   5.96354   0.11104 
 H                     0.74853   1.91107   1.41148 
 H                     2.69602   0.28083  -2.24897 
 H                     2.98335   0.97472  -0.63564 
 H                     6.45942  -4.0483    0.27984 
 H                     6.18479  -3.57642   2.72966 
 H                     4.62378  -1.82436   3.5149 
 H                     3.26814  -0.48163   1.91457 
 
 NAtoms=     51 NQM=        0 NQMF=       0 NMMI=     51 NMMIF=      0
                NMic=       0 NMicF=      0.
                    Isotopes and Nuclear Properties:
 (Nuclear quadrupole moments (NQMom) in fm**2, nuclear magnetic moments (NMagM)
  in nuclear magnetons)

  Atom         1           2           3           4           5           6           7           8           9          10
 IAtWgt=          12          14          12          12          12          14          12          12          12          12
 AtmWgt=  12.0000000  14.0030740  12.0000000  12.0000000  12.0000000  14.0030740  12.0000000  12.0000000  12.0000000  12.0000000
 NucSpn=           0           2           0           0           0           2           0           0           0           0
 AtZEff=   0.0000000   0.0000000   0.0000000   0.0000000   0.0000000   0.0000000   0.0000000   0.0000000   0.0000000   0.0000000
 NQMom=    0.0000000   2.0440000   0.0000000   0.0000000   0.0000000   2.0440000   0.0000000   0.0000000   0.0000000   0.0000000
 NMagM=    0.0000000   0.4037610   0.0000000   0.0000000   0.0000000   0.4037610   0.0000000   0.0000000   0.0000000   0.0000000

  Atom        11          12          13          14          15          16          17          18          19          20
 IAtWgt=          12          12          14          12          12          12          12          32          12          12
 AtmWgt=  12.0000000  12.0000000  14.0030740  12.0000000  12.0000000  12.0000000  12.0000000  31.9720718  12.0000000  12.0000000
 NucSpn=           0           0           2           0           0           0           0           0           0           0
 AtZEff=   0.0000000   0.0000000   0.0000000   0.0000000   0.0000000   0.0000000   0.0000000   0.0000000   0.0000000   0.0000000
 NQMom=    0.0000000   0.0000000   2.0440000   0.0000000   0.0000000   0.0000000   0.0000000   0.0000000   0.0000000   0.0000000
 NMagM=    0.0000000   0.0000000   0.4037610   0.0000000   0.0000000   0.0000000   0.0000000   0.0000000   0.0000000   0.0000000

  Atom        21          22          23          24          25          26          27          28          29          30
 IAtWgt=          16          12          14          14          14          12          12          12          12          12
 AtmWgt=  15.9949146  12.0000000  14.0030740  14.0030740  14.0030740  12.0000000  12.0000000  12.0000000  12.0000000  12.0000000
 NucSpn=           0           0           2           2           2           0           0           0           0           0
 AtZEff=   0.0000000   0.0000000   0.0000000   0.0000000   0.0000000   0.0000000   0.0000000   0.0000000   0.0000000   0.0000000
 NQMom=    0.0000000   0.0000000   2.0440000   2.0440000   2.0440000   0.0000000   0.0000000   0.0000000   0.0000000   0.0000000
 NMagM=    0.0000000   0.0000000   0.4037610   0.4037610   0.4037610   0.0000000   0.0000000   0.0000000   0.0000000   0.0000000

  Atom        31          32          33          34          35          36          37          38          39          40
 IAtWgt=          12           1           1           1           1           1           1           1           1           1
 AtmWgt=  12.0000000   1.0078250   1.0078250   1.0078250   1.0078250   1.0078250   1.0078250   1.0078250   1.0078250   1.0078250
 NucSpn=           0           1           1           1           1           1           1           1           1           1
 AtZEff=   0.0000000   0.0000000   0.0000000   0.0000000   0.0000000   0.0000000   0.0000000   0.0000000   0.0000000   0.0000000
 NQMom=    0.0000000   0.0000000   0.0000000   0.0000000   0.0000000   0.0000000   0.0000000   0.0000000   0.0000000   0.0000000
 NMagM=    0.0000000   2.7928460   2.7928460   2.7928460   2.7928460   2.7928460   2.7928460   2.7928460   2.7928460   2.7928460

  Atom        41          42          43          44          45          46          47          48          49          50
 IAtWgt=           1           1           1           1           1           1           1           1           1           1
 AtmWgt=   1.0078250   1.0078250   1.0078250   1.0078250   1.0078250   1.0078250   1.0078250   1.0078250   1.0078250   1.0078250
 NucSpn=           1           1           1           1           1           1           1           1           1           1
 AtZEff=   0.0000000   0.0000000   0.0000000   0.0000000   0.0000000   0.0000000   0.0000000   0.0000000   0.0000000   0.0000000
 NQMom=    0.0000000   0.0000000   0.0000000   0.0000000   0.0000000   0.0000000   0.0000000   0.0000000   0.0000000   0.0000000
 NMagM=    2.7928460   2.7928460   2.7928460   2.7928460   2.7928460   2.7928460   2.7928460   2.7928460   2.7928460   2.7928460

  Atom        51
 IAtWgt=           1
 AtmWgt=   1.0078250
 NucSpn=           1
 AtZEff=   0.0000000
 NQMom=    0.0000000
 NMagM=    2.7928460
 Leave Link  101 at Sat Sep 10 09:24:49 2022, MaxMem=  209715200 cpu:       0.7
 (Enter /opt/gaussian/l202.exe)
 Stoichiometry    C23H20N6OS
 Framework group  C1[X(C23H20N6OS)]
 Deg. of freedom   147
 Full point group                 C1      NOp   1
 Largest Abelian subgroup         C1      NOp   1
 Largest concise Abelian subgroup C1      NOp   1
                         Standard orientation:                         
 ---------------------------------------------------------------------
 Center     Atomic      Atomic             Coordinates (Angstroms)
 Number     Number       Type             X           Y           Z
 ---------------------------------------------------------------------
      1          6           0       -8.268709   -2.503512    0.806061
      2          7           0       -7.234919   -1.545742    0.464461
      3          6           0       -5.908119   -1.779311    0.284331
      4          6           0       -5.299200   -0.546341    0.056851
      5          6           0       -6.385250    0.370589    0.130841
      6          7           0       -7.544980   -0.236752    0.375951
      7          6           0       -3.881260   -0.266771   -0.204509
      8          6           0       -3.012159   -1.254901   -0.706069
      9          6           0       -1.666179   -0.996890   -0.949839
     10          6           0       -1.133600    0.278880   -0.700739
     11          6           0       -1.987150    1.275420   -0.203219
     12          6           0       -3.334370    1.005019    0.037001
     13          7           0        0.240300    0.585900   -0.990449
     14          6           0        0.551090    1.915040   -1.531119
     15          6           0        1.074790    2.925950   -0.530659
     16          6           0        1.606929    4.199140   -0.928699
     17          6           0        2.009589    4.967660    0.130281
     18         16           0        1.752629    4.155600    1.643771
     19          6           0        1.093570    2.766090    0.833831
     20          6           0        1.241870   -0.341940   -0.737319
     21          8           0        1.044271   -1.420400   -0.207909
     22          6           0        2.665490    0.066371   -1.171529
     23          7           0        3.617241   -0.994329   -0.960479
     24          7           0        4.142291   -1.642999   -2.045409
     25          7           0        4.975901   -2.541289   -1.648249
     26          6           0        5.023501   -2.512129   -0.267639
     27          6           0        5.778051   -3.276169    0.640191
     28          6           0        5.617801   -3.005219    1.991731
     29          6           0        4.724181   -1.999559    2.441421
     30          6           0        3.967721   -1.238599    1.559341
     31          6           0        4.138021   -1.513839    0.192511
     32          1           0       -8.492419   -2.475292    1.884861
     33          1           0       -9.181559   -2.255362    0.248131
     34          1           0       -7.934119   -3.512942    0.531471
     35          1           0       -5.495449   -2.782531    0.348871
     36          1           0       -6.368190    1.449299   -0.013339
     37          1           0       -3.401459   -2.249201   -0.935639
     38          1           0       -1.027139   -1.787850   -1.334949
     39          1           0       -1.600030    2.270340    0.020891
     40          1           0       -3.964180    1.797289    0.446371
     41          1           0        1.271890    1.816960   -2.358199
     42          1           0       -0.371290    2.295520   -1.994069
     43          1           0        1.685549    4.524510   -1.967379
     44          1           0        2.447639    5.963540    0.111041
     45          1           0        0.748530    1.911070    1.411481
     46          1           0        2.696020    0.280831   -2.248969
     47          1           0        2.983350    0.974721   -0.635639
     48          1           0        6.459421   -4.048299    0.279841
     49          1           0        6.184791   -3.576419    2.729661
     50          1           0        4.623781   -1.824359    3.514901
     51          1           0        3.268140   -0.481629    1.914571
 ---------------------------------------------------------------------
 Rotational constants (GHZ):      0.1815752      0.0635555      0.0522022
 Leave Link  202 at Sat Sep 10 09:24:50 2022, MaxMem=  209715200 cpu:       0.0
 (Enter /opt/gaussian/l301.exe)
 Standard basis: CC-pVDZ (5D, 7F)
 Ernie: Thresh=  0.10000D-02 Tol=  0.10000D-05 Strict=F.
 Ernie:  70 primitive shells out of 810 were deleted.
 There are   538 symmetry adapted basis functions of A   symmetry.
 Integral buffers will be    131072 words long.
 Raffenetti 2 integral format.
 Two-electron integral symmetry is turned on.
   538 basis functions,  1201 primitive gaussians,   569 cartesian basis functions
   112 alpha electrons      112 beta electrons
       nuclear repulsion energy      2910.0910208238 Hartrees.
 IExCor=  402 DFT=T Ex+Corr=B3LYP ExCW=0 ScaHFX=  0.200000
 ScaDFX=  0.800000  0.720000  1.000000  0.810000 ScalE2=  1.000000  1.000000
 IRadAn=      0 IRanWt=     -1 IRanGd=            0 ICorTp=0
 NAtoms=   51 NActive=   51 NUniq=   51 SFac= 1.00D+00 NAtFMM=   60 NAOKFM=F Big=F
 Leave Link  301 at Sat Sep 10 09:24:50 2022, MaxMem=  209715200 cpu:       0.3
 (Enter /opt/gaussian/l302.exe)
 NPDir=0 NMtPBC=     1 NCelOv=     1 NCel=       1 NClECP=     1 NCelD=      1
         NCelK=      1 NCelE2=     1 NClLst=     1 CellRange=     0.0.
 One-electron integrals computed using PRISM.
 NBasis=   538 RedAO= T  NBF=   538
 NBsUse=   538 1.00D-06 NBFU=   538
 Precomputing XC quadrature grid using
 IXCGrd= 2 IRadAn=           0 IRanWt=          -1 IRanGd=           0 AccXCQ= 0.00D+00.
 NRdTot=    3296 NPtTot=      421448 NUsed=      445196 NTot=      445228
 NSgBfM=   542   542   546   546   548 NAtAll=    51    51.
 Leave Link  302 at Sat Sep 10 09:24:51 2022, MaxMem=  209715200 cpu:       7.8
 (Enter /opt/gaussian/l303.exe)
 DipDrv:  MaxL=1.
 Leave Link  303 at Sat Sep 10 09:24:51 2022, MaxMem=  209715200 cpu:       1.2
 (Enter /opt/gaussian/l401.exe)
 Harris functional with IExCor=  402 diagonalized for initial guess.
 ExpMin= 1.22D-01 ExpMax= 1.11D+05 ExpMxC= 1.07D+03 IAcc=2 IRadAn=         4 AccDes= 0.00D+00
 HarFok:  IExCor=  402 AccDes= 0.00D+00 IRadAn=         4 IDoV= 1
 ScaDFX=  1.000000  1.000000  1.000000  1.000000
 FoFCou: FMM=F IPFlag=           0 FMFlag=      100000 FMFlg1=           0
         NFxFlg=           0 DoJE=T BraDBF=F KetDBF=T FulRan=T
         Omega=  0.000000  0.000000  1.000000  0.000000  0.000000 ICntrl=     500 IOpCl=  0
         NMat0=    1 NMatS0=    1 NMatT0=    0 NMatD0=    1 NMtDS0=    0 NMtDT0=    0
         I1Cent=           4 NGrid=           0.
 Petite list used in FoFCou.
 Harris En= -1690.22179989258    
 Initial guess orbital symmetries:
       Occupied  (A) (A) (A) (A) (A) (A) (A) (A) (A) (A) (A) (A)
                 (A) (A) (A) (A) (A) (A) (A) (A) (A) (A) (A) (A)
                 (A) (A) (A) (A) (A) (A) (A) (A) (A) (A) (A) (A)
                 (A) (A) (A) (A) (A) (A) (A) (A) (A) (A) (A) (A)
                 (A) (A) (A) (A) (A) (A) (A) (A) (A) (A) (A) (A)
                 (A) (A) (A) (A) (A) (A) (A) (A) (A) (A) (A) (A)
                 (A) (A) (A) (A) (A) (A) (A) (A) (A) (A) (A) (A)
                 (A) (A) (A) (A) (A) (A) (A) (A) (A) (A) (A) (A)
                 (A) (A) (A) (A) (A) (A) (A) (A) (A) (A) (A) (A)
                 (A) (A) (A) (A)
       Virtual   (A) (A) (A) (A) (A) (A) (A) (A) (A) (A) (A) (A)
                 (A) (A) (A) (A) (A) (A) (A) (A) (A) (A) (A) (A)
                 (A) (A) (A) (A) (A) (A) (A) (A) (A) (A) (A) (A)
                 (A) (A) (A) (A) (A) (A) (A) (A) (A) (A) (A) (A)
                 (A) (A) (A) (A) (A) (A) (A) (A) (A) (A) (A) (A)
                 (A) (A) (A) (A) (A) (A) (A) (A) (A) (A) (A) (A)
                 (A) (A) (A) (A) (A) (A) (A) (A) (A) (A) (A) (A)
                 (A) (A) (A) (A) (A) (A) (A) (A) (A) (A) (A) (A)
                 (A) (A) (A) (A) (A) (A) (A) (A) (A) (A) (A) (A)
                 (A) (A) (A) (A) (A) (A) (A) (A) (A) (A) (A) (A)
                 (A) (A) (A) (A) (A) (A) (A) (A) (A) (A) (A) (A)
                 (A) (A) (A) (A) (A) (A) (A) (A) (A) (A) (A) (A)
                 (A) (A) (A) (A) (A) (A) (A) (A) (A) (A) (A) (A)
                 (A) (A) (A) (A) (A) (A) (A) (A) (A) (A) (A) (A)
                 (A) (A) (A) (A) (A) (A) (A) (A) (A) (A) (A) (A)
                 (A) (A) (A) (A) (A) (A) (A) (A) (A) (A) (A) (A)
                 (A) (A) (A) (A) (A) (A) (A) (A) (A) (A) (A) (A)
                 (A) (A) (A) (A) (A) (A) (A) (A) (A) (A) (A) (A)
                 (A) (A) (A) (A) (A) (A) (A) (A) (A) (A) (A) (A)
                 (A) (A) (A) (A) (A) (A) (A) (A) (A) (A) (A) (A)
                 (A) (A) (A) (A) (A) (A) (A) (A) (A) (A) (A) (A)
                 (A) (A) (A) (A) (A) (A) (A) (A) (A) (A) (A) (A)
                 (A) (A) (A) (A) (A) (A) (A) (A) (A) (A) (A) (A)
                 (A) (A) (A) (A) (A) (A) (A) (A) (A) (A) (A) (A)
                 (A) (A) (A) (A) (A) (A) (A) (A) (A) (A) (A) (A)
                 (A) (A) (A) (A) (A) (A) (A) (A) (A) (A) (A) (A)
                 (A) (A) (A) (A) (A) (A) (A) (A) (A) (A) (A) (A)
                 (A) (A) (A) (A) (A) (A) (A) (A) (A) (A) (A) (A)
                 (A) (A) (A) (A) (A) (A) (A) (A) (A) (A) (A) (A)
                 (A) (A) (A) (A) (A) (A) (A) (A) (A) (A) (A) (A)
                 (A) (A) (A) (A) (A) (A) (A) (A) (A) (A) (A) (A)
                 (A) (A) (A) (A) (A) (A) (A) (A) (A) (A) (A) (A)
                 (A) (A) (A) (A) (A) (A) (A) (A) (A) (A) (A) (A)
                 (A) (A) (A) (A) (A) (A) (A) (A) (A) (A) (A) (A)
                 (A) (A) (A) (A) (A) (A) (A) (A) (A) (A) (A) (A)
                 (A) (A) (A) (A) (A) (A)
 The electronic state of the initial guess is 1-A.
 Leave Link  401 at Sat Sep 10 09:24:54 2022, MaxMem=  209715200 cpu:      24.6
 (Enter /opt/gaussian/l502.exe)
 Closed shell SCF:
 Requested convergence on RMS density matrix=1.00D-08 within 128 cycles.
 Requested convergence on MAX density matrix=1.00D-06.
 Requested convergence on             energy=1.00D-06.
 No special actions if energy rises.
 Using DIIS extrapolation, IDIIS=  1040.
 Integral symmetry usage will be decided dynamically.
       444724 words used for storage of precomputed grid.
 IEnd=     1443007 IEndB=     1443007 NGot=   209715200 MDV=   208613164
 LenX=   208613164 LenY=   208288834
 Fock matrices will be formed incrementally for  20 cycles.
 Integral accuracy reduced to 1.0D-05 until final iterations.

 Cycle   1  Pass 0  IDiag  1:
 FoFCou: FMM=F IPFlag=           0 FMFlag=      100000 FMFlg1=           0
         NFxFlg=           0 DoJE=F BraDBF=F KetDBF=F FulRan=T
         Omega=  0.000000  0.000000  1.000000  0.000000  0.000000 ICntrl=       0 IOpCl=  0
         NMat0=    1 NMatS0=    1 NMatT0=    0 NMatD0=    1 NMtDS0=    0 NMtDT0=    0
         I1Cent=           0 NGrid=           0.
 Symmetry not used in FoFCou.
 E= -1689.78666656716    
 DIIS: error= 2.41D-02 at cycle   1 NSaved=   1.
 NSaved= 1 IEnMin= 1 EnMin= -1689.78666656716     IErMin= 1 ErrMin= 2.41D-02
 ErrMax= 2.41D-02 EMaxC= 1.00D-01 BMatC= 6.08D-01 BMatP= 6.08D-01
 IDIUse=3 WtCom= 7.59D-01 WtEn= 2.41D-01
 Coeff-Com:  0.100D+01
 Coeff-En:   0.100D+01
 Coeff:      0.100D+01
 Gap=     0.298 Goal=   None    Shift=    0.000
 GapD=    0.298 DampG=1.000 DampE=0.500 DampFc=0.5000 IDamp=-1.
 Damping current iteration by 5.00D-01
 RMSDP=4.11D-03 MaxDP=2.05D-01              OVMax= 3.09D-01

 Cycle   2  Pass 0  IDiag  1:
 RMSU=  1.44D-03    CP:  9.81D-01
 E= -1689.94539110155     Delta-E=       -0.158724534385 Rises=F Damp=T
 DIIS: error= 8.17D-03 at cycle   2 NSaved=   2.
 NSaved= 2 IEnMin= 2 EnMin= -1689.94539110155     IErMin= 2 ErrMin= 8.17D-03
 ErrMax= 8.17D-03 EMaxC= 1.00D-01 BMatC= 1.22D-01 BMatP= 6.08D-01
 IDIUse=3 WtCom= 9.18D-01 WtEn= 8.17D-02
 Coeff-Com:  0.250D+00 0.750D+00
 Coeff-En:   0.374D+00 0.626D+00
 Coeff:      0.260D+00 0.740D+00
 Gap=     0.226 Goal=   None    Shift=    0.000
 RMSDP=1.42D-03 MaxDP=6.36D-02 DE=-1.59D-01 OVMax= 3.15D-01

 Cycle   3  Pass 0  IDiag  1:
 RMSU=  9.31D-04    CP:  9.67D-01  7.60D-01
 E= -1690.37265175742     Delta-E=       -0.427260655870 Rises=F Damp=F
 DIIS: error= 8.62D-03 at cycle   3 NSaved=   3.
 NSaved= 3 IEnMin= 3 EnMin= -1690.37265175742     IErMin= 2 ErrMin= 8.17D-03
 ErrMax= 8.62D-03 EMaxC= 1.00D-01 BMatC= 8.87D-02 BMatP= 1.22D-01
 IDIUse=3 WtCom= 9.14D-01 WtEn= 8.62D-02
 Coeff-Com:  0.815D-01 0.452D+00 0.467D+00
 Coeff-En:   0.000D+00 0.000D+00 0.100D+01
 Coeff:      0.745D-01 0.413D+00 0.513D+00
 Gap=     0.177 Goal=   None    Shift=    0.000
 RMSDP=7.28D-04 MaxDP=5.22D-02 DE=-4.27D-01 OVMax= 7.76D-02

 Cycle   4  Pass 0  IDiag  1:
 RMSU=  3.86D-04    CP:  9.71D-01  8.33D-01  6.54D-01
 E= -1690.43865136376     Delta-E=       -0.065999606336 Rises=F Damp=F
 DIIS: error= 3.77D-03 at cycle   4 NSaved=   4.
 NSaved= 4 IEnMin= 4 EnMin= -1690.43865136376     IErMin= 4 ErrMin= 3.77D-03
 ErrMax= 3.77D-03 EMaxC= 1.00D-01 BMatC= 1.88D-02 BMatP= 8.87D-02
 IDIUse=3 WtCom= 9.62D-01 WtEn= 3.77D-02
 Coeff-Com:  0.206D-01 0.136D+00 0.328D+00 0.516D+00
 Coeff-En:   0.000D+00 0.000D+00 0.200D+00 0.800D+00
 Coeff:      0.198D-01 0.131D+00 0.323D+00 0.527D+00
 Gap=     0.172 Goal=   None    Shift=    0.000
 RMSDP=3.26D-04 MaxDP=1.99D-02 DE=-6.60D-02 OVMax= 3.58D-02

 Cycle   5  Pass 0  IDiag  1:
 RMSU=  1.43D-04    CP:  9.70D-01  8.14D-01  7.17D-01  5.65D-01
 E= -1690.45375823286     Delta-E=       -0.015106869102 Rises=F Damp=F
 DIIS: error= 2.25D-03 at cycle   5 NSaved=   5.
 NSaved= 5 IEnMin= 5 EnMin= -1690.45375823286     IErMin= 5 ErrMin= 2.25D-03
 ErrMax= 2.25D-03 EMaxC= 1.00D-01 BMatC= 2.33D-03 BMatP= 1.88D-02
 IDIUse=3 WtCom= 9.77D-01 WtEn= 2.25D-02
 Coeff-Com:  0.403D-02 0.241D-01 0.143D+00 0.346D+00 0.483D+00
 Coeff-En:   0.000D+00 0.000D+00 0.000D+00 0.114D+00 0.886D+00
 Coeff:      0.394D-02 0.236D-01 0.140D+00 0.340D+00 0.492D+00
 Gap=     0.172 Goal=   None    Shift=    0.000
 RMSDP=1.21D-04 MaxDP=6.88D-03 DE=-1.51D-02 OVMax= 1.48D-02

 Cycle   6  Pass 0  IDiag  1:
 RMSU=  3.82D-05    CP:  9.70D-01  8.12D-01  7.30D-01  6.56D-01  5.36D-01
 E= -1690.45616094770     Delta-E=       -0.002402714844 Rises=F Damp=F
 DIIS: error= 6.68D-04 at cycle   6 NSaved=   6.
 NSaved= 6 IEnMin= 6 EnMin= -1690.45616094770     IErMin= 6 ErrMin= 6.68D-04
 ErrMax= 6.68D-04 EMaxC= 1.00D-01 BMatC= 1.82D-04 BMatP= 2.33D-03
 IDIUse=3 WtCom= 9.93D-01 WtEn= 6.68D-03
 Coeff-Com:  0.511D-03-0.294D-02 0.441D-01 0.138D+00 0.285D+00 0.536D+00
 Coeff-En:   0.000D+00 0.000D+00 0.000D+00 0.000D+00 0.120D-01 0.988D+00
 Coeff:      0.507D-03-0.292D-02 0.438D-01 0.137D+00 0.283D+00 0.539D+00
 Gap=     0.172 Goal=   None    Shift=    0.000
 RMSDP=2.92D-05 MaxDP=2.52D-03 DE=-2.40D-03 OVMax= 3.88D-03

 Cycle   7  Pass 0  IDiag  1:
 RMSU=  1.36D-05    CP:  9.70D-01  8.12D-01  7.32D-01  6.51D-01  5.86D-01
                    CP:  6.49D-01
 E= -1690.45633674154     Delta-E=       -0.000175793838 Rises=F Damp=F
 DIIS: error= 2.02D-04 at cycle   7 NSaved=   7.
 NSaved= 7 IEnMin= 7 EnMin= -1690.45633674154     IErMin= 7 ErrMin= 2.02D-04
 ErrMax= 2.02D-04 EMaxC= 1.00D-01 BMatC= 1.77D-05 BMatP= 1.82D-04
 IDIUse=3 WtCom= 9.98D-01 WtEn= 2.02D-03
 Coeff-Com:  0.120D-03-0.410D-02 0.104D-01 0.412D-01 0.107D+00 0.305D+00
 Coeff-Com:  0.541D+00
 Coeff-En:   0.000D+00 0.000D+00 0.000D+00 0.000D+00 0.000D+00 0.311D-01
 Coeff-En:   0.969D+00
 Coeff:      0.120D-03-0.409D-02 0.104D-01 0.411D-01 0.107D+00 0.304D+00
 Coeff:      0.542D+00
 Gap=     0.172 Goal=   None    Shift=    0.000
 RMSDP=8.65D-06 MaxDP=8.39D-04 DE=-1.76D-04 OVMax= 1.25D-03

 Initial convergence to 1.0D-05 achieved.  Increase integral accuracy.
 Cycle   8  Pass 1  IDiag  1:
 E= -1690.45634853838     Delta-E=       -0.000011796842 Rises=F Damp=F
 DIIS: error= 1.97D-04 at cycle   1 NSaved=   1.
 NSaved= 1 IEnMin= 1 EnMin= -1690.45634853838     IErMin= 1 ErrMin= 1.97D-04
 ErrMax= 1.97D-04 EMaxC= 1.00D-01 BMatC= 1.11D-05 BMatP= 1.11D-05
 IDIUse=3 WtCom= 9.98D-01 WtEn= 1.97D-03
 Coeff-Com:  0.100D+01
 Coeff-En:   0.100D+01
 Coeff:      0.100D+01
 Gap=     0.172 Goal=   None    Shift=    0.000
 RMSDP=8.65D-06 MaxDP=8.39D-04 DE=-1.18D-05 OVMax= 1.04D-03

 Cycle   9  Pass 1  IDiag  1:
 RMSU=  8.93D-05    CP:  1.00D+00
 E= -1690.45635544754     Delta-E=       -0.000006909157 Rises=F Damp=F
 DIIS: error= 9.78D-05 at cycle   2 NSaved=   2.
 NSaved= 2 IEnMin= 2 EnMin= -1690.45635544754     IErMin= 2 ErrMin= 9.78D-05
 ErrMax= 9.78D-05 EMaxC= 1.00D-01 BMatC= 4.05D-06 BMatP= 1.11D-05
 IDIUse=1 WtCom= 1.00D+00 WtEn= 0.00D+00
 Coeff-Com:  0.314D+00 0.686D+00
 Coeff:      0.314D+00 0.686D+00
 Gap=     0.172 Goal=   None    Shift=    0.000
 RMSDP=8.09D-06 MaxDP=5.38D-04 DE=-6.91D-06 OVMax= 1.35D-03

 Cycle  10  Pass 1  IDiag  1:
 RMSU=  5.70D-06    CP:  1.00D+00  1.01D+00
 E= -1690.45635378564     Delta-E=        0.000001661895 Rises=F Damp=F
 DIIS: error= 1.20D-04 at cycle   3 NSaved=   3.
 NSaved= 3 IEnMin= 2 EnMin= -1690.45635544754     IErMin= 2 ErrMin= 9.78D-05
 ErrMax= 1.20D-04 EMaxC= 1.00D-01 BMatC= 5.62D-06 BMatP= 4.05D-06
 IDIUse=3 WtCom= 4.77D-01 WtEn= 5.23D-01
 Coeff-Com:  0.165D-02 0.541D+00 0.458D+00
 Coeff-En:   0.000D+00 0.560D+00 0.440D+00
 Coeff:      0.786D-03 0.551D+00 0.448D+00
 Gap=     0.172 Goal=   None    Shift=    0.000
 RMSDP=4.43D-06 MaxDP=3.01D-04 DE= 1.66D-06 OVMax= 7.00D-04

 Cycle  11  Pass 1  IDiag  1:
 RMSU=  7.25D-07    CP:  1.00D+00  1.01D+00  4.72D-01
 E= -1690.45635960727     Delta-E=       -0.000005821630 Rises=F Damp=F
 DIIS: error= 1.32D-05 at cycle   4 NSaved=   4.
 NSaved= 4 IEnMin= 4 EnMin= -1690.45635960727     IErMin= 4 ErrMin= 1.32D-05
 ErrMax= 1.32D-05 EMaxC= 1.00D-01 BMatC= 1.04D-07 BMatP= 4.05D-06
 IDIUse=1 WtCom= 1.00D+00 WtEn= 0.00D+00
 Coeff-Com: -0.365D-02 0.349D+00 0.289D+00 0.366D+00
 Coeff:     -0.365D-02 0.349D+00 0.289D+00 0.366D+00
 Gap=     0.172 Goal=   None    Shift=    0.000
 RMSDP=6.54D-07 MaxDP=5.25D-05 DE=-5.82D-06 OVMax= 7.63D-05

 Cycle  12  Pass 1  IDiag  1:
 RMSU=  2.07D-07    CP:  1.00D+00  1.01D+00  4.63D-01  4.34D-01
 E= -1690.45635970427     Delta-E=       -0.000000096998 Rises=F Damp=F
 DIIS: error= 1.77D-06 at cycle   5 NSaved=   5.
 NSaved= 5 IEnMin= 5 EnMin= -1690.45635970427     IErMin= 5 ErrMin= 1.77D-06
 ErrMax= 1.77D-06 EMaxC= 1.00D-01 BMatC= 3.28D-09 BMatP= 1.04D-07
 IDIUse=1 WtCom= 1.00D+00 WtEn= 0.00D+00
 Coeff-Com: -0.229D-02 0.186D+00 0.154D+00 0.223D+00 0.440D+00
 Coeff:     -0.229D-02 0.186D+00 0.154D+00 0.223D+00 0.440D+00
 Gap=     0.172 Goal=   None    Shift=    0.000
 RMSDP=1.27D-07 MaxDP=7.12D-06 DE=-9.70D-08 OVMax= 1.43D-05

 Cycle  13  Pass 1  IDiag  1:
 RMSU=  6.88D-08    CP:  1.00D+00  1.01D+00  4.64D-01  4.56D-01  7.34D-01
 E= -1690.45635970732     Delta-E=       -0.000000003045 Rises=F Damp=F
 DIIS: error= 5.36D-07 at cycle   6 NSaved=   6.
 NSaved= 6 IEnMin= 6 EnMin= -1690.45635970732     IErMin= 6 ErrMin= 5.36D-07
 ErrMax= 5.36D-07 EMaxC= 1.00D-01 BMatC= 2.45D-10 BMatP= 3.28D-09
 IDIUse=1 WtCom= 1.00D+00 WtEn= 0.00D+00
 Coeff-Com: -0.897D-03 0.666D-01 0.549D-01 0.856D-01 0.253D+00 0.541D+00
 Coeff:     -0.897D-03 0.666D-01 0.549D-01 0.856D-01 0.253D+00 0.541D+00
 Gap=     0.172 Goal=   None    Shift=    0.000
 RMSDP=3.56D-08 MaxDP=1.79D-06 DE=-3.04D-09 OVMax= 5.08D-06

 Cycle  14  Pass 1  IDiag  1:
 RMSU=  1.96D-08    CP:  1.00D+00  1.01D+00  4.64D-01  4.61D-01  7.62D-01
                    CP:  8.01D-01
 E= -1690.45635970752     Delta-E=       -0.000000000202 Rises=F Damp=F
 DIIS: error= 1.57D-07 at cycle   7 NSaved=   7.
 NSaved= 7 IEnMin= 7 EnMin= -1690.45635970752     IErMin= 7 ErrMin= 1.57D-07
 ErrMax= 1.57D-07 EMaxC= 1.00D-01 BMatC= 2.59D-11 BMatP= 2.45D-10
 IDIUse=1 WtCom= 1.00D+00 WtEn= 0.00D+00
 Coeff-Com: -0.189D-03 0.118D-01 0.963D-02 0.171D-01 0.806D-01 0.295D+00
 Coeff-Com:  0.586D+00
 Coeff:     -0.189D-03 0.118D-01 0.963D-02 0.171D-01 0.806D-01 0.295D+00
 Coeff:      0.586D+00
 Gap=     0.172 Goal=   None    Shift=    0.000
 RMSDP=1.32D-08 MaxDP=6.19D-07 DE=-2.02D-10 OVMax= 1.91D-06

 Cycle  15  Pass 1  IDiag  1:
 RMSU=  6.64D-09    CP:  1.00D+00  1.01D+00  4.64D-01  4.60D-01  7.73D-01
                    CP:  8.43D-01  7.29D-01
 E= -1690.45635970750     Delta-E=        0.000000000013 Rises=F Damp=F
 DIIS: error= 8.11D-08 at cycle   8 NSaved=   8.
 NSaved= 8 IEnMin= 7 EnMin= -1690.45635970752     IErMin= 8 ErrMin= 8.11D-08
 ErrMax= 8.11D-08 EMaxC= 1.00D-01 BMatC= 4.70D-12 BMatP= 2.59D-11
 IDIUse=1 WtCom= 1.00D+00 WtEn= 0.00D+00
 Coeff-Com:  0.366D-04-0.396D-02-0.335D-02-0.402D-02 0.650D-02 0.883D-01
 Coeff-Com:  0.349D+00 0.568D+00
 Coeff:      0.366D-04-0.396D-02-0.335D-02-0.402D-02 0.650D-02 0.883D-01
 Coeff:      0.349D+00 0.568D+00
 Gap=     0.172 Goal=   None    Shift=    0.000
 RMSDP=5.15D-09 MaxDP=3.44D-07 DE= 1.27D-11 OVMax= 7.70D-07

 SCF Done:  E(RB3LYP) =  -1690.45635971     A.U. after   15 cycles
             Convg  =    0.5151D-08             -V/T =  2.0057
 KE= 1.680913609171D+03 PE=-9.769557386763D+03 EE= 3.488096397060D+03
 Leave Link  502 at Sat Sep 10 09:37:14 2022, MaxMem=  209715200 cpu:    5480.1
 (Enter /opt/gaussian/l601.exe)
 Copying SCF densities to generalized density rwf, IOpCl= 0 IROHF=0.

 **********************************************************************

            Population analysis using the SCF density.

 **********************************************************************

 Orbital symmetries:
       Occupied  (A) (A) (A) (A) (A) (A) (A) (A) (A) (A) (A) (A)
                 (A) (A) (A) (A) (A) (A) (A) (A) (A) (A) (A) (A)
                 (A) (A) (A) (A) (A) (A) (A) (A) (A) (A) (A) (A)
                 (A) (A) (A) (A) (A) (A) (A) (A) (A) (A) (A) (A)
                 (A) (A) (A) (A) (A) (A) (A) (A) (A) (A) (A) (A)
                 (A) (A) (A) (A) (A) (A) (A) (A) (A) (A) (A) (A)
                 (A) (A) (A) (A) (A) (A) (A) (A) (A) (A) (A) (A)
                 (A) (A) (A) (A) (A) (A) (A) (A) (A) (A) (A) (A)
                 (A) (A) (A) (A) (A) (A) (A) (A) (A) (A) (A) (A)
                 (A) (A) (A) (A)
       Virtual   (A) (A) (A) (A) (A) (A) (A) (A) (A) (A) (A) (A)
                 (A) (A) (A) (A) (A) (A) (A) (A) (A) (A) (A) (A)
                 (A) (A) (A) (A) (A) (A) (A) (A) (A) (A) (A) (A)
                 (A) (A) (A) (A) (A) (A) (A) (A) (A) (A) (A) (A)
                 (A) (A) (A) (A) (A) (A) (A) (A) (A) (A) (A) (A)
                 (A) (A) (A) (A) (A) (A) (A) (A) (A) (A) (A) (A)
                 (A) (A) (A) (A) (A) (A) (A) (A) (A) (A) (A) (A)
                 (A) (A) (A) (A) (A) (A) (A) (A) (A) (A) (A) (A)
                 (A) (A) (A) (A) (A) (A) (A) (A) (A) (A) (A) (A)
                 (A) (A) (A) (A) (A) (A) (A) (A) (A) (A) (A) (A)
                 (A) (A) (A) (A) (A) (A) (A) (A) (A) (A) (A) (A)
                 (A) (A) (A) (A) (A) (A) (A) (A) (A) (A) (A) (A)
                 (A) (A) (A) (A) (A) (A) (A) (A) (A) (A) (A) (A)
                 (A) (A) (A) (A) (A) (A) (A) (A) (A) (A) (A) (A)
                 (A) (A) (A) (A) (A) (A) (A) (A) (A) (A) (A) (A)
                 (A) (A) (A) (A) (A) (A) (A) (A) (A) (A) (A) (A)
                 (A) (A) (A) (A) (A) (A) (A) (A) (A) (A) (A) (A)
                 (A) (A) (A) (A) (A) (A) (A) (A) (A) (A) (A) (A)
                 (A) (A) (A) (A) (A) (A) (A) (A) (A) (A) (A) (A)
                 (A) (A) (A) (A) (A) (A) (A) (A) (A) (A) (A) (A)
                 (A) (A) (A) (A) (A) (A) (A) (A) (A) (A) (A) (A)
                 (A) (A) (A) (A) (A) (A) (A) (A) (A) (A) (A) (A)
                 (A) (A) (A) (A) (A) (A) (A) (A) (A) (A) (A) (A)
                 (A) (A) (A) (A) (A) (A) (A) (A) (A) (A) (A) (A)
                 (A) (A) (A) (A) (A) (A) (A) (A) (A) (A) (A) (A)
                 (A) (A) (A) (A) (A) (A) (A) (A) (A) (A) (A) (A)
                 (A) (A) (A) (A) (A) (A) (A) (A) (A) (A) (A) (A)
                 (A) (A) (A) (A) (A) (A) (A) (A) (A) (A) (A) (A)
                 (A) (A) (A) (A) (A) (A) (A) (A) (A) (A) (A) (A)
                 (A) (A) (A) (A) (A) (A) (A) (A) (A) (A) (A) (A)
                 (A) (A) (A) (A) (A) (A) (A) (A) (A) (A) (A) (A)
                 (A) (A) (A) (A) (A) (A) (A) (A) (A) (A) (A) (A)
                 (A) (A) (A) (A) (A) (A) (A) (A) (A) (A) (A) (A)
                 (A) (A) (A) (A) (A) (A) (A) (A) (A) (A) (A) (A)
                 (A) (A) (A) (A) (A) (A) (A) (A) (A) (A) (A) (A)
                 (A) (A) (A) (A) (A) (A)
 The electronic state is 1-A.
 Alpha  occ. eigenvalues --  -88.92313 -19.12485 -14.41099 -14.40898 -14.38730
 Alpha  occ. eigenvalues --  -14.38576 -14.34516 -14.34307 -10.30611 -10.25736
 Alpha  occ. eigenvalues --  -10.25508 -10.24063 -10.23802 -10.23172 -10.22911
 Alpha  occ. eigenvalues --  -10.22897 -10.22405 -10.21997 -10.21115 -10.20846
 Alpha  occ. eigenvalues --  -10.20531 -10.20472 -10.20169 -10.19856 -10.19819
 Alpha  occ. eigenvalues --  -10.19653 -10.19571 -10.19446 -10.19390 -10.19248
 Alpha  occ. eigenvalues --  -10.19101  -7.98517  -5.94841  -5.94461  -5.94152
 Alpha  occ. eigenvalues --   -1.09170  -1.05694  -1.05300  -0.96435  -0.92220
 Alpha  occ. eigenvalues --   -0.89724  -0.86425  -0.86177  -0.84464  -0.80399
 Alpha  occ. eigenvalues --   -0.78427  -0.77752  -0.76828  -0.75404  -0.75273
 Alpha  occ. eigenvalues --   -0.74450  -0.73725  -0.70529  -0.69826  -0.65075
 Alpha  occ. eigenvalues --   -0.64626  -0.62213  -0.61938  -0.60521  -0.58756
 Alpha  occ. eigenvalues --   -0.58365  -0.56810  -0.56687  -0.55911  -0.53992
 Alpha  occ. eigenvalues --   -0.53298  -0.52581  -0.52208  -0.51520  -0.50436
 Alpha  occ. eigenvalues --   -0.48137  -0.47892  -0.47612  -0.46467  -0.46018
 Alpha  occ. eigenvalues --   -0.45849  -0.45133  -0.44413  -0.44208  -0.43900
 Alpha  occ. eigenvalues --   -0.43079  -0.42960  -0.42369  -0.42108  -0.41838
 Alpha  occ. eigenvalues --   -0.40878  -0.40273  -0.40133  -0.39650  -0.39054
 Alpha  occ. eigenvalues --   -0.38570  -0.37562  -0.37470  -0.37075  -0.36449
 Alpha  occ. eigenvalues --   -0.36048  -0.35362  -0.34966  -0.32805  -0.30977
 Alpha  occ. eigenvalues --   -0.30812  -0.29041  -0.27447  -0.26703  -0.26423
 Alpha  occ. eigenvalues --   -0.26313  -0.25819  -0.25505  -0.25389  -0.24697
 Alpha  occ. eigenvalues --   -0.23231  -0.21155
 Alpha virt. eigenvalues --   -0.03965  -0.03343  -0.03215  -0.01452   0.00668
 Alpha virt. eigenvalues --    0.01001   0.01711   0.01811   0.02495   0.03797
 Alpha virt. eigenvalues --    0.05020   0.05515   0.06295   0.06839   0.07036
 Alpha virt. eigenvalues --    0.07476   0.07700   0.08428   0.08956   0.09323
 Alpha virt. eigenvalues --    0.09548   0.10736   0.10957   0.11375   0.11484
 Alpha virt. eigenvalues --    0.12776   0.13109   0.13588   0.13832   0.14198
 Alpha virt. eigenvalues --    0.15020   0.15574   0.16269   0.16663   0.17120
 Alpha virt. eigenvalues --    0.18017   0.18616   0.19901   0.21014   0.21072
 Alpha virt. eigenvalues --    0.22040   0.22624   0.24367   0.24739   0.25569
 Alpha virt. eigenvalues --    0.25642   0.26176   0.26756   0.27762   0.28852
 Alpha virt. eigenvalues --    0.28940   0.30347   0.30541   0.31239   0.31690
 Alpha virt. eigenvalues --    0.32513   0.33351   0.34987   0.36114   0.36499
 Alpha virt. eigenvalues --    0.36888   0.38098   0.39523   0.40166   0.40352
 Alpha virt. eigenvalues --    0.41268   0.41844   0.42494   0.42999   0.43774
 Alpha virt. eigenvalues --    0.43821   0.44529   0.45358   0.45647   0.45772
 Alpha virt. eigenvalues --    0.45882   0.46199   0.46661   0.46794   0.47094
 Alpha virt. eigenvalues --    0.47356   0.47529   0.48008   0.48635   0.49035
 Alpha virt. eigenvalues --    0.49505   0.49668   0.49968   0.50226   0.50968
 Alpha virt. eigenvalues --    0.51341   0.51697   0.52196   0.52385   0.52547
 Alpha virt. eigenvalues --    0.53055   0.53240   0.53894   0.54615   0.54927
 Alpha virt. eigenvalues --    0.55323   0.55491   0.55602   0.56633   0.56823
 Alpha virt. eigenvalues --    0.57662   0.58148   0.58250   0.58666   0.59140
 Alpha virt. eigenvalues --    0.59742   0.59806   0.60143   0.60330   0.60610
 Alpha virt. eigenvalues --    0.61272   0.61658   0.62305   0.62962   0.63231
 Alpha virt. eigenvalues --    0.63604   0.64369   0.64672   0.64720   0.64963
 Alpha virt. eigenvalues --    0.65384   0.65537   0.65954   0.66668   0.67141
 Alpha virt. eigenvalues --    0.67464   0.68303   0.68540   0.69013   0.69584
 Alpha virt. eigenvalues --    0.70596   0.70840   0.71444   0.71808   0.72695
 Alpha virt. eigenvalues --    0.72878   0.73679   0.74694   0.74996   0.75366
 Alpha virt. eigenvalues --    0.76647   0.77161   0.77969   0.78494   0.79474
 Alpha virt. eigenvalues --    0.79815   0.80759   0.81718   0.82061   0.82920
 Alpha virt. eigenvalues --    0.83678   0.84686   0.84944   0.85946   0.86337
 Alpha virt. eigenvalues --    0.87228   0.87848   0.88448   0.88857   0.89268
 Alpha virt. eigenvalues --    0.89706   0.90065   0.91071   0.91995   0.92006
 Alpha virt. eigenvalues --    0.93217   0.93442   0.93973   0.94540   0.94979
 Alpha virt. eigenvalues --    0.95141   0.96104   0.96779   0.97859   0.98829
 Alpha virt. eigenvalues --    0.99040   0.99699   0.99918   1.00469   1.00632
 Alpha virt. eigenvalues --    1.01092   1.01399   1.01877   1.03030   1.04002
 Alpha virt. eigenvalues --    1.04465   1.05009   1.05251   1.05796   1.05974
 Alpha virt. eigenvalues --    1.06858   1.07196   1.07477   1.08447   1.08794
 Alpha virt. eigenvalues --    1.10041   1.10684   1.10983   1.12202   1.12722
 Alpha virt. eigenvalues --    1.12968   1.13980   1.16080   1.17150   1.17814
 Alpha virt. eigenvalues --    1.18822   1.19197   1.21208   1.22878   1.23148
 Alpha virt. eigenvalues --    1.23770   1.23940   1.24092   1.25231   1.26045
 Alpha virt. eigenvalues --    1.27232   1.28606   1.29868   1.30810   1.31290
 Alpha virt. eigenvalues --    1.31539   1.32348   1.34134   1.34389   1.35285
 Alpha virt. eigenvalues --    1.35485   1.36383   1.38461   1.38909   1.39798
 Alpha virt. eigenvalues --    1.40659   1.42382   1.43461   1.43880   1.45632
 Alpha virt. eigenvalues --    1.46255   1.46457   1.47168   1.47987   1.48983
 Alpha virt. eigenvalues --    1.49316   1.49795   1.50294   1.50652   1.51289
 Alpha virt. eigenvalues --    1.51739   1.51864   1.53817   1.54344   1.55236
 Alpha virt. eigenvalues --    1.55787   1.56012   1.56605   1.57018   1.57748
 Alpha virt. eigenvalues --    1.58312   1.58920   1.59293   1.59795   1.60226
 Alpha virt. eigenvalues --    1.60512   1.61258   1.61988   1.62154   1.62551
 Alpha virt. eigenvalues --    1.63172   1.63698   1.64131   1.64818   1.65006
 Alpha virt. eigenvalues --    1.65357   1.66244   1.67350   1.67537   1.67842
 Alpha virt. eigenvalues --    1.67969   1.68220   1.69084   1.69436   1.70422
 Alpha virt. eigenvalues --    1.70992   1.71119   1.71850   1.72498   1.73331
 Alpha virt. eigenvalues --    1.74094   1.74289   1.74451   1.75111   1.76294
 Alpha virt. eigenvalues --    1.76750   1.77413   1.77691   1.78648   1.79008
 Alpha virt. eigenvalues --    1.79407   1.79824   1.80119   1.81091   1.81294
 Alpha virt. eigenvalues --    1.81971   1.82487   1.82905   1.83938   1.84311
 Alpha virt. eigenvalues --    1.84643   1.84801   1.85916   1.86752   1.87101
 Alpha virt. eigenvalues --    1.87737   1.88091   1.89295   1.90160   1.90813
 Alpha virt. eigenvalues --    1.91710   1.92165   1.92961   1.93669   1.94335
 Alpha virt. eigenvalues --    1.95025   1.95497   1.96628   1.97615   1.98080
 Alpha virt. eigenvalues --    1.98286   1.98970   1.99747   2.00297   2.01098
 Alpha virt. eigenvalues --    2.02804   2.02965   2.03394   2.03791   2.04321
 Alpha virt. eigenvalues --    2.05435   2.06118   2.07292   2.08573   2.09524
 Alpha virt. eigenvalues --    2.10537   2.11455   2.12343   2.12748   2.14775
 Alpha virt. eigenvalues --    2.15474   2.16073   2.17403   2.18068   2.19907
 Alpha virt. eigenvalues --    2.20473   2.22785   2.23829   2.24398   2.25629
 Alpha virt. eigenvalues --    2.26819   2.28481   2.29404   2.30134   2.32533
 Alpha virt. eigenvalues --    2.33858   2.33983   2.34851   2.35957   2.36685
 Alpha virt. eigenvalues --    2.38073   2.39248   2.39774   2.40110   2.41379
 Alpha virt. eigenvalues --    2.41810   2.42354   2.43845   2.44587   2.45369
 Alpha virt. eigenvalues --    2.45981   2.46948   2.48350   2.49927   2.50113
 Alpha virt. eigenvalues --    2.51977   2.52969   2.53378   2.53809   2.56520
 Alpha virt. eigenvalues --    2.58117   2.58989   2.59549   2.61605   2.62878
 Alpha virt. eigenvalues --    2.63253   2.64395   2.66664   2.68793   2.70298
 Alpha virt. eigenvalues --    2.70584   2.71357   2.71695   2.73878   2.77582
 Alpha virt. eigenvalues --    2.78745   2.79756   2.80881   2.82975   2.87375
 Alpha virt. eigenvalues --    2.87898   2.93560   2.95172   2.96471   2.98520
 Alpha virt. eigenvalues --    3.03620   3.03759   3.07365   3.08828   3.10360
 Alpha virt. eigenvalues --    3.14291   3.15454   3.40797   3.49005   3.52566
 Alpha virt. eigenvalues --    3.53927
          Condensed to atoms (all electrons):
 Mulliken atomic charges:
              1
     1  C    0.103396
     2  N   -0.132963
     3  C    0.126438
     4  C   -0.078204
     5  C    0.089564
     6  N   -0.177219
     7  C    0.065288
     8  C   -0.005263
     9  C    0.085233
    10  C    0.090441
    11  C    0.026969
    12  C   -0.002509
    13  N   -0.278942
    14  C    0.141799
    15  C   -0.024901
    16  C    0.047885
    17  C   -0.100109
    18  S    0.161458
    19  C   -0.150463
    20  C    0.129420
    21  O   -0.240676
    22  C    0.122293
    23  N   -0.227258
    24  N   -0.061562
    25  N   -0.182956
    26  C    0.010721
    27  C    0.044121
    28  C    0.037568
    29  C    0.039013
    30  C    0.032439
    31  C    0.213253
    32  H    0.048784
    33  H    0.049720
    34  H    0.033408
    35  H   -0.002701
    36  H   -0.018524
    37  H   -0.045204
    38  H   -0.017471
    39  H   -0.023721
    40  H   -0.042526
    41  H    0.037051
    42  H    0.048656
    43  H   -0.027130
    44  H    0.019346
    45  H    0.024282
    46  H    0.060610
    47  H    0.059902
    48  H   -0.023071
    49  H   -0.027883
    50  H   -0.026105
    51  H   -0.031697
 Sum of Mulliken atomic charges =   0.00000
 Mulliken charges with hydrogens summed into heavy atoms:
              1
     1  C    0.235309
     2  N   -0.132963
     3  C    0.123737
     4  C   -0.078204
     5  C    0.071040
     6  N   -0.177219
     7  C    0.065288
     8  C   -0.050467
     9  C    0.067762
    10  C    0.090441
    11  C    0.003248
    12  C   -0.045035
    13  N   -0.278942
    14  C    0.227506
    15  C   -0.024901
    16  C    0.020756
    17  C   -0.080763
    18  S    0.161458
    19  C   -0.126181
    20  C    0.129420
    21  O   -0.240676
    22  C    0.242806
    23  N   -0.227258
    24  N   -0.061562
    25  N   -0.182956
    26  C    0.010721
    27  C    0.021050
    28  C    0.009685
    29  C    0.012908
    30  C    0.000742
    31  C    0.213253
 Sum of Mulliken charges with hydrogens summed into heavy atoms =   0.00000
 Electronic spatial extent (au):  <R**2>=          19807.9036
 Charge=              0.0000 electrons
 Dipole moment (field-independent basis, Debye):
    X=             -2.4722    Y=              2.8928    Z=              1.4597  Tot=              4.0757
 Quadrupole moment (field-independent basis, Debye-Ang):
   XX=           -189.6958   YY=           -168.8485   ZZ=           -184.7760
   XY=             31.9536   XZ=              9.4708   YZ=            -13.0273
 Traceless Quadrupole moment (field-independent basis, Debye-Ang):
   XX=             -8.5891   YY=             12.2583   ZZ=             -3.6692
   XY=             31.9536   XZ=              9.4708   YZ=            -13.0273
 Octapole moment (field-independent basis, Debye-Ang**2):
  XXX=           -129.8908  YYY=             37.3682  ZZZ=             22.4811  XYY=            -55.7147
  XXY=           -141.1750  XXZ=            102.7391  XZZ=             -5.5034  YZZ=             15.8789
  YYZ=              9.1143  XYZ=            -34.7052
 Hexadecapole moment (field-independent basis, Debye-Ang**3):
 XXXX=         -19378.2922 YYYY=          -5603.1907 ZZZZ=          -1566.1425 XXXY=           1335.5867
 XXXZ=            111.4495 YYYX=            418.7917 YYYZ=            -76.2664 ZZZX=             79.7033
 ZZZY=            -80.1801 XXYY=          -3581.6829 XXZZ=          -3617.5928 YYZZ=          -1278.9944
 XXYZ=           -376.6362 YYXZ=             56.9146 ZZXY=             83.5683
 N-N= 2.910091020824D+03 E-N=-9.769557383000D+03  KE= 1.680913609171D+03
 No NMR shielding tensors so no spin-rotation constants.
 Leave Link  601 at Sat Sep 10 09:37:14 2022, MaxMem=  209715200 cpu:       3.8
 (Enter /opt/gaussian/l602.exe)
 Breneman (CHELPG) radii used.
 Read replacement radii for each type of atom:
 Rad(35) =   1.900000000000D+00
 Atom Element Radius
    1     6    1.50
    2     7    1.70
    3     6    1.50
    4     6    1.50
    5     6    1.50
    6     7    1.70
    7     6    1.50
    8     6    1.50
    9     6    1.50
   10     6    1.50
   11     6    1.50
   12     6    1.50
   13     7    1.70
   14     6    1.50
   15     6    1.50
   16     6    1.50
   17     6    1.50
   18    16    2.00
   19     6    1.50
   20     6    1.50
   21     8    1.70
   22     6    1.50
   23     7    1.70
   24     7    1.70
   25     7    1.70
   26     6    1.50
   27     6    1.50
   28     6    1.50
   29     6    1.50
   30     6    1.50
   31     6    1.50
   32     1    1.45
   33     1    1.45
   34     1    1.45
   35     1    1.45
   36     1    1.45
   37     1    1.45
   38     1    1.45
   39     1    1.45
   40     1    1.45
   41     1    1.45
   42     1    1.45
   43     1    1.45
   44     1    1.45
   45     1    1.45
   46     1    1.45
   47     1    1.45
   48     1    1.45
   49     1    1.45
   50     1    1.45
   51     1    1.45
 Generate Potential Derived Charges using the Breneman model, NDens= 1.
 Grid spacing= 0.300 Box extension= 2.800
 NStep X,Y,Z=   72     54     40   Total possible points=      155520
 Number of Points to Fit=   28630

 **********************************************************************

            Electrostatic Properties Using The SCF Density

 **********************************************************************

       Atomic Center    1 is at  -8.268709 -2.503512  0.806061
       Atomic Center    2 is at  -7.234919 -1.545742  0.464461
       Atomic Center    3 is at  -5.908119 -1.779311  0.284331
       Atomic Center    4 is at  -5.299200 -0.546341  0.056851
       Atomic Center    5 is at  -6.385250  0.370589  0.130841
       Atomic Center    6 is at  -7.544980 -0.236752  0.375951
       Atomic Center    7 is at  -3.881260 -0.266771 -0.204509
       Atomic Center    8 is at  -3.012159 -1.254901 -0.706069
       Atomic Center    9 is at  -1.666179 -0.996890 -0.949839
       Atomic Center   10 is at  -1.133600  0.278880 -0.700739
       Atomic Center   11 is at  -1.987150  1.275420 -0.203219
       Atomic Center   12 is at  -3.334370  1.005019  0.037001
       Atomic Center   13 is at   0.240300  0.585900 -0.990449
       Atomic Center   14 is at   0.551090  1.915040 -1.531119
       Atomic Center   15 is at   1.074790  2.925950 -0.530659
       Atomic Center   16 is at   1.606929  4.199140 -0.928699
       Atomic Center   17 is at   2.009589  4.967660  0.130281
       Atomic Center   18 is at   1.752629  4.155600  1.643771
       Atomic Center   19 is at   1.093570  2.766090  0.833831
       Atomic Center   20 is at   1.241870 -0.341940 -0.737319
       Atomic Center   21 is at   1.044271 -1.420400 -0.207909
       Atomic Center   22 is at   2.665490  0.066371 -1.171529
       Atomic Center   23 is at   3.617241 -0.994329 -0.960479
       Atomic Center   24 is at   4.142291 -1.642999 -2.045409
       Atomic Center   25 is at   4.975901 -2.541289 -1.648249
       Atomic Center   26 is at   5.023501 -2.512129 -0.267639
       Atomic Center   27 is at   5.778051 -3.276169  0.640191
       Atomic Center   28 is at   5.617801 -3.005219  1.991731
       Atomic Center   29 is at   4.724181 -1.999559  2.441421
       Atomic Center   30 is at   3.967721 -1.238599  1.559341
       Atomic Center   31 is at   4.138021 -1.513839  0.192511
       Atomic Center   32 is at  -8.492419 -2.475292  1.884861
       Atomic Center   33 is at  -9.181559 -2.255362  0.248131
       Atomic Center   34 is at  -7.934119 -3.512942  0.531471
       Atomic Center   35 is at  -5.495449 -2.782531  0.348871
       Atomic Center   36 is at  -6.368190  1.449299 -0.013339
       Atomic Center   37 is at  -3.401459 -2.249201 -0.935639
       Atomic Center   38 is at  -1.027139 -1.787850 -1.334949
       Atomic Center   39 is at  -1.600030  2.270340  0.020891
       Atomic Center   40 is at  -3.964180  1.797289  0.446371
       Atomic Center   41 is at   1.271890  1.816960 -2.358199
       Atomic Center   42 is at  -0.371290  2.295520 -1.994069
       Atomic Center   43 is at   1.685549  4.524510 -1.967379
       Atomic Center   44 is at   2.447639  5.963540  0.111041
       Atomic Center   45 is at   0.748530  1.911070  1.411481
       Atomic Center   46 is at   2.696020  0.280831 -2.248969
       Atomic Center   47 is at   2.983350  0.974721 -0.635639
       Atomic Center   48 is at   6.459421 -4.048299  0.279841
       Atomic Center   49 is at   6.184791 -3.576419  2.729661
       Atomic Center   50 is at   4.623781 -1.824359  3.514901
       Atomic Center   51 is at   3.268140 -0.481629  1.914571
   28630 points will be used for fitting atomic charges
 Fitting point charges to electrostatic potential
 Charges from ESP fit, RMS=   0.00421 RRMS=   0.24889:
 Charge=   0.00000 Dipole=    -2.3417     2.9887     1.3590 Tot=     4.0327
              1
     1  C   -0.150618
     2  N    0.330924
     3  C   -0.228621
     4  C   -0.077220
     5  C    0.098816
     6  N   -0.456428
     7  C    0.111314
     8  C   -0.091596
     9  C   -0.195555
    10  C    0.231001
    11  C   -0.068508
    12  C   -0.200521
    13  N   -0.434681
    14  C    0.141917
    15  C    0.155142
    16  C   -0.209360
    17  C   -0.154464
    18  S    0.011011
    19  C   -0.184285
    20  C    0.604448
    21  O   -0.508310
    22  C   -0.022104
    23  N    0.301419
    24  N   -0.229855
    25  N   -0.343791
    26  C    0.417681
    27  C   -0.271101
    28  C   -0.033275
    29  C   -0.125075
    30  C   -0.130850
    31  C   -0.070769
    32  H    0.083579
    33  H    0.083713
    34  H    0.068566
    35  H    0.152461
    36  H    0.086754
    37  H    0.082558
    38  H    0.147422
    39  H    0.046663
    40  H    0.113069
    41  H    0.061737
    42  H    0.012293
    43  H    0.112658
    44  H    0.170550
    45  H    0.156553
    46  H    0.018305
    47  H   -0.029209
    48  H    0.129283
    49  H    0.081130
    50  H    0.098663
    51  H    0.106567
 Charges from ESP fit with hydrogens summed into heavy atoms:
              1
     1  C    0.085240
     2  N    0.330924
     3  C   -0.076160
     4  C   -0.077220
     5  C    0.185570
     6  N   -0.456428
     7  C    0.111314
     8  C   -0.009038
     9  C   -0.048133
    10  C    0.231001
    11  C   -0.021846
    12  C   -0.087453
    13  N   -0.434681
    14  C    0.215948
    15  C    0.155142
    16  C   -0.096702
    17  C    0.016086
    18  S    0.011011
    19  C   -0.027732
    20  C    0.604448
    21  O   -0.508310
    22  C   -0.033008
    23  N    0.301419
    24  N   -0.229855
    25  N   -0.343791
    26  C    0.417681
    27  C   -0.141818
    28  C    0.047855
    29  C   -0.026412
    30  C   -0.024283
    31  C   -0.070769
    32  H    0.000000
    33  H    0.000000
    34  H    0.000000
    35  H    0.000000
    36  H    0.000000
    37  H    0.000000
    38  H    0.000000
    39  H    0.000000
    40  H    0.000000
    41  H    0.000000
    42  H    0.000000
    43  H    0.000000
    44  H    0.000000
    45  H    0.000000
    46  H    0.000000
    47  H    0.000000
    48  H    0.000000
    49  H    0.000000
    50  H    0.000000
    51  H    0.000000
 -----------------------------------------------------------------

              Electrostatic Properties (Atomic Units)

 -----------------------------------------------------------------
    Center     Electric         -------- Electric Field --------
               Potential          X             Y             Z
 -----------------------------------------------------------------
    1 Atom    -14.698003
    2 Atom    -18.291784
    3 Atom    -14.720630
    4 Atom    -14.754943
    5 Atom    -14.740790
    6 Atom    -18.373082
    7 Atom    -14.740459
    8 Atom    -14.752701
    9 Atom    -14.753033
   10 Atom    -14.705575
   11 Atom    -14.748353
   12 Atom    -14.751183
   13 Atom    -18.315916
   14 Atom    -14.681499
   15 Atom    -14.726778
   16 Atom    -14.735182
   17 Atom    -14.715319
   18 Atom    -59.173331
   19 Atom    -14.718008
   20 Atom    -14.636672
   21 Atom    -22.365233
   22 Atom    -14.684734
   23 Atom    -18.295634
   24 Atom    -18.333166
   25 Atom    -18.371555
   26 Atom    -14.739527
   27 Atom    -14.750010
   28 Atom    -14.753343
   29 Atom    -14.747897
   30 Atom    -14.743739
   31 Atom    -14.716829
   32 Atom     -1.078976
   33 Atom     -1.076263
   34 Atom     -1.069125
   35 Atom     -1.058974
   36 Atom     -1.086625
   37 Atom     -1.093689
   38 Atom     -1.096471
   39 Atom     -1.084123
   40 Atom     -1.091900
   41 Atom     -1.066568
   42 Atom     -1.066947
   43 Atom     -1.065033
   44 Atom     -1.051852
   45 Atom     -1.052550
   46 Atom     -1.056220
   47 Atom     -1.060399
   48 Atom     -1.091213
   49 Atom     -1.097032
   50 Atom     -1.093680
   51 Atom     -1.083214
 -----------------------------------------------------------------
 Leave Link  602 at Sat Sep 10 09:37:29 2022, MaxMem=  209715200 cpu:     109.2
 (Enter /opt/gaussian/l9999.exe)
 1\1\GINC-LQCAPF-6\SP\RB3LYP\CC-pVDZ\C23H20N6O1S1\LQCAPF-6\10-Sep-2022\
 0\\#p b3lyp/cc-pvdz pop=(chelpg,readradii)\\Mol18.log\\0,1\C,0,-8.2687
 1,-2.50351,0.80606\N,0,-7.23492,-1.54574,0.46446\C,0,-5.90812,-1.77931
 ,0.28433\C,0,-5.2992,-0.54634,0.05685\C,0,-6.38525,0.37059,0.13084\N,0
 ,-7.54498,-0.23675,0.37595\C,0,-3.88126,-0.26677,-0.20451\C,0,-3.01216
 ,-1.2549,-0.70607\C,0,-1.66618,-0.99689,-0.94984\C,0,-1.1336,0.27888,-
 0.70074\C,0,-1.98715,1.27542,-0.20322\C,0,-3.33437,1.00502,0.037\N,0,0
 .2403,0.5859,-0.99045\C,0,0.55109,1.91504,-1.53112\C,0,1.07479,2.92595
 ,-0.53066\C,0,1.60693,4.19914,-0.9287\C,0,2.00959,4.96766,0.13028\S,0,
 1.75263,4.1556,1.64377\C,0,1.09357,2.76609,0.83383\C,0,1.24187,-0.3419
 4,-0.73732\O,0,1.04427,-1.4204,-0.20791\C,0,2.66549,0.06637,-1.17153\N
 ,0,3.61724,-0.99433,-0.96048\N,0,4.14229,-1.643,-2.04541\N,0,4.9759,-2
 .54129,-1.64825\C,0,5.0235,-2.51213,-0.26764\C,0,5.77805,-3.27617,0.64
 019\C,0,5.6178,-3.00522,1.99173\C,0,4.72418,-1.99956,2.44142\C,0,3.967
 72,-1.2386,1.55934\C,0,4.13802,-1.51384,0.19251\H,0,-8.49242,-2.47529,
 1.88486\H,0,-9.18156,-2.25536,0.24813\H,0,-7.93412,-3.51294,0.53147\H,
 0,-5.49545,-2.78253,0.34887\H,0,-6.36819,1.4493,-0.01334\H,0,-3.40146,
 -2.2492,-0.93564\H,0,-1.02714,-1.78785,-1.33495\H,0,-1.60003,2.27034,0
 .02089\H,0,-3.96418,1.79729,0.44637\H,0,1.27189,1.81696,-2.3582\H,0,-0
 .37129,2.29552,-1.99407\H,0,1.68555,4.52451,-1.96738\H,0,2.44764,5.963
 54,0.11104\H,0,0.74853,1.91107,1.41148\H,0,2.69602,0.28083,-2.24897\H,
 0,2.98335,0.97472,-0.63564\H,0,6.45942,-4.0483,0.27984\H,0,6.18479,-3.
 57642,2.72966\H,0,4.62378,-1.82436,3.5149\H,0,3.26814,-0.48163,1.91457
 \\Version=EM64L-G09RevC.01\State=1-A\HF=-1690.4563597\RMSD=5.151e-09\D
 ipole=-0.9726472,1.1381251,0.5742761\Quadrupole=-6.3857541,9.1137236,-
 2.7279695,23.7567346,7.0413182,-9.685457\PG=C01 [X(C23H20N6O1S1)]\\@


 THE WHOLE OF SCIENCE IS NOTHING MORE THAN A REFINEMENT OF EVEYDAY THINKING.
                                                              -- A. EINSTEIN
 Job cpu time:  0 days  1 hours 33 minutes 48.2 seconds.
 File lengths (MBytes):  RWF=    160 Int=      0 D2E=      0 Chk=     11 Scr=      1
 Normal termination of Gaussian 09 at Sat Sep 10 09:37:29 2022.
