 Entering Gaussian System, Link 0=g09
 Input=Mol23.gjf
 Output=Mol23.log
 Initial command:
 /opt/gaussian/l1.exe /home/scr/lqcapf-6/Gau-560468.inp -scrdir=/home/scr/lqcapf-6/
 Entering Link 1 = /opt/gaussian/l1.exe PID=    560470.
  
 Copyright (c) 1988,1990,1992,1993,1995,1998,2003,2009,2011,
            Gaussian, Inc.  All Rights Reserved.
  
 This is part of the Gaussian(R) 09 program.  It is based on
 the Gaussian(R) 03 system (copyright 2003, Gaussian, Inc.),
 the Gaussian(R) 98 system (copyright 1998, Gaussian, Inc.),
 the Gaussian(R) 94 system (copyright 1995, Gaussian, Inc.),
 the Gaussian 92(TM) system (copyright 1992, Gaussian, Inc.),
 the Gaussian 90(TM) system (copyright 1990, Gaussian, Inc.),
 the Gaussian 88(TM) system (copyright 1988, Gaussian, Inc.),
 the Gaussian 86(TM) system (copyright 1986, Carnegie Mellon
 University), and the Gaussian 82(TM) system (copyright 1983,
 Carnegie Mellon University). Gaussian is a federally registered
 trademark of Gaussian, Inc.
  
 This software contains proprietary and confidential information,
 including trade secrets, belonging to Gaussian, Inc.
  
 This software is provided under written license and may be
 used, copied, transmitted, or stored only in accord with that
 written license.
  
 The following legend is applicable only to US Government
 contracts under FAR:
  
                    RESTRICTED RIGHTS LEGEND
  
 Use, reproduction and disclosure by the US Government is
 subject to restrictions as set forth in subparagraphs (a)
 and (c) of the Commercial Computer Software - Restricted
 Rights clause in FAR 52.227-19.
  
 Gaussian, Inc.
 340 Quinnipiac St., Bldg. 40, Wallingford CT 06492
  
  
 ---------------------------------------------------------------
 Warning -- This program may not be used in any manner that
 competes with the business of Gaussian, Inc. or will provide
 assistance to any competitor of Gaussian, Inc.  The licensee
 of this program is prohibited from giving any competitor of
 Gaussian, Inc. access to this program.  By using this program,
 the user acknowledges that Gaussian, Inc. is engaged in the
 business of creating and licensing software in the field of
 computational chemistry and represents and warrants to the
 licensee that it is not a competitor of Gaussian, Inc. and that
 it will not use this program in any manner prohibited above.
 ---------------------------------------------------------------
  

 Cite this work as:
 Gaussian 09, Revision C.01,
 M. J. Frisch, G. W. Trucks, H. B. Schlegel, G. E. Scuseria, 
 M. A. Robb, J. R. Cheeseman, G. Scalmani, V. Barone, B. Mennucci, 
 G. A. Petersson, H. Nakatsuji, M. Caricato, X. Li, H. P. Hratchian, 
 A. F. Izmaylov, J. Bloino, G. Zheng, J. L. Sonnenberg, M. Hada, 
 M. Ehara, K. Toyota, R. Fukuda, J. Hasegawa, M. Ishida, T. Nakajima, 
 Y. Honda, O. Kitao, H. Nakai, T. Vreven, J. A. Montgomery, Jr., 
 J. E. Peralta, F. Ogliaro, M. Bearpark, J. J. Heyd, E. Brothers, 
 K. N. Kudin, V. N. Staroverov, T. Keith, R. Kobayashi, J. Normand, 
 K. Raghavachari, A. Rendell, J. C. Burant, S. S. Iyengar, J. Tomasi, 
 M. Cossi, N. Rega, J. M. Millam, M. Klene, J. E. Knox, J. B. Cross, 
 V. Bakken, C. Adamo, J. Jaramillo, R. Gomperts, R. E. Stratmann, 
 O. Yazyev, A. J. Austin, R. Cammi, C. Pomelli, J. W. Ochterski, 
 R. L. Martin, K. Morokuma, V. G. Zakrzewski, G. A. Voth, 
 P. Salvador, J. J. Dannenberg, S. Dapprich, A. D. Daniels, 
 O. Farkas, J. B. Foresman, J. V. Ortiz, J. Cioslowski, 
 and D. J. Fox, Gaussian, Inc., Wallingford CT, 2010.
 
 ******************************************
 Gaussian 09:  EM64L-G09RevC.01 23-Sep-2011
                10-Sep-2022 
 ******************************************
 %nprocshared=8
 Will use up to    8 processors via shared memory.
 %mem=1600MB
 ---------------------------------------
 #p b3lyp/cc-pvdz pop=(chelpg,readradii)
 ---------------------------------------
 1/38=1/1;
 2/12=2,17=6,18=5,40=1/2;
 3/5=16,11=2,16=1,25=1,30=1,74=-5/1,2,3;
 4//1;
 5/5=2,38=5/2;
 6/7=2,8=2,9=2,10=2,15=8,20=103,28=1/1,2;
 99/5=1,9=1/99;
 Leave Link    1 at Sat Sep 10 10:25:49 2022, MaxMem=  209715200 cpu:       0.2
 (Enter /opt/gaussian/l101.exe)
 ---------
 Mol23.log
 ---------
 Charge =  0 Multiplicity = 1
 Symbolic Z-Matrix:
 O                     1.34408  -0.75932  -0.39108 
 C                     1.42741   0.45404  -0.46474 
 C                     2.80375   1.14238  -0.56809 
 N                     3.87862   0.19591  -0.73278 
 N                     4.59868   0.21702  -1.89806 
 N                     5.54402  -0.65503  -1.83625 
 C                     5.47817  -1.28369  -0.60766 
 C                     6.28708  -2.28974  -0.05008 
 C                     5.98063  -2.71815   1.23358 
 C                     4.88886  -2.16789   1.95286 
 C                     4.0751   -1.17921   1.41484 
 C                     4.3951   -0.74282   0.11844 
 N                     0.3251    1.28951  -0.45789 
 C                     0.41366   2.76051  -0.42358 
 C                     0.39926   3.34798   0.97422 
 C                    -0.04573   4.78034   1.16753 
 C                    -0.90926   3.64701   1.66987 
 C                    -0.9837    0.7002   -0.36001 
 C                    -1.32954  -0.13192   0.71169 
 C                    -2.60958  -0.67663   0.79154 
 C                    -3.58337  -0.40606  -0.18768 
 C                    -3.22033   0.42611  -1.26157 
 C                    -1.93653   0.96431  -1.3514 
 C                    -4.94651  -0.98389  -0.09259 
 C                    -5.17065  -2.29662   0.35444 
 C                    -6.47518  -2.78289   0.42077 
 C                    -7.52395  -1.94403   0.03424 
 N                    -7.34268  -0.68594  -0.39022 
 C                    -6.08567  -0.23339  -0.44352 
 H                     2.85695   1.79785  -1.44772 
 H                     2.98187   1.76371   0.32613 
 H                     7.12049  -2.70611  -0.61781 
 H                     6.58378  -3.49782   1.70322 
 H                     4.67689  -2.54145   2.95722 
 H                     3.22024  -0.78342   1.96281 
 H                     1.318     3.0792   -0.96014 
 H                    -0.4348    3.16272  -0.99711 
 H                     1.21928   3.00919   1.61589 
 H                     0.49088   5.39115   1.89645 
 H                    -0.38826   5.32981   0.28627 
 H                    -1.83401   3.43085   1.12967 
 H                    -0.96771   3.47847   2.74729 
 H                    -0.59298  -0.35283   1.48349 
 H                    -2.86582  -1.30402   1.64778 
 H                    -3.93797   0.62467  -2.05989 
 H                    -1.66658   1.57802  -2.21345 
 H                    -4.32737  -2.93678   0.62349 
 H                    -6.67789  -3.80213   0.75596 
 H                    -8.55972  -2.29813   0.06629 
 H                    -5.96823   0.80566  -0.76947 
 
 NAtoms=     50 NQM=        0 NQMF=       0 NMMI=     50 NMMIF=      0
                NMic=       0 NMicF=      0.
                    Isotopes and Nuclear Properties:
 (Nuclear quadrupole moments (NQMom) in fm**2, nuclear magnetic moments (NMagM)
  in nuclear magnetons)

  Atom         1           2           3           4           5           6           7           8           9          10
 IAtWgt=          16          12          12          14          14          14          12          12          12          12
 AtmWgt=  15.9949146  12.0000000  12.0000000  14.0030740  14.0030740  14.0030740  12.0000000  12.0000000  12.0000000  12.0000000
 NucSpn=           0           0           0           2           2           2           0           0           0           0
 AtZEff=   0.0000000   0.0000000   0.0000000   0.0000000   0.0000000   0.0000000   0.0000000   0.0000000   0.0000000   0.0000000
 NQMom=    0.0000000   0.0000000   0.0000000   2.0440000   2.0440000   2.0440000   0.0000000   0.0000000   0.0000000   0.0000000
 NMagM=    0.0000000   0.0000000   0.0000000   0.4037610   0.4037610   0.4037610   0.0000000   0.0000000   0.0000000   0.0000000

  Atom        11          12          13          14          15          16          17          18          19          20
 IAtWgt=          12          12          14          12          12          12          12          12          12          12
 AtmWgt=  12.0000000  12.0000000  14.0030740  12.0000000  12.0000000  12.0000000  12.0000000  12.0000000  12.0000000  12.0000000
 NucSpn=           0           0           2           0           0           0           0           0           0           0
 AtZEff=   0.0000000   0.0000000   0.0000000   0.0000000   0.0000000   0.0000000   0.0000000   0.0000000   0.0000000   0.0000000
 NQMom=    0.0000000   0.0000000   2.0440000   0.0000000   0.0000000   0.0000000   0.0000000   0.0000000   0.0000000   0.0000000
 NMagM=    0.0000000   0.0000000   0.4037610   0.0000000   0.0000000   0.0000000   0.0000000   0.0000000   0.0000000   0.0000000

  Atom        21          22          23          24          25          26          27          28          29          30
 IAtWgt=          12          12          12          12          12          12          12          14          12           1
 AtmWgt=  12.0000000  12.0000000  12.0000000  12.0000000  12.0000000  12.0000000  12.0000000  14.0030740  12.0000000   1.0078250
 NucSpn=           0           0           0           0           0           0           0           2           0           1
 AtZEff=   0.0000000   0.0000000   0.0000000   0.0000000   0.0000000   0.0000000   0.0000000   0.0000000   0.0000000   0.0000000
 NQMom=    0.0000000   0.0000000   0.0000000   0.0000000   0.0000000   0.0000000   0.0000000   2.0440000   0.0000000   0.0000000
 NMagM=    0.0000000   0.0000000   0.0000000   0.0000000   0.0000000   0.0000000   0.0000000   0.4037610   0.0000000   2.7928460

  Atom        31          32          33          34          35          36          37          38          39          40
 IAtWgt=           1           1           1           1           1           1           1           1           1           1
 AtmWgt=   1.0078250   1.0078250   1.0078250   1.0078250   1.0078250   1.0078250   1.0078250   1.0078250   1.0078250   1.0078250
 NucSpn=           1           1           1           1           1           1           1           1           1           1
 AtZEff=   0.0000000   0.0000000   0.0000000   0.0000000   0.0000000   0.0000000   0.0000000   0.0000000   0.0000000   0.0000000
 NQMom=    0.0000000   0.0000000   0.0000000   0.0000000   0.0000000   0.0000000   0.0000000   0.0000000   0.0000000   0.0000000
 NMagM=    2.7928460   2.7928460   2.7928460   2.7928460   2.7928460   2.7928460   2.7928460   2.7928460   2.7928460   2.7928460

  Atom        41          42          43          44          45          46          47          48          49          50
 IAtWgt=           1           1           1           1           1           1           1           1           1           1
 AtmWgt=   1.0078250   1.0078250   1.0078250   1.0078250   1.0078250   1.0078250   1.0078250   1.0078250   1.0078250   1.0078250
 NucSpn=           1           1           1           1           1           1           1           1           1           1
 AtZEff=   0.0000000   0.0000000   0.0000000   0.0000000   0.0000000   0.0000000   0.0000000   0.0000000   0.0000000   0.0000000
 NQMom=    0.0000000   0.0000000   0.0000000   0.0000000   0.0000000   0.0000000   0.0000000   0.0000000   0.0000000   0.0000000
 NMagM=    2.7928460   2.7928460   2.7928460   2.7928460   2.7928460   2.7928460   2.7928460   2.7928460   2.7928460   2.7928460
 Leave Link  101 at Sat Sep 10 10:25:49 2022, MaxMem=  209715200 cpu:       0.7
 (Enter /opt/gaussian/l202.exe)
                          Input orientation:                          
 ---------------------------------------------------------------------
 Center     Atomic      Atomic             Coordinates (Angstroms)
 Number     Number       Type             X           Y           Z
 ---------------------------------------------------------------------
      1          8           0        1.344080   -0.759320   -0.391080
      2          6           0        1.427410    0.454040   -0.464740
      3          6           0        2.803750    1.142380   -0.568090
      4          7           0        3.878620    0.195910   -0.732780
      5          7           0        4.598680    0.217020   -1.898060
      6          7           0        5.544020   -0.655030   -1.836250
      7          6           0        5.478170   -1.283690   -0.607660
      8          6           0        6.287080   -2.289740   -0.050080
      9          6           0        5.980630   -2.718150    1.233580
     10          6           0        4.888860   -2.167890    1.952860
     11          6           0        4.075100   -1.179210    1.414840
     12          6           0        4.395100   -0.742820    0.118440
     13          7           0        0.325100    1.289510   -0.457890
     14          6           0        0.413660    2.760510   -0.423580
     15          6           0        0.399260    3.347980    0.974220
     16          6           0       -0.045730    4.780340    1.167530
     17          6           0       -0.909260    3.647010    1.669870
     18          6           0       -0.983700    0.700200   -0.360010
     19          6           0       -1.329540   -0.131920    0.711690
     20          6           0       -2.609580   -0.676630    0.791540
     21          6           0       -3.583370   -0.406060   -0.187680
     22          6           0       -3.220330    0.426110   -1.261570
     23          6           0       -1.936530    0.964310   -1.351400
     24          6           0       -4.946510   -0.983890   -0.092590
     25          6           0       -5.170650   -2.296620    0.354440
     26          6           0       -6.475180   -2.782890    0.420770
     27          6           0       -7.523950   -1.944030    0.034240
     28          7           0       -7.342680   -0.685940   -0.390220
     29          6           0       -6.085670   -0.233390   -0.443520
     30          1           0        2.856950    1.797850   -1.447720
     31          1           0        2.981870    1.763710    0.326130
     32          1           0        7.120490   -2.706110   -0.617810
     33          1           0        6.583780   -3.497820    1.703220
     34          1           0        4.676890   -2.541450    2.957220
     35          1           0        3.220240   -0.783420    1.962810
     36          1           0        1.318000    3.079200   -0.960140
     37          1           0       -0.434800    3.162720   -0.997110
     38          1           0        1.219280    3.009190    1.615890
     39          1           0        0.490880    5.391150    1.896450
     40          1           0       -0.388260    5.329810    0.286270
     41          1           0       -1.834010    3.430850    1.129670
     42          1           0       -0.967710    3.478470    2.747290
     43          1           0       -0.592980   -0.352830    1.483490
     44          1           0       -2.865820   -1.304020    1.647780
     45          1           0       -3.937970    0.624670   -2.059890
     46          1           0       -1.666580    1.578020   -2.213450
     47          1           0       -4.327370   -2.936780    0.623490
     48          1           0       -6.677890   -3.802130    0.755960
     49          1           0       -8.559720   -2.298130    0.066290
     50          1           0       -5.968230    0.805660   -0.769470
 ---------------------------------------------------------------------
                    Distance matrix (angstroms):
                    1          2          3          4          5
     1  O    0.000000
     2  C    1.218447   0.000000
     3  C    2.403837   1.542338   0.000000
     4  N    2.730040   2.479296   1.441622   0.000000
     5  N    3.717075   3.488200   2.418033   1.369967   0.000000
     6  N    4.442847   4.478566   3.513971   2.171475   1.287618
     7  C    4.172837   4.410078   3.611081   2.182529   2.165817
     8  C    5.185722   5.596129   4.917456   3.527778   3.542537
     9  C    5.289058   5.803352   5.314346   4.095945   4.509122
    10  C    4.477007   4.970004   4.654112   3.717633   4.538897
    11  C    3.300928   3.634637   3.307283   2.557700   3.633029
    12  C    3.093316   3.252654   2.560800   1.368408   2.242545
    13  N    2.289211   1.383165   2.485457   3.728140   4.635495
    14  C    3.640871   2.519759   2.889941   4.321889   5.114472
    15  C    4.430197   3.391546   3.609011   4.995532   5.973946
    16  C    5.920192   4.852970   4.936260   6.326824   7.196685
    17  C    5.361045   4.495736   5.006803   6.372332   7.404888
    18  C    2.747676   2.425905   3.818848   4.902593   5.810510
    19  C    2.959388   3.054195   4.510628   5.414693   6.486628
    20  C    4.127573   4.376522   5.870395   6.721727   7.745423
    21  C    4.944282   5.091606   6.583136   7.506051   8.382098
    22  C    4.795502   4.715634   6.106021   7.122338   7.847659
    23  C    3.828252   3.516054   4.807862   5.898228   6.600473
    24  C    6.301670   6.544692   8.050693   8.926628   9.788389
    25  C    6.735043   7.195247   8.733203   9.449023  10.335954
    26  C    8.117559   8.585614  10.123445  10.835363  11.704991
    27  C    8.956919   9.280440  10.795838  11.626963  12.464433
    28  N    8.687070   8.844184  10.311374  11.261109  12.070004
    29  C    7.448526   7.544493   8.996113   9.977727  10.792307
    30  H    3.153471   2.194461   1.098281   2.030064   2.394881
    31  H    3.092317   2.181068   1.103362   2.093669   3.154892
    32  H    6.099861   6.513151   5.783389   4.352546   4.067340
    33  H    6.272155   6.848752   6.401479   5.186099   5.541649
    34  H    5.049230   5.589445   5.432041   4.663312   5.584713
    35  H    3.010209   3.261678   3.207433   2.942577   4.219869
    36  H    3.880560   2.673735   2.472332   3.862878   4.453609
    37  H    4.349033   3.329894   3.841099   5.241891   5.901252
    38  H    4.271437   3.301686   3.281051   4.528011   5.618221
    39  H    6.617328   5.552239   5.429123   6.736479   7.618658
    40  H    6.366892   5.256787   5.334176   6.752900   7.468701
    41  H    5.474528   4.694721   5.443189   6.824053   7.802266
    42  H    5.757830   5.020051   5.538318   6.809773   7.949908
    43  H    2.726068   2.920379   4.240567   5.020774   6.221973
    44  H    4.709236   5.097582   6.560410   7.307826   8.402696
    45  H    5.709677   5.600082   6.924181   7.940034   8.547910
    46  H    4.224721   3.727478   4.783392   5.903546   6.419133
    47  H    6.159223   6.767525   8.301342   8.887716   9.796889
    48  H    8.656003   9.235853  10.775100  11.385981  12.262072
    49  H   10.033064  10.373003  11.889827  12.711060  13.539872
    50  H    7.487471   7.410262   8.780750   9.865779  10.643298
                    6          7          8          9         10
     6  N    0.000000
     7  C    1.381660   0.000000
     8  C    2.532749   1.406189   0.000000
     9  C    3.724372   2.387531   1.387526   0.000000
    10  C    4.132231   2.772248   2.445738   1.418489   0.000000
    11  C    3.605839   2.463743   2.876130   2.456061   1.388942
    12  C    2.269039   1.411666   2.449683   2.767557   2.374810
    13  N    5.737442   5.761764   6.965813   7.134944   6.212345
    14  C    6.323144   6.483726   7.755101   7.984551   7.068522
    15  C    7.098689   7.053371   8.215808   8.247235   7.179071
    16  C    8.355312   8.392689   9.569383   9.620225   8.558319
    17  C    8.511477   8.384403   9.486334   9.390218   8.216529
    18  C    6.828401   6.764090   7.867658   7.920009   6.932696
    19  C    7.349250   7.029379   7.952948   7.771714   6.659893
    20  C    8.566618   8.230309   9.080804   8.840527   7.732989
    21  C    9.278417   9.113623  10.049526   9.941621   8.914294
    22  C    8.849461   8.889034   9.961646  10.038417   9.100569
    23  C    7.669157   7.783600   8.939241   9.106265   8.204557
    24  C   10.639536  10.441702  11.309315  11.143104  10.115346
    25  C   11.058847  10.740067  11.464871  11.193821  10.186523
    26  C   12.413021  12.090817  12.780461  12.482470  11.483333
    27  C   13.263940  13.034693  13.815613  13.579814  12.562208
    28  N   12.967613  12.836619  13.728009  13.574874  12.541801
    29  C   11.720374  11.612600  12.548638  12.433113  11.398475
    30  H    3.658951   4.131874   5.516120   6.110728   5.605327
    31  H    4.134102   4.048472   5.243701   5.468372   4.662654
    32  H    2.859507   2.172693   1.090987   2.174183   3.446476
    33  H    4.657296   3.385988   2.149779   1.091896   2.168822
    34  H    5.223777   3.864244   3.420515   2.168386   1.092345
    35  H    4.455255   3.457721   3.965632   3.448871   2.168213
    36  H    5.707126   6.038714   7.371939   7.756403   6.983449
    37  H    7.143225   7.408471   8.706886   8.984339   8.090679
    38  H    6.636803   6.442914   7.519090   7.457817   6.354646
    39  H    8.719149   8.700409   9.817382   9.815167   8.745541
    40  H    8.689957   8.885522  10.135622  10.306785   9.318853
    41  H    8.940158   8.872045  10.003453   9.944325   8.787520
    42  H    8.972028   8.688108   9.681400   9.432330   8.173855
    43  H    6.983893   6.488318   7.310177   6.990675   5.793559
    44  H    9.126065   8.643471   9.361087   8.968333   7.808611
    45  H    9.570568   9.716713  10.820572  10.972694  10.090267
    46  H    7.557880   7.862277   9.104968   9.424379   8.623443
    47  H   10.425979  10.019833  10.655464  10.328353   9.343303
    48  H   12.884055  12.488867  13.077747  12.713822  11.742786
    49  H   14.326022  14.090623  14.847258  14.593175  13.580884
    50  H   11.653477  11.636651  12.660634  12.617635  11.581428
                   11         12         13         14         15
    11  C    0.000000
    12  C    1.404809   0.000000
    13  N    4.864586   4.585567   0.000000
    14  C    5.683953   5.330945   1.474063   0.000000
    15  C    5.848196   5.782192   2.508732   1.516302   0.000000
    16  C    7.249734   7.164276   3.868514   2.611969   1.512296
    17  C    6.942714   7.057888   3.407171   2.630310   1.511811
    18  C    5.680997   5.589518   1.438688   2.490288   3.271618
    19  C    5.549898   5.787629   2.475119   3.562827   3.894531
    20  C    6.732461   7.037257   3.746883   4.736077   5.028317
    21  C    7.862442   7.991439   4.268970   5.104808   5.595013
    22  C    7.934956   7.827234   3.736500   4.399720   5.161154
    23  C    6.956037   6.720436   2.453382   3.100093   4.067715
    24  C    9.148767   9.347103   5.752535   6.546870   6.962790
    25  C    9.373204   9.693996   6.612373   7.573929   7.954215
    26  C   10.717666  11.064189   7.974979   8.882473   9.227773
    27  C   11.705937  11.979722   8.503268   9.238395   9.574246
    28  N   11.570102  11.748934   7.918449   8.487635   8.835827
    29  C   10.372527  10.508181   6.589188   7.155776   7.542580
    30  H    4.305929   3.357643   2.765581   2.818731   3.782715
    31  H    3.322833   2.884969   2.810334   2.855062   3.098355
    32  H    3.967051   3.438651   7.884661   8.654665   9.184852
    33  H    3.428205   3.858999   8.170679   9.042143   9.254443
    34  H    2.144011   3.372410   6.728841   7.597086   7.544256
    35  H    1.089819   2.187155   4.305655   5.111867   5.099383
    36  H    5.601445   5.023914   2.107391   1.098768   2.158257
    37  H    6.708879   6.310755   2.092157   1.100270   2.148516
    38  H    5.073344   5.138654   2.838560   2.206876   1.094967
    39  H    7.499881   7.485308   4.732214   3.508386   2.243534
    40  H    7.972615   7.732111   4.169734   2.783571   2.240784
    41  H    7.500104   7.565971   3.430370   2.813176   2.240207
    42  H    6.992806   7.313677   4.090976   3.532431   2.242635
    43  H    4.741159   5.186174   2.703536   3.787232   3.865215
    44  H    6.945949   7.441424   4.619763   5.618356   5.723245
    45  H    8.918353   8.720964   4.602410   5.116249   5.952630
    46  H    7.330327   6.896954   2.670584   2.988196   4.190667
    47  H    8.620719   9.008331   6.377804   7.485508   7.871610
    48  H   11.087859  11.505517   8.743003   9.733943  10.062692
    49  H   12.755753  13.047953   9.596143  10.312680  10.628557
    50  H   10.468018  10.515930   6.319588   6.683532   7.074516
                   16         17         18         19         20
    16  C    0.000000
    17  C    1.510783   0.000000
    18  C    4.456535   3.579056   0.000000
    19  C    5.097672   3.921104   1.400204   0.000000
    20  C    6.040962   4.728257   2.421820   1.393409   0.000000
    21  C    6.422635   5.198916   2.830511   2.442083   1.407248
    22  C    5.910832   4.930373   2.427025   2.789308   2.409214
    23  C    4.947951   4.168961   1.400176   2.413814   2.781703
    24  C    7.670195   6.391470   4.314109   3.801998   2.517407
    25  C    8.775493   7.430783   5.198261   4.423537   3.061781
    26  C    9.954794   8.595541   6.549648   5.795678   4.417767
    27  C   10.120537   8.814144   7.065568   6.489484   5.131358
    28  N    9.249448   8.025417   6.508373   6.138322   4.878409
    29  C    8.013354   6.805817   5.187356   4.895465   3.715513
    30  H    4.915316   5.227150   4.139872   5.090556   6.404708
    31  H    4.355958   4.526958   4.162642   4.725497   6.118511
    32  H   10.516134  10.491544   8.794732   8.932918  10.038890
    33  H   10.619101  10.353519   8.896462   8.656388   9.659614
    34  H    8.894647   8.435602   7.318100   6.850215   7.826900
    35  H    6.500343   6.063604   5.026901   4.763429   5.947275
    36  H    3.046410   3.492857   3.364167   4.485061   5.709687
    37  H    2.730153   2.751805   2.602151   3.817749   4.761255
    38  H    2.222217   2.222703   3.753497   4.144953   5.378196
    39  H    1.091954   2.248056   5.410269   5.934803   6.903016
    40  H    1.093555   2.240001   4.712273   5.558551   6.423930
    41  H    2.240648   1.092568   3.224690   3.622503   4.193713
    42  H    2.245118   1.092088   4.168255   4.160469   4.877043
    43  H    5.171919   4.016652   2.158709   1.089494   2.156459
    44  H    6.723316   5.323656   3.404481   2.147147   1.091982
    45  H    6.544873   5.676155   3.409253   3.880463   3.404211
    46  H    4.930825   4.464799   2.161512   3.404987   3.873327
    47  H    8.842079   7.491641   5.037363   4.106337   2.843822
    48  H   10.854203   9.465834   7.344397   6.486698   5.130415
    49  H   11.126792   9.820677   8.158909   7.575256   6.209623
    50  H    7.390944   6.294190   5.002431   4.958864   3.989294
                   21         22         23         24         25
    21  C    0.000000
    22  C    1.406252   0.000000
    23  C    2.438081   1.394945   0.000000
    24  C    1.483604   2.516806   3.800009   0.000000
    25  C    2.527364   3.718668   4.899295   1.404754   0.000000
    26  C    3.792374   4.870523   6.146661   2.415941   1.393792
    27  C    4.235891   5.081125   6.449628   2.753389   2.401014
    28  N    3.775151   4.357714   5.733555   2.432897   2.804732
    29  C    2.521264   3.051937   4.412946   1.408576   2.393934
    30  H    6.922618   6.232949   4.866366   8.394548   9.189931
    31  H    6.933562   6.540432   5.257738   8.401419   9.107725
    32  H   10.956635  10.823945   9.799987  12.200590  12.336331
    33  H   10.793768  10.968490  10.091432  11.937017  11.892380
    34  H    9.092974   9.432427   8.636659  10.214556  10.188643
    35  H    7.145356   7.303460   6.374231   8.423815   8.676616
    36  H    6.063593   5.265566   3.901001   7.517009   8.528197
    37  H    4.827511   3.913841   2.685837   6.194196   7.352507
    38  H    6.162974   5.887463   4.790144   7.541920   8.400838
    39  H    7.385848   6.956852   6.003146   8.611772   9.671221
    40  H    6.582823   5.870494   4.912911   7.796409   9.002130
    41  H    4.417867   4.082692   3.500005   5.538186   6.673684
    42  H    5.526780   5.519253   4.904984   6.618793   7.532735
    43  H    3.426087   3.878797   3.402438   4.672846   5.099817
    44  H    2.165669   3.403431   3.873497   2.731418   2.823159
    45  H    2.166406   1.091672   2.150134   2.734024   3.985276
    46  H    3.422631   2.155716   1.092082   4.671121   5.821117
    47  H    2.759724   4.010987   4.983454   2.170227   1.092389
    48  H    4.690395   5.822642   7.045595   3.414702   2.167845
    49  H    5.329961   6.139526   7.517979   3.848085   3.401298
    50  H    2.737572   2.817299   4.076569   2.169001   3.394621
                   26         27         28         29         30
    26  C    0.000000
    27  C    1.397501   0.000000
    28  N    2.409867   1.340080   0.000000
    29  C    2.720049   2.285431   1.337055   0.000000
    30  H   10.562343  11.133775  10.550828   9.225227   0.000000
    31  H   10.493632  11.144720  10.635331   9.316708   1.778571
    32  H   13.635497  14.678745  14.605347  13.436792   6.257170
    33  H   13.141242  14.290829  14.360900  13.258203   7.201514
    34  H   11.439429  12.560303  12.614212  11.520628   6.445557
    35  H   10.018829  10.977432  10.822270   9.627716   4.292627
    36  H    9.849095  10.217716   9.460891   8.127391   2.061058
    37  H    8.593419   8.797649   7.930908   6.616068   3.591871
    38  H    9.704701  10.172516   9.538638   8.253350   3.678996
    39  H   10.840597  11.023166  10.174701   8.964481   5.449180
    40  H   10.143204  10.192661   9.220133   7.996391   5.100279
    41  H    7.788040   7.903462   7.042973   5.829082   5.595957
    42  H    8.657341   8.930198   8.235686   7.081856   5.920356
    43  H    6.452507   7.257451   7.012860   5.822137   5.011929
    44  H    4.089021   4.971046   4.957594   3.985877   7.207899
    45  H    4.919611   4.882914   4.012175   2.821619   6.922575
    46  H    7.005661   7.194841   6.377131   5.093350   4.593146
    47  H    2.162837   3.398660   3.896920   3.396829   8.849920
    48  H    1.091922   2.165464   3.386195   3.811218  11.275157
    49  H    2.169321   1.095095   2.070928   3.262511  12.223323
    50  H    3.814625   3.259909   2.063447   1.095290   8.906642
                   31         32         33         34         35
    31  H    0.000000
    32  H    6.164291   0.000000
    33  H    6.523330   2.510387   0.000000
    34  H    5.322606   4.333490   2.474548   0.000000
    35  H    3.037007   5.056509   4.329983   2.490251   0.000000
    36  H    2.480618   8.200969   8.836239   7.630174   5.204036
    37  H    3.921967   9.574416  10.045648   8.619957   6.139419
    38  H    2.514244   8.513422   8.433663   6.675615   4.302102
    39  H    4.672179  10.762846  10.778430   9.031836   6.751231
    40  H    4.906774  11.035157  11.337731   9.733779   7.294083
    41  H    5.159238  10.995410  10.917629   9.022202   6.633222
    42  H    4.939798  10.723428  10.333620   8.254999   6.026445
    43  H    4.312630   8.333727   7.838694   5.893511   3.867273
    44  H    6.734479  10.335625   9.701071   7.754891   6.116404
    45  H    7.407745  11.638867  11.910632  10.459996   8.330955
    46  H    5.300192   9.905172  10.448583   9.162176   6.848252
    47  H    8.695287  11.517271  10.978788   9.310171   7.962233
    48  H   11.156805  13.909845  13.298940  11.634685  10.418353
    49  H   12.238234  15.700428  15.278887  13.550813  12.027410
    50  H    9.067662  13.552495  13.497670  11.764776   9.716919
                   36         37         38         39         40
    36  H    0.000000
    37  H    1.755178   0.000000
    38  H    2.578871   3.096340   0.000000
    39  H    3.766875   3.767688   2.506594   0.000000
    40  H    3.087087   2.519029   3.120473   1.835573   0.000000
    41  H    3.798175   2.559858   3.120382   3.136214   2.531317
    42  H    4.373663   3.795290   2.506634   2.551423   3.133663
    43  H    4.626230   4.305518   3.821648   5.859914   5.810993
    44  H    6.596834   5.732108   5.940778   7.493635   7.211083
    45  H    5.904184   4.454593   6.767165   7.614898   6.343757
    46  H    3.568199   2.346921   5.004026   6.007152   4.686004
    47  H    8.400601   7.415008   8.191748   9.705173   9.163341
    48  H   10.687935   9.516226  10.464170  11.713598  11.098305
    49  H   11.293298   9.847133  11.233777  12.016151  11.180636
    50  H    7.635083   6.018837   7.887065   8.357868   7.260757
                   41         42         43         44         45
    41  H    0.000000
    42  H    1.835603   0.000000
    43  H    3.997697   4.051725   0.000000
    44  H    4.873609   5.261554   2.469323   0.000000
    45  H    4.740737   6.330529   4.969910   4.314646   0.000000
    46  H    3.825894   5.358085   4.306758   4.965222   2.468131
    47  H    6.857097   7.546739   4.621912   2.418926   4.476169
    48  H    8.713141   9.464602   7.032290   4.644112   5.918845
    49  H    8.898717   9.909363   8.322355   5.992484   5.867195
    50  H    5.252631   6.672085   5.942326   4.463048   2.412446
                   46         47         48         49         50
    46  H    0.000000
    47  H    5.959149   0.000000
    48  H    7.929479   2.508251   0.000000
    49  H    8.230257   4.316380   2.505782   0.000000
    50  H    4.602805   4.317246   4.905332   4.128901   0.000000
 Stoichiometry    C23H21N5O
 Framework group  C1[X(C23H21N5O)]
 Deg. of freedom   144
 Full point group                 C1      NOp   1
 Largest Abelian subgroup         C1      NOp   1
 Largest concise Abelian subgroup C1      NOp   1
                         Standard orientation:                         
 ---------------------------------------------------------------------
 Center     Atomic      Atomic             Coordinates (Angstroms)
 Number     Number       Type             X           Y           Z
 ---------------------------------------------------------------------
      1          8           0        1.344080   -0.759320   -0.391080
      2          6           0        1.427410    0.454040   -0.464740
      3          6           0        2.803750    1.142380   -0.568090
      4          7           0        3.878620    0.195910   -0.732780
      5          7           0        4.598680    0.217020   -1.898060
      6          7           0        5.544020   -0.655030   -1.836250
      7          6           0        5.478170   -1.283690   -0.607660
      8          6           0        6.287080   -2.289739   -0.050080
      9          6           0        5.980630   -2.718149    1.233580
     10          6           0        4.888860   -2.167890    1.952860
     11          6           0        4.075100   -1.179210    1.414840
     12          6           0        4.395100   -0.742820    0.118440
     13          7           0        0.325100    1.289510   -0.457890
     14          6           0        0.413660    2.760510   -0.423580
     15          6           0        0.399260    3.347980    0.974220
     16          6           0       -0.045730    4.780340    1.167530
     17          6           0       -0.909260    3.647010    1.669870
     18          6           0       -0.983700    0.700200   -0.360010
     19          6           0       -1.329540   -0.131920    0.711690
     20          6           0       -2.609580   -0.676631    0.791540
     21          6           0       -3.583370   -0.406061   -0.187680
     22          6           0       -3.220330    0.426109   -1.261570
     23          6           0       -1.936530    0.964310   -1.351400
     24          6           0       -4.946510   -0.983891   -0.092590
     25          6           0       -5.170650   -2.296621    0.354440
     26          6           0       -6.475180   -2.782891    0.420770
     27          6           0       -7.523950   -1.944031    0.034240
     28          7           0       -7.342680   -0.685941   -0.390220
     29          6           0       -6.085670   -0.233391   -0.443520
     30          1           0        2.856950    1.797850   -1.447720
     31          1           0        2.981870    1.763710    0.326130
     32          1           0        7.120490   -2.706109   -0.617810
     33          1           0        6.583781   -3.497819    1.703220
     34          1           0        4.676890   -2.541450    2.957220
     35          1           0        3.220240   -0.783420    1.962810
     36          1           0        1.318000    3.079200   -0.960140
     37          1           0       -0.434800    3.162720   -0.997110
     38          1           0        1.219280    3.009190    1.615890
     39          1           0        0.490879    5.391150    1.896450
     40          1           0       -0.388261    5.329810    0.286270
     41          1           0       -1.834010    3.430850    1.129670
     42          1           0       -0.967710    3.478470    2.747290
     43          1           0       -0.592980   -0.352830    1.483490
     44          1           0       -2.865820   -1.304021    1.647780
     45          1           0       -3.937970    0.624669   -2.059890
     46          1           0       -1.666580    1.578020   -2.213450
     47          1           0       -4.327370   -2.936781    0.623490
     48          1           0       -6.677889   -3.802131    0.755960
     49          1           0       -8.559720   -2.298131    0.066290
     50          1           0       -5.968230    0.805659   -0.769470
 ---------------------------------------------------------------------
 Rotational constants (GHZ):      0.2835709      0.0696303      0.0611623
 Leave Link  202 at Sat Sep 10 10:25:49 2022, MaxMem=  209715200 cpu:       0.0
 (Enter /opt/gaussian/l301.exe)
 Standard basis: CC-pVDZ (5D, 7F)
 Ernie: Thresh=  0.10000D-02 Tol=  0.10000D-05 Strict=F.
 Ernie:  58 primitive shells out of 743 were deleted.
 There are   511 symmetry adapted basis functions of A   symmetry.
 Integral buffers will be    131072 words long.
 Raffenetti 2 integral format.
 Two-electron integral symmetry is turned on.
   511 basis functions,  1104 primitive gaussians,   540 cartesian basis functions
   101 alpha electrons      101 beta electrons
       nuclear repulsion energy      2473.6595845141 Hartrees.
 IExCor=  402 DFT=T Ex+Corr=B3LYP ExCW=0 ScaHFX=  0.200000
 ScaDFX=  0.800000  0.720000  1.000000  0.810000 ScalE2=  1.000000  1.000000
 IRadAn=      0 IRanWt=     -1 IRanGd=            0 ICorTp=0
 NAtoms=   50 NActive=   50 NUniq=   50 SFac= 1.00D+00 NAtFMM=   60 NAOKFM=F Big=F
 Leave Link  301 at Sat Sep 10 10:25:49 2022, MaxMem=  209715200 cpu:       0.3
 (Enter /opt/gaussian/l302.exe)
 NPDir=0 NMtPBC=     1 NCelOv=     1 NCel=       1 NClECP=     1 NCelD=      1
         NCelK=      1 NCelE2=     1 NClLst=     1 CellRange=     0.0.
 One-electron integrals computed using PRISM.
 NBasis=   511 RedAO= T  NBF=   511
 NBsUse=   511 1.00D-06 NBFU=   511
 Precomputing XC quadrature grid using
 IXCGrd= 2 IRadAn=           0 IRanWt=          -1 IRanGd=           0 AccXCQ= 0.00D+00.
 NRdTot=    3230 NPtTot=      413184 NUsed=      436457 NTot=      436489
 NSgBfM=   525   525   525   525   525 NAtAll=    50    50.
 Leave Link  302 at Sat Sep 10 10:25:50 2022, MaxMem=  209715200 cpu:       7.4
 (Enter /opt/gaussian/l303.exe)
 DipDrv:  MaxL=1.
 Leave Link  303 at Sat Sep 10 10:25:50 2022, MaxMem=  209715200 cpu:       1.0
 (Enter /opt/gaussian/l401.exe)
 Harris functional with IExCor=  402 diagonalized for initial guess.
 ExpMin= 1.22D-01 ExpMax= 1.17D+04 ExpMxC= 4.01D+02 IAcc=1 IRadAn=         1 AccDes= 0.00D+00
 HarFok:  IExCor=  402 AccDes= 0.00D+00 IRadAn=         1 IDoV= 1
 ScaDFX=  1.000000  1.000000  1.000000  1.000000
 FoFCou: FMM=F IPFlag=           0 FMFlag=      100000 FMFlg1=           0
         NFxFlg=           0 DoJE=T BraDBF=F KetDBF=T FulRan=T
         Omega=  0.000000  0.000000  1.000000  0.000000  0.000000 ICntrl=     500 IOpCl=  0
         NMat0=    1 NMatS0=    1 NMatT0=    0 NMatD0=    1 NMtDS0=    0 NMtDT0=    0
         I1Cent=           4 NGrid=           0.
 Petite list used in FoFCou.
 Harris En= -1237.93313258736    
 Initial guess orbital symmetries:
       Occupied  (A) (A) (A) (A) (A) (A) (A) (A) (A) (A) (A) (A)
                 (A) (A) (A) (A) (A) (A) (A) (A) (A) (A) (A) (A)
                 (A) (A) (A) (A) (A) (A) (A) (A) (A) (A) (A) (A)
                 (A) (A) (A) (A) (A) (A) (A) (A) (A) (A) (A) (A)
                 (A) (A) (A) (A) (A) (A) (A) (A) (A) (A) (A) (A)
                 (A) (A) (A) (A) (A) (A) (A) (A) (A) (A) (A) (A)
                 (A) (A) (A) (A) (A) (A) (A) (A) (A) (A) (A) (A)
                 (A) (A) (A) (A) (A) (A) (A) (A) (A) (A) (A) (A)
                 (A) (A) (A) (A) (A)
       Virtual   (A) (A) (A) (A) (A) (A) (A) (A) (A) (A) (A) (A)
                 (A) (A) (A) (A) (A) (A) (A) (A) (A) (A) (A) (A)
                 (A) (A) (A) (A) (A) (A) (A) (A) (A) (A) (A) (A)
                 (A) (A) (A) (A) (A) (A) (A) (A) (A) (A) (A) (A)
                 (A) (A) (A) (A) (A) (A) (A) (A) (A) (A) (A) (A)
                 (A) (A) (A) (A) (A) (A) (A) (A) (A) (A) (A) (A)
                 (A) (A) (A) (A) (A) (A) (A) (A) (A) (A) (A) (A)
                 (A) (A) (A) (A) (A) (A) (A) (A) (A) (A) (A) (A)
                 (A) (A) (A) (A) (A) (A) (A) (A) (A) (A) (A) (A)
                 (A) (A) (A) (A) (A) (A) (A) (A) (A) (A) (A) (A)
                 (A) (A) (A) (A) (A) (A) (A) (A) (A) (A) (A) (A)
                 (A) (A) (A) (A) (A) (A) (A) (A) (A) (A) (A) (A)
                 (A) (A) (A) (A) (A) (A) (A) (A) (A) (A) (A) (A)
                 (A) (A) (A) (A) (A) (A) (A) (A) (A) (A) (A) (A)
                 (A) (A) (A) (A) (A) (A) (A) (A) (A) (A) (A) (A)
                 (A) (A) (A) (A) (A) (A) (A) (A) (A) (A) (A) (A)
                 (A) (A) (A) (A) (A) (A) (A) (A) (A) (A) (A) (A)
                 (A) (A) (A) (A) (A) (A) (A) (A) (A) (A) (A) (A)
                 (A) (A) (A) (A) (A) (A) (A) (A) (A) (A) (A) (A)
                 (A) (A) (A) (A) (A) (A) (A) (A) (A) (A) (A) (A)
                 (A) (A) (A) (A) (A) (A) (A) (A) (A) (A) (A) (A)
                 (A) (A) (A) (A) (A) (A) (A) (A) (A) (A) (A) (A)
                 (A) (A) (A) (A) (A) (A) (A) (A) (A) (A) (A) (A)
                 (A) (A) (A) (A) (A) (A) (A) (A) (A) (A) (A) (A)
                 (A) (A) (A) (A) (A) (A) (A) (A) (A) (A) (A) (A)
                 (A) (A) (A) (A) (A) (A) (A) (A) (A) (A) (A) (A)
                 (A) (A) (A) (A) (A) (A) (A) (A) (A) (A) (A) (A)
                 (A) (A) (A) (A) (A) (A) (A) (A) (A) (A) (A) (A)
                 (A) (A) (A) (A) (A) (A) (A) (A) (A) (A) (A) (A)
                 (A) (A) (A) (A) (A) (A) (A) (A) (A) (A) (A) (A)
                 (A) (A) (A) (A) (A) (A) (A) (A) (A) (A) (A) (A)
                 (A) (A) (A) (A) (A) (A) (A) (A) (A) (A) (A) (A)
                 (A) (A) (A) (A) (A) (A) (A) (A) (A) (A) (A) (A)
                 (A) (A) (A) (A) (A) (A) (A) (A) (A) (A) (A) (A)
                 (A) (A)
 The electronic state of the initial guess is 1-A.
 Leave Link  401 at Sat Sep 10 10:25:52 2022, MaxMem=  209715200 cpu:      13.0
 (Enter /opt/gaussian/l502.exe)
 Closed shell SCF:
 Requested convergence on RMS density matrix=1.00D-08 within 128 cycles.
 Requested convergence on MAX density matrix=1.00D-06.
 Requested convergence on             energy=1.00D-06.
 No special actions if energy rises.
 Using DIIS extrapolation, IDIIS=  1040.
 Integral symmetry usage will be decided dynamically.
       435994 words used for storage of precomputed grid.
 IEnd=     1337348 IEndB=     1337348 NGot=   209715200 MDV=   208686633
 LenX=   208686633 LenY=   208394493
 Fock matrices will be formed incrementally for  20 cycles.
 Integral accuracy reduced to 1.0D-05 until final iterations.

 Cycle   1  Pass 0  IDiag  1:
 FoFCou: FMM=F IPFlag=           0 FMFlag=      100000 FMFlg1=           0
         NFxFlg=           0 DoJE=F BraDBF=F KetDBF=F FulRan=T
         Omega=  0.000000  0.000000  1.000000  0.000000  0.000000 ICntrl=       0 IOpCl=  0
         NMat0=    1 NMatS0=    1 NMatT0=    0 NMatD0=    1 NMtDS0=    0 NMtDT0=    0
         I1Cent=           0 NGrid=           0.
 Symmetry not used in FoFCou.
 E= -1237.54942343019    
 DIIS: error= 2.84D-02 at cycle   1 NSaved=   1.
 NSaved= 1 IEnMin= 1 EnMin= -1237.54942343019     IErMin= 1 ErrMin= 2.84D-02
 ErrMax= 2.84D-02 EMaxC= 1.00D-01 BMatC= 4.92D-01 BMatP= 4.92D-01
 IDIUse=3 WtCom= 7.16D-01 WtEn= 2.84D-01
 Coeff-Com:  0.100D+01
 Coeff-En:   0.100D+01
 Coeff:      0.100D+01
 Gap=     0.243 Goal=   None    Shift=    0.000
 GapD=    0.243 DampG=1.000 DampE=0.500 DampFc=0.5000 IDamp=-1.
 Damping current iteration by 5.00D-01
 RMSDP=3.93D-03 MaxDP=2.32D-01              OVMax= 2.74D-01

 Cycle   2  Pass 0  IDiag  1:
 RMSU=  1.37D-03    CP:  9.77D-01
 E= -1237.68526902891     Delta-E=       -0.135845598726 Rises=F Damp=T
 DIIS: error= 9.20D-03 at cycle   2 NSaved=   2.
 NSaved= 2 IEnMin= 2 EnMin= -1237.68526902891     IErMin= 2 ErrMin= 9.20D-03
 ErrMax= 9.20D-03 EMaxC= 1.00D-01 BMatC= 1.03D-01 BMatP= 4.92D-01
 IDIUse=3 WtCom= 9.08D-01 WtEn= 9.20D-02
 Coeff-Com:  0.244D+00 0.756D+00
 Coeff-En:   0.354D+00 0.646D+00
 Coeff:      0.254D+00 0.746D+00
 Gap=     0.226 Goal=   None    Shift=    0.000
 RMSDP=1.37D-03 MaxDP=8.07D-02 DE=-1.36D-01 OVMax= 3.40D-01

 Cycle   3  Pass 0  IDiag  1:
 RMSU=  9.19D-04    CP:  9.63D-01  8.00D-01
 E= -1237.99562013587     Delta-E=       -0.310351106955 Rises=F Damp=F
 DIIS: error= 1.19D-02 at cycle   3 NSaved=   3.
 NSaved= 3 IEnMin= 3 EnMin= -1237.99562013587     IErMin= 2 ErrMin= 9.20D-03
 ErrMax= 1.19D-02 EMaxC= 1.00D-01 BMatC= 1.01D-01 BMatP= 1.03D-01
 IDIUse=3 WtCom= 8.81D-01 WtEn= 1.19D-01
 Coeff-Com:  0.638D-01 0.486D+00 0.450D+00
 Coeff-En:   0.000D+00 0.000D+00 0.100D+01
 Coeff:      0.563D-01 0.429D+00 0.515D+00
 Gap=     0.190 Goal=   None    Shift=    0.000
 RMSDP=8.27D-04 MaxDP=6.90D-02 DE=-3.10D-01 OVMax= 9.32D-02

 Cycle   4  Pass 0  IDiag  1:
 RMSU=  3.63D-04    CP:  9.67D-01  9.16D-01  5.35D-01
 E= -1238.07385144568     Delta-E=       -0.078231309806 Rises=F Damp=F
 DIIS: error= 4.20D-03 at cycle   4 NSaved=   4.
 NSaved= 4 IEnMin= 4 EnMin= -1238.07385144568     IErMin= 4 ErrMin= 4.20D-03
 ErrMax= 4.20D-03 EMaxC= 1.00D-01 BMatC= 1.87D-02 BMatP= 1.01D-01
 IDIUse=3 WtCom= 9.58D-01 WtEn= 4.20D-02
 Coeff-Com:  0.167D-01 0.121D+00 0.316D+00 0.547D+00
 Coeff-En:   0.000D+00 0.000D+00 0.182D+00 0.818D+00
 Coeff:      0.160D-01 0.116D+00 0.310D+00 0.558D+00
 Gap=     0.182 Goal=   None    Shift=    0.000
 RMSDP=2.97D-04 MaxDP=2.13D-02 DE=-7.82D-02 OVMax= 3.04D-02

 Cycle   5  Pass 0  IDiag  1:
 RMSU=  1.18D-04    CP:  9.66D-01  8.70D-01  6.49D-01  6.61D-01
 E= -1238.08908948235     Delta-E=       -0.015238036672 Rises=F Damp=F
 DIIS: error= 1.09D-03 at cycle   5 NSaved=   5.
 NSaved= 5 IEnMin= 5 EnMin= -1238.08908948235     IErMin= 5 ErrMin= 1.09D-03
 ErrMax= 1.09D-03 EMaxC= 1.00D-01 BMatC= 1.25D-03 BMatP= 1.87D-02
 IDIUse=3 WtCom= 9.89D-01 WtEn= 1.09D-02
 Coeff-Com:  0.384D-02 0.227D-01 0.137D+00 0.332D+00 0.505D+00
 Coeff-En:   0.000D+00 0.000D+00 0.000D+00 0.182D-02 0.998D+00
 Coeff:      0.380D-02 0.224D-01 0.135D+00 0.328D+00 0.511D+00
 Gap=     0.182 Goal=   None    Shift=    0.000
 RMSDP=1.01D-04 MaxDP=4.80D-03 DE=-1.52D-02 OVMax= 1.29D-02

 Cycle   6  Pass 0  IDiag  1:
 RMSU=  3.70D-05    CP:  9.66D-01  8.75D-01  6.52D-01  7.01D-01  4.98D-01
 E= -1238.09024332896     Delta-E=       -0.001153846615 Rises=F Damp=F
 DIIS: error= 4.43D-04 at cycle   6 NSaved=   6.
 NSaved= 6 IEnMin= 6 EnMin= -1238.09024332896     IErMin= 6 ErrMin= 4.43D-04
 ErrMax= 4.43D-04 EMaxC= 1.00D-01 BMatC= 1.61D-04 BMatP= 1.25D-03
 IDIUse=3 WtCom= 9.96D-01 WtEn= 4.43D-03
 Coeff-Com:  0.354D-03-0.264D-02 0.390D-01 0.119D+00 0.312D+00 0.532D+00
 Coeff-En:   0.000D+00 0.000D+00 0.000D+00 0.000D+00 0.115D+00 0.885D+00
 Coeff:      0.352D-03-0.262D-02 0.389D-01 0.119D+00 0.311D+00 0.534D+00
 Gap=     0.181 Goal=   None    Shift=    0.000
 RMSDP=3.30D-05 MaxDP=1.49D-03 DE=-1.15D-03 OVMax= 4.24D-03

 Cycle   7  Pass 0  IDiag  1:
 RMSU=  1.32D-05    CP:  9.66D-01  8.76D-01  6.54D-01  7.00D-01  5.88D-01
                    CP:  5.69D-01
 E= -1238.09040732343     Delta-E=       -0.000163994467 Rises=F Damp=F
 DIIS: error= 1.54D-04 at cycle   7 NSaved=   7.
 NSaved= 7 IEnMin= 7 EnMin= -1238.09040732343     IErMin= 7 ErrMin= 1.54D-04
 ErrMax= 1.54D-04 EMaxC= 1.00D-01 BMatC= 1.87D-05 BMatP= 1.61D-04
 IDIUse=3 WtCom= 9.98D-01 WtEn= 1.54D-03
 Coeff-Com:  0.146D-04-0.379D-02 0.109D-01 0.403D-01 0.143D+00 0.331D+00
 Coeff-Com:  0.479D+00
 Coeff-En:   0.000D+00 0.000D+00 0.000D+00 0.000D+00 0.000D+00 0.517D-01
 Coeff-En:   0.948D+00
 Coeff:      0.146D-04-0.378D-02 0.109D-01 0.402D-01 0.143D+00 0.331D+00
 Coeff:      0.479D+00
 Gap=     0.182 Goal=   None    Shift=    0.000
 RMSDP=1.01D-05 MaxDP=4.88D-04 DE=-1.64D-04 OVMax= 1.08D-03

 Cycle   8  Pass 0  IDiag  1:
 RMSU=  3.46D-06    CP:  9.66D-01  8.75D-01  6.54D-01  7.01D-01  5.92D-01
                    CP:  6.41D-01  5.74D-01
 E= -1238.09042810743     Delta-E=       -0.000020783997 Rises=F Damp=F
 DIIS: error= 4.47D-05 at cycle   8 NSaved=   8.
 NSaved= 8 IEnMin= 8 EnMin= -1238.09042810743     IErMin= 8 ErrMin= 4.47D-05
 ErrMax= 4.47D-05 EMaxC= 1.00D-01 BMatC= 1.12D-06 BMatP= 1.87D-05
 IDIUse=1 WtCom= 1.00D+00 WtEn= 0.00D+00
 Coeff-Com:  0.681D-04-0.197D-02 0.322D-02 0.128D-01 0.557D-01 0.142D+00
 Coeff-Com:  0.263D+00 0.525D+00
 Coeff:      0.681D-04-0.197D-02 0.322D-02 0.128D-01 0.557D-01 0.142D+00
 Coeff:      0.263D+00 0.525D+00
 Gap=     0.182 Goal=   None    Shift=    0.000
 RMSDP=2.83D-06 MaxDP=1.25D-04 DE=-2.08D-05 OVMax= 3.14D-04

 Initial convergence to 1.0D-05 achieved.  Increase integral accuracy.
 Cycle   9  Pass 1  IDiag  1:
 E= -1238.09051963212     Delta-E=       -0.000091524696 Rises=F Damp=F
 DIIS: error= 1.46D-04 at cycle   1 NSaved=   1.
 NSaved= 1 IEnMin= 1 EnMin= -1238.09051963212     IErMin= 1 ErrMin= 1.46D-04
 ErrMax= 1.46D-04 EMaxC= 1.00D-01 BMatC= 6.78D-06 BMatP= 6.78D-06
 IDIUse=3 WtCom= 9.99D-01 WtEn= 1.46D-03
 Coeff-Com:  0.100D+01
 Coeff-En:   0.100D+01
 Coeff:      0.100D+01
 Gap=     0.182 Goal=   None    Shift=    0.000
 RMSDP=2.83D-06 MaxDP=1.25D-04 DE=-9.15D-05 OVMax= 3.52D-04

 Cycle  10  Pass 1  IDiag  1:
 RMSU=  6.59D-05    CP:  1.00D+00
 E= -1238.09052510455     Delta-E=       -0.000005472425 Rises=F Damp=F
 DIIS: error= 3.64D-05 at cycle   2 NSaved=   2.
 NSaved= 2 IEnMin= 2 EnMin= -1238.09052510455     IErMin= 2 ErrMin= 3.64D-05
 ErrMax= 3.64D-05 EMaxC= 1.00D-01 BMatC= 7.48D-07 BMatP= 6.78D-06
 IDIUse=1 WtCom= 1.00D+00 WtEn= 0.00D+00
 Coeff-Com:  0.128D+00 0.872D+00
 Coeff:      0.128D+00 0.872D+00
 Gap=     0.182 Goal=   None    Shift=    0.000
 RMSDP=4.68D-06 MaxDP=2.24D-04 DE=-5.47D-06 OVMax= 5.10D-04

 Cycle  11  Pass 1  IDiag  1:
 RMSU=  3.24D-06    CP:  1.00D+00  1.01D+00
 E= -1238.09052359672     Delta-E=        0.000001507831 Rises=F Damp=F
 DIIS: error= 6.68D-05 at cycle   3 NSaved=   3.
 NSaved= 3 IEnMin= 2 EnMin= -1238.09052510455     IErMin= 2 ErrMin= 3.64D-05
 ErrMax= 6.68D-05 EMaxC= 1.00D-01 BMatC= 2.22D-06 BMatP= 7.48D-07
 IDIUse=1 WtCom= 1.00D+00 WtEn= 0.00D+00
 Coeff-Com: -0.490D-02 0.636D+00 0.369D+00
 Coeff:     -0.490D-02 0.636D+00 0.369D+00
 Gap=     0.182 Goal=   None    Shift=    0.000
 RMSDP=2.95D-06 MaxDP=1.71D-04 DE= 1.51D-06 OVMax= 3.30D-04

 Cycle  12  Pass 1  IDiag  1:
 RMSU=  3.85D-07    CP:  1.00D+00  1.01D+00  3.70D-01
 E= -1238.09052586752     Delta-E=       -0.000002270804 Rises=F Damp=F
 DIIS: error= 3.80D-06 at cycle   4 NSaved=   4.
 NSaved= 4 IEnMin= 4 EnMin= -1238.09052586752     IErMin= 4 ErrMin= 3.80D-06
 ErrMax= 3.80D-06 EMaxC= 1.00D-01 BMatC= 1.49D-08 BMatP= 7.48D-07
 IDIUse=1 WtCom= 1.00D+00 WtEn= 0.00D+00
 Coeff-Com: -0.430D-02 0.376D+00 0.224D+00 0.405D+00
 Coeff:     -0.430D-02 0.376D+00 0.224D+00 0.405D+00
 Gap=     0.182 Goal=   None    Shift=    0.000
 RMSDP=2.82D-07 MaxDP=2.20D-05 DE=-2.27D-06 OVMax= 2.92D-05

 Cycle  13  Pass 1  IDiag  1:
 RMSU=  1.39D-07    CP:  1.00D+00  1.01D+00  3.78D-01  6.36D-01
 E= -1238.09052588152     Delta-E=       -0.000000014004 Rises=F Damp=F
 DIIS: error= 9.10D-07 at cycle   5 NSaved=   5.
 NSaved= 5 IEnMin= 5 EnMin= -1238.09052588152     IErMin= 5 ErrMin= 9.10D-07
 ErrMax= 9.10D-07 EMaxC= 1.00D-01 BMatC= 5.45D-10 BMatP= 1.49D-08
 IDIUse=1 WtCom= 1.00D+00 WtEn= 0.00D+00
 Coeff-Com: -0.194D-02 0.156D+00 0.934D-01 0.217D+00 0.536D+00
 Coeff:     -0.194D-02 0.156D+00 0.934D-01 0.217D+00 0.536D+00
 Gap=     0.182 Goal=   None    Shift=    0.000
 RMSDP=6.42D-08 MaxDP=3.32D-06 DE=-1.40D-08 OVMax= 1.13D-05

 Cycle  14  Pass 1  IDiag  1:
 RMSU=  3.98D-08    CP:  1.00D+00  1.01D+00  3.80D-01  6.56D-01  8.64D-01
 E= -1238.09052588202     Delta-E=       -0.000000000497 Rises=F Damp=F
 DIIS: error= 3.16D-07 at cycle   6 NSaved=   6.
 NSaved= 6 IEnMin= 6 EnMin= -1238.09052588202     IErMin= 6 ErrMin= 3.16D-07
 ErrMax= 3.16D-07 EMaxC= 1.00D-01 BMatC= 8.85D-11 BMatP= 5.45D-10
 IDIUse=1 WtCom= 1.00D+00 WtEn= 0.00D+00
 Coeff-Com: -0.305D-03 0.189D-01 0.117D-01 0.488D-01 0.313D+00 0.609D+00
 Coeff:     -0.305D-03 0.189D-01 0.117D-01 0.488D-01 0.313D+00 0.609D+00
 Gap=     0.182 Goal=   None    Shift=    0.000
 RMSDP=2.39D-08 MaxDP=1.21D-06 DE=-4.97D-10 OVMax= 3.75D-06

 Cycle  15  Pass 1  IDiag  1:
 RMSU=  1.00D-08    CP:  1.00D+00  1.01D+00  3.80D-01  6.67D-01  9.02D-01
                    CP:  7.11D-01
 E= -1238.09052588214     Delta-E=       -0.000000000122 Rises=F Damp=F
 DIIS: error= 8.46D-08 at cycle   7 NSaved=   7.
 NSaved= 7 IEnMin= 7 EnMin= -1238.09052588214     IErMin= 7 ErrMin= 8.46D-08
 ErrMax= 8.46D-08 EMaxC= 1.00D-01 BMatC= 1.07D-11 BMatP= 8.85D-11
 IDIUse=1 WtCom= 1.00D+00 WtEn= 0.00D+00
 Coeff-Com: -0.856D-05-0.257D-02-0.134D-02 0.986D-02 0.135D+00 0.353D+00
 Coeff-Com:  0.505D+00
 Coeff:     -0.856D-05-0.257D-02-0.134D-02 0.986D-02 0.135D+00 0.353D+00
 Coeff:      0.505D+00
 Gap=     0.182 Goal=   None    Shift=    0.000
 RMSDP=8.66D-09 MaxDP=5.00D-07 DE=-1.22D-10 OVMax= 9.90D-07

 SCF Done:  E(RB3LYP) =  -1238.09052588     A.U. after   15 cycles
             Convg  =    0.8657D-08             -V/T =  2.0069
 KE= 1.229625339006D+03 PE=-7.822837903306D+03 EE= 2.881462453904D+03
 Leave Link  502 at Sat Sep 10 10:36:15 2022, MaxMem=  209715200 cpu:    4612.3
 (Enter /opt/gaussian/l601.exe)
 Copying SCF densities to generalized density rwf, IOpCl= 0 IROHF=0.

 **********************************************************************

            Population analysis using the SCF density.

 **********************************************************************

 Orbital symmetries:
       Occupied  (A) (A) (A) (A) (A) (A) (A) (A) (A) (A) (A) (A)
                 (A) (A) (A) (A) (A) (A) (A) (A) (A) (A) (A) (A)
                 (A) (A) (A) (A) (A) (A) (A) (A) (A) (A) (A) (A)
                 (A) (A) (A) (A) (A) (A) (A) (A) (A) (A) (A) (A)
                 (A) (A) (A) (A) (A) (A) (A) (A) (A) (A) (A) (A)
                 (A) (A) (A) (A) (A) (A) (A) (A) (A) (A) (A) (A)
                 (A) (A) (A) (A) (A) (A) (A) (A) (A) (A) (A) (A)
                 (A) (A) (A) (A) (A) (A) (A) (A) (A) (A) (A) (A)
                 (A) (A) (A) (A) (A)
       Virtual   (A) (A) (A) (A) (A) (A) (A) (A) (A) (A) (A) (A)
                 (A) (A) (A) (A) (A) (A) (A) (A) (A) (A) (A) (A)
                 (A) (A) (A) (A) (A) (A) (A) (A) (A) (A) (A) (A)
                 (A) (A) (A) (A) (A) (A) (A) (A) (A) (A) (A) (A)
                 (A) (A) (A) (A) (A) (A) (A) (A) (A) (A) (A) (A)
                 (A) (A) (A) (A) (A) (A) (A) (A) (A) (A) (A) (A)
                 (A) (A) (A) (A) (A) (A) (A) (A) (A) (A) (A) (A)
                 (A) (A) (A) (A) (A) (A) (A) (A) (A) (A) (A) (A)
                 (A) (A) (A) (A) (A) (A) (A) (A) (A) (A) (A) (A)
                 (A) (A) (A) (A) (A) (A) (A) (A) (A) (A) (A) (A)
                 (A) (A) (A) (A) (A) (A) (A) (A) (A) (A) (A) (A)
                 (A) (A) (A) (A) (A) (A) (A) (A) (A) (A) (A) (A)
                 (A) (A) (A) (A) (A) (A) (A) (A) (A) (A) (A) (A)
                 (A) (A) (A) (A) (A) (A) (A) (A) (A) (A) (A) (A)
                 (A) (A) (A) (A) (A) (A) (A) (A) (A) (A) (A) (A)
                 (A) (A) (A) (A) (A) (A) (A) (A) (A) (A) (A) (A)
                 (A) (A) (A) (A) (A) (A) (A) (A) (A) (A) (A) (A)
                 (A) (A) (A) (A) (A) (A) (A) (A) (A) (A) (A) (A)
                 (A) (A) (A) (A) (A) (A) (A) (A) (A) (A) (A) (A)
                 (A) (A) (A) (A) (A) (A) (A) (A) (A) (A) (A) (A)
                 (A) (A) (A) (A) (A) (A) (A) (A) (A) (A) (A) (A)
                 (A) (A) (A) (A) (A) (A) (A) (A) (A) (A) (A) (A)
                 (A) (A) (A) (A) (A) (A) (A) (A) (A) (A) (A) (A)
                 (A) (A) (A) (A) (A) (A) (A) (A) (A) (A) (A) (A)
                 (A) (A) (A) (A) (A) (A) (A) (A) (A) (A) (A) (A)
                 (A) (A) (A) (A) (A) (A) (A) (A) (A) (A) (A) (A)
                 (A) (A) (A) (A) (A) (A) (A) (A) (A) (A) (A) (A)
                 (A) (A) (A) (A) (A) (A) (A) (A) (A) (A) (A) (A)
                 (A) (A) (A) (A) (A) (A) (A) (A) (A) (A) (A) (A)
                 (A) (A) (A) (A) (A) (A) (A) (A) (A) (A) (A) (A)
                 (A) (A) (A) (A) (A) (A) (A) (A) (A) (A) (A) (A)
                 (A) (A) (A) (A) (A) (A) (A) (A) (A) (A) (A) (A)
                 (A) (A) (A) (A) (A) (A) (A) (A) (A) (A) (A) (A)
                 (A) (A) (A) (A) (A) (A) (A) (A) (A) (A) (A) (A)
                 (A) (A)
 The electronic state is 1-A.
 Alpha  occ. eigenvalues --  -19.12302 -14.41120 -14.38933 -14.38083 -14.34716
 Alpha  occ. eigenvalues --  -14.33154 -10.30597 -10.25917 -10.25173 -10.24303
 Alpha  occ. eigenvalues --  -10.23111 -10.22825 -10.22747 -10.21727 -10.21507
 Alpha  occ. eigenvalues --  -10.21462 -10.21413 -10.21030 -10.20934 -10.20841
 Alpha  occ. eigenvalues --  -10.20741 -10.20710 -10.20611 -10.20569 -10.20539
 Alpha  occ. eigenvalues --  -10.20319 -10.19980 -10.19808 -10.19410  -1.09345
 Alpha  occ. eigenvalues --   -1.05574  -0.96138  -0.94722  -0.92423  -0.88044
 Alpha  occ. eigenvalues --   -0.87101  -0.86356  -0.82017  -0.78823  -0.77741
 Alpha  occ. eigenvalues --   -0.76858  -0.76461  -0.75134  -0.74352  -0.72432
 Alpha  occ. eigenvalues --   -0.66020  -0.64825  -0.64495  -0.62631  -0.62187
 Alpha  occ. eigenvalues --   -0.61815  -0.61495  -0.59983  -0.59080  -0.56755
 Alpha  occ. eigenvalues --   -0.53862  -0.53273  -0.52909  -0.52327  -0.51886
 Alpha  occ. eigenvalues --   -0.50314  -0.50149  -0.48961  -0.48779  -0.47127
 Alpha  occ. eigenvalues --   -0.46598  -0.46584  -0.45569  -0.45274  -0.44827
 Alpha  occ. eigenvalues --   -0.44428  -0.43662  -0.43518  -0.42155  -0.41687
 Alpha  occ. eigenvalues --   -0.40863  -0.40610  -0.40092  -0.39263  -0.38365
 Alpha  occ. eigenvalues --   -0.38143  -0.37779  -0.37398  -0.36782  -0.36623
 Alpha  occ. eigenvalues --   -0.35951  -0.35536  -0.32986  -0.31958  -0.31131
 Alpha  occ. eigenvalues --   -0.30909  -0.30701  -0.28746  -0.27642  -0.26794
 Alpha  occ. eigenvalues --   -0.26534  -0.26522  -0.26024  -0.24880  -0.23617
 Alpha  occ. eigenvalues --   -0.23267
 Alpha virt. eigenvalues --   -0.05103  -0.04127  -0.03179  -0.02387  -0.00416
 Alpha virt. eigenvalues --    0.00547   0.01550   0.03012   0.03734   0.04925
 Alpha virt. eigenvalues --    0.05704   0.06108   0.06720   0.06854   0.08151
 Alpha virt. eigenvalues --    0.08183   0.08789   0.09400   0.09931   0.10584
 Alpha virt. eigenvalues --    0.11088   0.11562   0.12239   0.12769   0.12889
 Alpha virt. eigenvalues --    0.13592   0.14222   0.14636   0.15200   0.15771
 Alpha virt. eigenvalues --    0.15873   0.16175   0.16992   0.17487   0.19217
 Alpha virt. eigenvalues --    0.19499   0.20214   0.21391   0.22017   0.22525
 Alpha virt. eigenvalues --    0.23222   0.24186   0.24300   0.25137   0.25827
 Alpha virt. eigenvalues --    0.26834   0.27506   0.28311   0.28791   0.29987
 Alpha virt. eigenvalues --    0.30262   0.30745   0.31691   0.31898   0.33809
 Alpha virt. eigenvalues --    0.34017   0.35455   0.36508   0.36682   0.37297
 Alpha virt. eigenvalues --    0.38095   0.38888   0.40000   0.40416   0.42375
 Alpha virt. eigenvalues --    0.43266   0.43799   0.44369   0.44569   0.45069
 Alpha virt. eigenvalues --    0.45575   0.46104   0.46554   0.46789   0.46942
 Alpha virt. eigenvalues --    0.47114   0.47871   0.47954   0.48351   0.49108
 Alpha virt. eigenvalues --    0.49532   0.49638   0.49853   0.50287   0.50424
 Alpha virt. eigenvalues --    0.50821   0.51227   0.52064   0.52339   0.52401
 Alpha virt. eigenvalues --    0.52868   0.53175   0.53459   0.54112   0.54494
 Alpha virt. eigenvalues --    0.54955   0.55083   0.55746   0.56181   0.57201
 Alpha virt. eigenvalues --    0.57604   0.58266   0.58380   0.59057   0.59513
 Alpha virt. eigenvalues --    0.59767   0.59950   0.60083   0.60441   0.60946
 Alpha virt. eigenvalues --    0.61263   0.61677   0.62543   0.62706   0.63312
 Alpha virt. eigenvalues --    0.63744   0.64205   0.64374   0.64623   0.65329
 Alpha virt. eigenvalues --    0.65471   0.65647   0.66497   0.67047   0.67461
 Alpha virt. eigenvalues --    0.67772   0.67903   0.68329   0.69111   0.69741
 Alpha virt. eigenvalues --    0.70296   0.70674   0.71590   0.71877   0.72380
 Alpha virt. eigenvalues --    0.73255   0.73630   0.74958   0.75078   0.75686
 Alpha virt. eigenvalues --    0.77261   0.78105   0.79173   0.81445   0.82190
 Alpha virt. eigenvalues --    0.82900   0.83544   0.84513   0.84963   0.85174
 Alpha virt. eigenvalues --    0.86372   0.87159   0.87621   0.88034   0.88521
 Alpha virt. eigenvalues --    0.88985   0.89724   0.90925   0.91419   0.91545
 Alpha virt. eigenvalues --    0.92802   0.92992   0.93207   0.94423   0.95129
 Alpha virt. eigenvalues --    0.95518   0.96828   0.97764   0.98183   0.98630
 Alpha virt. eigenvalues --    0.99165   1.00161   1.00317   1.00457   1.01190
 Alpha virt. eigenvalues --    1.01679   1.02126   1.02608   1.03234   1.03901
 Alpha virt. eigenvalues --    1.05241   1.05650   1.05883   1.06179   1.06391
 Alpha virt. eigenvalues --    1.07920   1.09367   1.09612   1.10933   1.11054
 Alpha virt. eigenvalues --    1.11480   1.12713   1.13353   1.14169   1.14306
 Alpha virt. eigenvalues --    1.15197   1.15594   1.16123   1.17634   1.18676
 Alpha virt. eigenvalues --    1.19082   1.20130   1.20457   1.22156   1.23091
 Alpha virt. eigenvalues --    1.23632   1.24494   1.25695   1.26627   1.28130
 Alpha virt. eigenvalues --    1.29548   1.30645   1.31540   1.31925   1.33314
 Alpha virt. eigenvalues --    1.34245   1.34683   1.35841   1.36635   1.37960
 Alpha virt. eigenvalues --    1.41763   1.42636   1.43224   1.43614   1.45135
 Alpha virt. eigenvalues --    1.45404   1.45683   1.46287   1.46694   1.48041
 Alpha virt. eigenvalues --    1.48302   1.49072   1.49495   1.49990   1.50872
 Alpha virt. eigenvalues --    1.51461   1.51818   1.52022   1.52811   1.54544
 Alpha virt. eigenvalues --    1.54890   1.55292   1.56430   1.56650   1.57298
 Alpha virt. eigenvalues --    1.57771   1.58443   1.58531   1.58783   1.59431
 Alpha virt. eigenvalues --    1.59656   1.60001   1.60671   1.61294   1.61348
 Alpha virt. eigenvalues --    1.62069   1.62442   1.62818   1.63909   1.64373
 Alpha virt. eigenvalues --    1.64420   1.64877   1.65517   1.66198   1.66738
 Alpha virt. eigenvalues --    1.67581   1.68158   1.68190   1.68858   1.69637
 Alpha virt. eigenvalues --    1.70048   1.70869   1.71563   1.71778   1.72108
 Alpha virt. eigenvalues --    1.72648   1.73285   1.73884   1.74739   1.75194
 Alpha virt. eigenvalues --    1.75414   1.76214   1.76368   1.76844   1.77905
 Alpha virt. eigenvalues --    1.78225   1.78919   1.79573   1.80222   1.80630
 Alpha virt. eigenvalues --    1.81173   1.81488   1.82251   1.82727   1.83210
 Alpha virt. eigenvalues --    1.83787   1.84263   1.84738   1.85593   1.85980
 Alpha virt. eigenvalues --    1.86482   1.86834   1.87141   1.88919   1.89244
 Alpha virt. eigenvalues --    1.89703   1.89773   1.90719   1.91686   1.92736
 Alpha virt. eigenvalues --    1.93165   1.94213   1.95296   1.96733   1.96999
 Alpha virt. eigenvalues --    1.97880   1.97959   1.98864   1.99650   2.00201
 Alpha virt. eigenvalues --    2.00735   2.01590   2.03064   2.03284   2.03852
 Alpha virt. eigenvalues --    2.04700   2.05751   2.06375   2.07054   2.08243
 Alpha virt. eigenvalues --    2.09029   2.10237   2.11715   2.12390   2.13273
 Alpha virt. eigenvalues --    2.14937   2.15871   2.16268   2.16848   2.18830
 Alpha virt. eigenvalues --    2.19829   2.20326   2.21899   2.22646   2.23631
 Alpha virt. eigenvalues --    2.25383   2.26056   2.28256   2.28837   2.29137
 Alpha virt. eigenvalues --    2.30152   2.33426   2.34187   2.36793   2.38313
 Alpha virt. eigenvalues --    2.38449   2.39020   2.39423   2.40126   2.42106
 Alpha virt. eigenvalues --    2.42560   2.44486   2.45132   2.45947   2.46168
 Alpha virt. eigenvalues --    2.47276   2.48737   2.49115   2.49588   2.51806
 Alpha virt. eigenvalues --    2.52289   2.53374   2.53856   2.56233   2.56918
 Alpha virt. eigenvalues --    2.58932   2.59945   2.61747   2.62547   2.63851
 Alpha virt. eigenvalues --    2.66873   2.67708   2.69211   2.70357   2.70704
 Alpha virt. eigenvalues --    2.72084   2.73531   2.74187   2.74971   2.75070
 Alpha virt. eigenvalues --    2.78077   2.79008   2.80041   2.81010   2.83151
 Alpha virt. eigenvalues --    2.85256   2.87251   2.89771   2.93471   2.95634
 Alpha virt. eigenvalues --    2.96604   2.98349   3.07387   3.09699   3.15132
 Alpha virt. eigenvalues --    3.38768   3.41183   3.48558   3.53174   3.53789
          Condensed to atoms (all electrons):
              1          2          3          4          5          6
     1  O    7.616658   0.767734  -0.090867  -0.002859  -0.000021   0.000012
     2  C    0.767734   4.614336   0.282927  -0.040411  -0.000290  -0.000314
     3  C   -0.090867   0.282927   4.811660   0.365054  -0.050596   0.006581
     4  N   -0.002859  -0.040411   0.365054   6.508654   0.292924  -0.113296
     5  N   -0.000021  -0.000290  -0.050596   0.292924   6.546129   0.460367
     6  N    0.000012  -0.000314   0.006581  -0.113296   0.460367   6.430018
     7  C   -0.000789  -0.000821   0.010300  -0.005820  -0.126569   0.507950
     8  C   -0.000022   0.000018  -0.000427   0.007336   0.000496  -0.050681
     9  C    0.000016  -0.000002   0.000037   0.000500   0.000119   0.004310
    10  C    0.000069   0.000071  -0.000343   0.002470  -0.000129  -0.000666
    11  C    0.005431   0.001949  -0.005869  -0.058593   0.003348   0.011560
    12  C    0.007927   0.001723  -0.076193   0.322385  -0.090123  -0.072722
    13  N   -0.071643   0.379190  -0.074723   0.001547  -0.000022   0.000000
    14  C    0.002471  -0.048175   0.003238   0.000156   0.000022   0.000000
    15  C   -0.000144  -0.002477  -0.002835   0.000032   0.000000   0.000000
    16  C   -0.000001  -0.000093   0.000022   0.000000   0.000000   0.000000
    17  C    0.000002  -0.000285   0.000153   0.000000   0.000000   0.000000
    18  C   -0.002443  -0.056804   0.007743  -0.000064   0.000000   0.000000
    19  C    0.003715  -0.005966   0.000392  -0.000003   0.000000   0.000000
    20  C   -0.000375   0.000067  -0.000001   0.000000   0.000000   0.000000
    21  C   -0.000008   0.000005   0.000000   0.000000   0.000000   0.000000
    22  C    0.000025   0.000236   0.000006   0.000000   0.000000   0.000000
    23  C   -0.001440  -0.001383  -0.000685   0.000002   0.000000   0.000000
    24  C    0.000000   0.000000   0.000000   0.000000   0.000000   0.000000
    25  C    0.000000   0.000000   0.000000   0.000000   0.000000   0.000000
    26  C    0.000000   0.000000   0.000000   0.000000   0.000000   0.000000
    27  C    0.000000   0.000000   0.000000   0.000000   0.000000   0.000000
    28  N    0.000000   0.000000   0.000000   0.000000   0.000000   0.000000
    29  C    0.000000   0.000000   0.000000   0.000000   0.000000   0.000000
    30  H    0.001124  -0.000316   0.334631  -0.023370   0.024618   0.000089
    31  H    0.000842  -0.022268   0.353174  -0.022680   0.001577  -0.000320
    32  H    0.000000   0.000000   0.000003  -0.000007  -0.000558  -0.000937
    33  H    0.000000   0.000000  -0.000001   0.000003   0.000008  -0.000096
    34  H   -0.000005   0.000000  -0.000014  -0.000134   0.000005  -0.000008
    35  H    0.004426   0.000639   0.001922  -0.006052  -0.000267  -0.000243
    36  H    0.000340  -0.014817   0.013982   0.000600  -0.000234   0.000002
    37  H   -0.000172   0.005773  -0.001277  -0.000013   0.000000   0.000000
    38  H   -0.000104   0.002737  -0.002532  -0.000069   0.000000   0.000000
    39  H    0.000000  -0.000008  -0.000003   0.000000   0.000000   0.000000
    40  H    0.000000   0.000017  -0.000004   0.000000   0.000000   0.000000
    41  H    0.000001  -0.000051  -0.000007   0.000000   0.000000   0.000000
    42  H    0.000000   0.000044  -0.000002   0.000000   0.000000   0.000000
    43  H    0.004031   0.002539   0.000006   0.000001   0.000000   0.000000
    44  H   -0.000008  -0.000018   0.000000   0.000000   0.000000   0.000000
    45  H    0.000001  -0.000002   0.000000   0.000000   0.000000   0.000000
    46  H   -0.000065  -0.000556  -0.000089   0.000000   0.000000   0.000000
    47  H    0.000000   0.000000   0.000000   0.000000   0.000000   0.000000
    48  H    0.000000   0.000000   0.000000   0.000000   0.000000   0.000000
    49  H    0.000000   0.000000   0.000000   0.000000   0.000000   0.000000
    50  H    0.000000   0.000000   0.000000   0.000000   0.000000   0.000000
              7          8          9         10         11         12
     1  O   -0.000789  -0.000022   0.000016   0.000069   0.005431   0.007927
     2  C   -0.000821   0.000018  -0.000002   0.000071   0.001949   0.001723
     3  C    0.010300  -0.000427   0.000037  -0.000343  -0.005869  -0.076193
     4  N   -0.005820   0.007336   0.000500   0.002470  -0.058593   0.322385
     5  N   -0.126569   0.000496   0.000119  -0.000129   0.003348  -0.090123
     6  N    0.507950  -0.050681   0.004310  -0.000666   0.011560  -0.072722
     7  C    4.980116   0.428709   0.028090  -0.077946  -0.016189   0.283082
     8  C    0.428709   4.777589   0.498379   0.013149  -0.071641   0.012857
     9  C    0.028090   0.498379   4.759204   0.464704   0.006541  -0.088620
    10  C   -0.077946   0.013149   0.464704   4.720726   0.513489   0.025093
    11  C   -0.016189  -0.071641   0.006541   0.513489   4.849252   0.396259
    12  C    0.283082   0.012857  -0.088620   0.025093   0.396259   5.057163
    13  N   -0.000008   0.000000   0.000000  -0.000001  -0.000027   0.000440
    14  C    0.000001   0.000000   0.000000   0.000000   0.000000  -0.000002
    15  C    0.000000   0.000000   0.000000   0.000000  -0.000002  -0.000003
    16  C    0.000000   0.000000   0.000000   0.000000   0.000000   0.000000
    17  C    0.000000   0.000000   0.000000   0.000000   0.000000   0.000000
    18  C    0.000000   0.000000   0.000000   0.000000   0.000003   0.000009
    19  C    0.000000   0.000000   0.000000   0.000000  -0.000011  -0.000007
    20  C    0.000000   0.000000   0.000000   0.000000   0.000000   0.000000
    21  C    0.000000   0.000000   0.000000   0.000000   0.000000   0.000000
    22  C    0.000000   0.000000   0.000000   0.000000   0.000000   0.000000
    23  C    0.000000   0.000000   0.000000   0.000000   0.000000   0.000000
    24  C    0.000000   0.000000   0.000000   0.000000   0.000000   0.000000
    25  C    0.000000   0.000000   0.000000   0.000000   0.000000   0.000000
    26  C    0.000000   0.000000   0.000000   0.000000   0.000000   0.000000
    27  C    0.000000   0.000000   0.000000   0.000000   0.000000   0.000000
    28  N    0.000000   0.000000   0.000000   0.000000   0.000000   0.000000
    29  C    0.000000   0.000000   0.000000   0.000000   0.000000   0.000000
    30  H   -0.000603  -0.000022   0.000003   0.000018   0.000340   0.010440
    31  H    0.000919   0.000022  -0.000018   0.000000   0.001623  -0.000485
    32  H   -0.040813   0.376877  -0.058636   0.010100  -0.001344   0.015940
    33  H    0.010773  -0.048266   0.389289  -0.051064   0.011330  -0.000911
    34  H   -0.000732   0.010976  -0.050190   0.385933  -0.047095   0.010702
    35  H    0.009634   0.000048   0.008616  -0.044615   0.365059  -0.028157
    36  H   -0.000002   0.000000   0.000000   0.000000   0.000000  -0.000014
    37  H    0.000000   0.000000   0.000000   0.000000   0.000000   0.000002
    38  H    0.000000   0.000000   0.000000   0.000000   0.000005  -0.000016
    39  H    0.000000   0.000000   0.000000   0.000000   0.000000   0.000000
    40  H    0.000000   0.000000   0.000000   0.000000   0.000000   0.000000
    41  H    0.000000   0.000000   0.000000   0.000000   0.000000   0.000000
    42  H    0.000000   0.000000   0.000000   0.000000   0.000000   0.000000
    43  H    0.000000   0.000000   0.000000   0.000002   0.000026  -0.000006
    44  H    0.000000   0.000000   0.000000   0.000000   0.000000   0.000000
    45  H    0.000000   0.000000   0.000000   0.000000   0.000000   0.000000
    46  H    0.000000   0.000000   0.000000   0.000000   0.000000   0.000000
    47  H    0.000000   0.000000   0.000000   0.000000   0.000000   0.000000
    48  H    0.000000   0.000000   0.000000   0.000000   0.000000   0.000000
    49  H    0.000000   0.000000   0.000000   0.000000   0.000000   0.000000
    50  H    0.000000   0.000000   0.000000   0.000000   0.000000   0.000000
             13         14         15         16         17         18
     1  O   -0.071643   0.002471  -0.000144  -0.000001   0.000002  -0.002443
     2  C    0.379190  -0.048175  -0.002477  -0.000093  -0.000285  -0.056804
     3  C   -0.074723   0.003238  -0.002835   0.000022   0.000153   0.007743
     4  N    0.001547   0.000156   0.000032   0.000000   0.000000  -0.000064
     5  N   -0.000022   0.000022   0.000000   0.000000   0.000000   0.000000
     6  N    0.000000   0.000000   0.000000   0.000000   0.000000   0.000000
     7  C   -0.000008   0.000001   0.000000   0.000000   0.000000   0.000000
     8  C    0.000000   0.000000   0.000000   0.000000   0.000000   0.000000
     9  C    0.000000   0.000000   0.000000   0.000000   0.000000   0.000000
    10  C   -0.000001   0.000000   0.000000   0.000000   0.000000   0.000000
    11  C   -0.000027   0.000000  -0.000002   0.000000   0.000000   0.000003
    12  C    0.000440  -0.000002  -0.000003   0.000000   0.000000   0.000009
    13  N    6.598137   0.363916  -0.051707   0.004841  -0.002883   0.269056
    14  C    0.363916   4.548925   0.436453  -0.023943  -0.035159  -0.063385
    15  C   -0.051707   0.436453   4.819805   0.298375   0.333497  -0.003506
    16  C    0.004841  -0.023943   0.298375   4.671627   0.337618  -0.000210
    17  C   -0.002883  -0.035159   0.333497   0.337618   4.641638   0.002576
    18  C    0.269056  -0.063385  -0.003506  -0.000210   0.002576   4.945718
    19  C   -0.045196   0.002368   0.000943   0.000017   0.000030   0.473827
    20  C    0.005073  -0.000193  -0.000030   0.000012   0.000067   0.012430
    21  C    0.000412  -0.000011   0.000012   0.000000   0.000000  -0.074378
    22  C    0.005225   0.000364  -0.000001  -0.000005  -0.000188   0.000920
    23  C   -0.039005  -0.008682   0.000043  -0.000158  -0.000382   0.467310
    24  C    0.000002   0.000000   0.000000   0.000000   0.000000   0.000866
    25  C    0.000000   0.000000   0.000000   0.000000   0.000000  -0.000020
    26  C    0.000000   0.000000   0.000000   0.000000   0.000000   0.000001
    27  C    0.000000   0.000000   0.000000   0.000000   0.000000   0.000000
    28  N    0.000000   0.000000   0.000000   0.000000   0.000000   0.000000
    29  C    0.000000   0.000000   0.000000   0.000000   0.000000  -0.000003
    30  H   -0.000313  -0.001141  -0.000385  -0.000044  -0.000008  -0.000276
    31  H   -0.000377   0.003946  -0.000317   0.000034  -0.000077  -0.000361
    32  H    0.000000   0.000000   0.000000   0.000000   0.000000   0.000000
    33  H    0.000000   0.000000   0.000000   0.000000   0.000000   0.000000
    34  H    0.000000   0.000000   0.000000   0.000000   0.000000   0.000000
    35  H   -0.000031  -0.000006   0.000008  -0.000001   0.000001  -0.000009
    36  H   -0.015567   0.357542  -0.025578  -0.001987   0.006529   0.006252
    37  H   -0.021613   0.355566  -0.027367  -0.003229  -0.008868  -0.006348
    38  H   -0.001136  -0.038739   0.377277  -0.019390  -0.026526  -0.001534
    39  H   -0.000158   0.001893  -0.002291   0.375687  -0.011253   0.000007
    40  H    0.000356  -0.006837  -0.018846   0.387373  -0.012934  -0.000010
    41  H   -0.000808  -0.005049  -0.018723  -0.011969   0.389605   0.001805
    42  H    0.000230   0.002546  -0.006712  -0.012318   0.379033   0.000042
    43  H   -0.011574  -0.000351   0.000259  -0.000029   0.000252  -0.038025
    44  H   -0.000154   0.000004  -0.000002   0.000000  -0.000001   0.010389
    45  H   -0.000180  -0.000008  -0.000002   0.000000   0.000000   0.010744
    46  H   -0.005478  -0.000795   0.000521  -0.000038  -0.000010  -0.046323
    47  H    0.000000   0.000000   0.000000   0.000000   0.000000  -0.000040
    48  H    0.000000   0.000000   0.000000   0.000000   0.000000   0.000000
    49  H    0.000000   0.000000   0.000000   0.000000   0.000000   0.000000
    50  H    0.000000   0.000000   0.000000   0.000000   0.000000  -0.000021
             19         20         21         22         23         24
     1  O    0.003715  -0.000375  -0.000008   0.000025  -0.001440   0.000000
     2  C   -0.005966   0.000067   0.000005   0.000236  -0.001383   0.000000
     3  C    0.000392  -0.000001   0.000000   0.000006  -0.000685   0.000000
     4  N   -0.000003   0.000000   0.000000   0.000000   0.000002   0.000000
     5  N    0.000000   0.000000   0.000000   0.000000   0.000000   0.000000
     6  N    0.000000   0.000000   0.000000   0.000000   0.000000   0.000000
     7  C    0.000000   0.000000   0.000000   0.000000   0.000000   0.000000
     8  C    0.000000   0.000000   0.000000   0.000000   0.000000   0.000000
     9  C    0.000000   0.000000   0.000000   0.000000   0.000000   0.000000
    10  C    0.000000   0.000000   0.000000   0.000000   0.000000   0.000000
    11  C   -0.000011   0.000000   0.000000   0.000000   0.000000   0.000000
    12  C   -0.000007   0.000000   0.000000   0.000000   0.000000   0.000000
    13  N   -0.045196   0.005073   0.000412   0.005225  -0.039005   0.000002
    14  C    0.002368  -0.000193  -0.000011   0.000364  -0.008682   0.000000
    15  C    0.000943  -0.000030   0.000012  -0.000001   0.000043   0.000000
    16  C    0.000017   0.000012   0.000000  -0.000005  -0.000158   0.000000
    17  C    0.000030   0.000067   0.000000  -0.000188  -0.000382   0.000000
    18  C    0.473827   0.012430  -0.074378   0.000920   0.467310   0.000866
    19  C    4.709281   0.485315   0.010933  -0.069260  -0.021514   0.007452
    20  C    0.485315   4.831766   0.464699  -0.010301  -0.072305  -0.078439
    21  C    0.010933   0.464699   5.047842   0.475287   0.008541   0.279166
    22  C   -0.069260  -0.010301   0.475287   4.822122   0.482949  -0.083663
    23  C   -0.021514  -0.072305   0.008541   0.482949   4.765654   0.007940
    24  C    0.007452  -0.078439   0.279166  -0.083663   0.007940   5.115613
    25  C    0.000293  -0.011848  -0.091326   0.006333  -0.000175   0.495139
    26  C   -0.000012  -0.000039   0.011389  -0.000190   0.000004   0.008321
    27  C    0.000000  -0.000021   0.001069   0.000000  -0.000001  -0.044067
    28  N    0.000000  -0.000134   0.007756   0.000022  -0.000003  -0.015267
    29  C   -0.000134   0.004790  -0.062293  -0.011929   0.000153   0.476441
    30  H    0.000010   0.000001   0.000000   0.000000   0.000057   0.000000
    31  H    0.000005  -0.000003   0.000000   0.000000   0.000014   0.000000
    32  H    0.000000   0.000000   0.000000   0.000000   0.000000   0.000000
[...]
     8  C    0.000000   0.000000   0.000000   0.000000   0.000000   0.000000
     9  C    0.000000   0.000000   0.000000   0.000000   0.000000   0.000000
    10  C    0.000002   0.000000   0.000000   0.000000   0.000000   0.000000
    11  C    0.000026   0.000000   0.000000   0.000000   0.000000   0.000000
    12  C   -0.000006   0.000000   0.000000   0.000000   0.000000   0.000000
    13  N   -0.011574  -0.000154  -0.000180  -0.005478   0.000000   0.000000
    14  C   -0.000351   0.000004  -0.000008  -0.000795   0.000000   0.000000
    15  C    0.000259  -0.000002  -0.000002   0.000521   0.000000   0.000000
    16  C   -0.000029   0.000000   0.000000  -0.000038   0.000000   0.000000
    17  C    0.000252  -0.000001   0.000000  -0.000010   0.000000   0.000000
    18  C   -0.038025   0.010389   0.010744  -0.046323  -0.000040   0.000000
    19  C    0.380631  -0.040574  -0.000382   0.011371   0.000386   0.000000
    20  C   -0.046694   0.381710   0.011876  -0.000370   0.006193  -0.000010
    21  C    0.009833  -0.046775  -0.045878   0.009621  -0.024866  -0.000229
    22  C   -0.000424   0.012330   0.381403  -0.040386  -0.000017   0.000004
    23  C    0.011605  -0.000374  -0.038764   0.375985  -0.000027   0.000000
    24  C   -0.000335  -0.022413  -0.020602  -0.000364  -0.044995   0.009768
    25  C    0.000001   0.005416   0.000234   0.000004   0.400636  -0.040266
    26  C    0.000000   0.000271  -0.000058   0.000000  -0.054862   0.374676
    27  C    0.000000  -0.000035  -0.000013   0.000000   0.009015  -0.041277
    28  N    0.000000  -0.000013   0.000029   0.000000  -0.001225   0.006054
    29  C    0.000002   0.000043   0.004512   0.000000   0.011234   0.000921
    30  H    0.000008   0.000000   0.000000   0.000013   0.000000   0.000000
    31  H   -0.000089   0.000000   0.000000   0.000004   0.000000   0.000000
    32  H    0.000000   0.000000   0.000000   0.000000   0.000000   0.000000
    33  H    0.000000   0.000000   0.000000   0.000000   0.000000   0.000000
    34  H    0.000000   0.000000   0.000000   0.000000   0.000000   0.000000
    35  H    0.000179   0.000000   0.000000   0.000000   0.000000   0.000000
    36  H   -0.000034   0.000000  -0.000001  -0.000454   0.000000   0.000000
    37  H   -0.000038   0.000000   0.000058   0.001446   0.000000   0.000000
    38  H    0.000001   0.000000   0.000000  -0.000015   0.000000   0.000000
    39  H    0.000001   0.000000   0.000000   0.000001   0.000000   0.000000
    40  H    0.000001   0.000000   0.000000  -0.000016   0.000000   0.000000
    41  H   -0.000021   0.000004   0.000009  -0.000094   0.000000   0.000000
    42  H    0.000061   0.000002   0.000000   0.000002   0.000000   0.000000
    43  H    0.736675  -0.016195   0.000059  -0.000259   0.000029   0.000000
    44  H   -0.016195   0.750261  -0.000264   0.000071   0.000545   0.000028
    45  H    0.000059  -0.000264   0.742796  -0.016421  -0.000018   0.000000
    46  H   -0.000259   0.000071  -0.016421   0.740310   0.000000   0.000000
    47  H    0.000029   0.000545  -0.000018   0.000000   0.736641  -0.015176
    48  H    0.000000   0.000028   0.000000   0.000000  -0.015176   0.736306
    49  H    0.000000  -0.000001   0.000000   0.000000  -0.000327  -0.009028
    50  H    0.000000  -0.000019   0.001528   0.000017  -0.000277   0.000112
             49         50
     1  O    0.000000   0.000000
     2  C    0.000000   0.000000
     3  C    0.000000   0.000000
     4  N    0.000000   0.000000
     5  N    0.000000   0.000000
     6  N    0.000000   0.000000
     7  C    0.000000   0.000000
     8  C    0.000000   0.000000
     9  C    0.000000   0.000000
    10  C    0.000000   0.000000
    11  C    0.000000   0.000000
    12  C    0.000000   0.000000
    13  N    0.000000   0.000000
    14  C    0.000000   0.000000
    15  C    0.000000   0.000000
    16  C    0.000000   0.000000
    17  C    0.000000   0.000000
    18  C    0.000000  -0.000021
    19  C    0.000000  -0.000036
    20  C   -0.000001  -0.000193
    21  C    0.000060  -0.015661
    22  C   -0.000001   0.006289
    23  C    0.000000   0.000145
    24  C    0.002016  -0.046521
    25  C    0.005086   0.008151
    26  C   -0.051722   0.000911
    27  C    0.387436   0.003787
    28  N   -0.029132  -0.027483
    29  C    0.002701   0.380690
    30  H    0.000000   0.000000
    31  H    0.000000   0.000000
    32  H    0.000000   0.000000
    33  H    0.000000   0.000000
    34  H    0.000000   0.000000
    35  H    0.000000   0.000000
    36  H    0.000000   0.000000
    37  H    0.000000   0.000001
    38  H    0.000000   0.000000
    39  H    0.000000   0.000000
    40  H    0.000000   0.000000
    41  H    0.000000   0.000005
    42  H    0.000000   0.000000
    43  H    0.000000   0.000000
    44  H   -0.000001  -0.000019
    45  H    0.000000   0.001528
    46  H    0.000000   0.000017
    47  H   -0.000327  -0.000277
    48  H   -0.009028   0.000112
    49  H    0.696521  -0.000720
    50  H   -0.000720   0.701530
 Mulliken atomic charges:
              1
     1  O   -0.243858
     2  C    0.135052
     3  C    0.114640
     4  N   -0.228293
     5  N   -0.060801
     6  N   -0.181608
     7  C    0.010723
     8  C    0.044604
     9  C    0.037656
    10  C    0.038942
    11  C    0.034557
    12  C    0.213237
    13  N   -0.285818
    14  C    0.153063
    15  C   -0.106296
    16  C   -0.002193
    17  C    0.007574
    18  C    0.084063
    19  C    0.096346
    20  C    0.016948
    21  C    0.034759
    22  C    0.023014
    23  C    0.060678
    24  C   -0.046057
    25  C    0.075663
    26  C   -0.007994
    27  C    0.105402
    28  N   -0.173367
    29  C    0.099345
    30  H    0.063560
    31  H    0.049855
    32  H   -0.022422
    33  H   -0.027440
    34  H   -0.026398
    35  H   -0.033749
    36  H    0.031207
    37  H    0.006500
    38  H   -0.012890
    39  H    0.026746
    40  H    0.021953
    41  H    0.032318
    42  H    0.025278
    43  H   -0.032128
    44  H   -0.034227
    45  H   -0.030657
    46  H   -0.027633
    47  H   -0.022849
    48  H   -0.021883
    49  H   -0.002888
    50  H   -0.012233
 Sum of Mulliken atomic charges =   0.00000
 Mulliken charges with hydrogens summed into heavy atoms:
              1
     1  O   -0.243858
     2  C    0.135052
     3  C    0.228055
     4  N   -0.228293
     5  N   -0.060801
     6  N   -0.181608
     7  C    0.010723
     8  C    0.022181
     9  C    0.010217
    10  C    0.012544
    11  C    0.000808
    12  C    0.213237
    13  N   -0.285818
    14  C    0.190771
    15  C   -0.119186
    16  C    0.046506
    17  C    0.065170
    18  C    0.084063
    19  C    0.064219
    20  C   -0.017280
    21  C    0.034759
    22  C   -0.007643
    23  C    0.033045
    24  C   -0.046057
    25  C    0.052814
    26  C   -0.029877
    27  C    0.102514
    28  N   -0.173367
    29  C    0.087113
 Sum of Mulliken charges with hydrogens summed into heavy atoms =   0.00000
 Electronic spatial extent (au):  <R**2>=          16856.2700
 Charge=              0.0000 electrons
 Dipole moment (field-independent basis, Debye):
    X=             -1.7386    Y=              2.5197    Z=              3.8601  Tot=              4.9266
 Quadrupole moment (field-independent basis, Debye-Ang):
   XX=           -196.7554   YY=           -151.5285   ZZ=           -168.3903
   XY=              9.0835   XZ=             13.7860   YZ=             -7.8824
 Traceless Quadrupole moment (field-independent basis, Debye-Ang):
   XX=            -24.5307   YY=             20.6962   ZZ=              3.8345
   XY=              9.0835   XZ=             13.7860   YZ=             -7.8824
 Octapole moment (field-independent basis, Debye-Ang**2):
  XXX=             59.7366  YYY=              4.2761  ZZZ=             19.6342  XYY=             -8.0358
  XXY=           -103.4467  XXZ=            104.9882  XZZ=            -21.9812  YZZ=              7.5088
  YYZ=             10.0764  XYZ=              7.5611
 Hexadecapole moment (field-independent basis, Debye-Ang**3):
 XXXX=         -19720.0136 YYYY=          -3903.1374 ZZZZ=          -1239.7742 XXXY=            236.9132
 XXXZ=            156.0375 YYYX=            110.6992 YYYZ=            -48.7457 ZZZX=            114.8057
 ZZZY=            -16.0252 XXYY=          -3235.3432 XXZZ=          -3473.4299 YYZZ=           -834.5064
 XXYZ=           -157.1412 YYXZ=              8.3905 ZZXY=            -36.3185
 N-N= 2.473659584514D+03 E-N=-7.822837918536D+03  KE= 1.229625339006D+03
 No NMR shielding tensors so no spin-rotation constants.
 Leave Link  601 at Sat Sep 10 10:36:16 2022, MaxMem=  209715200 cpu:       3.5
 (Enter /opt/gaussian/l602.exe)
 Breneman (CHELPG) radii used.
 Read replacement radii for each type of atom:
 Rad(35) =   1.900000000000D+00
 Atom Element Radius
    1     8    1.70
    2     6    1.50
    3     6    1.50
    4     7    1.70
    5     7    1.70
    6     7    1.70
    7     6    1.50
    8     6    1.50
    9     6    1.50
   10     6    1.50
   11     6    1.50
   12     6    1.50
   13     7    1.70
   14     6    1.50
   15     6    1.50
   16     6    1.50
   17     6    1.50
   18     6    1.50
   19     6    1.50
   20     6    1.50
   21     6    1.50
   22     6    1.50
   23     6    1.50
   24     6    1.50
   25     6    1.50
   26     6    1.50
   27     6    1.50
   28     7    1.70
   29     6    1.50
   30     1    1.45
   31     1    1.45
   32     1    1.45
   33     1    1.45
   34     1    1.45
   35     1    1.45
   36     1    1.45
   37     1    1.45
   38     1    1.45
   39     1    1.45
   40     1    1.45
   41     1    1.45
   42     1    1.45
   43     1    1.45
   44     1    1.45
   45     1    1.45
   46     1    1.45
   47     1    1.45
   48     1    1.45
   49     1    1.45
   50     1    1.45
 Generate Potential Derived Charges using the Breneman model, NDens= 1.
 Grid spacing= 0.300 Box extension= 2.800
 NStep X,Y,Z=   72     51     37   Total possible points=      135864
 Number of Points to Fit=   28196

 **********************************************************************

            Electrostatic Properties Using The SCF Density

 **********************************************************************

       Atomic Center    1 is at   1.344080 -0.759320 -0.391080
       Atomic Center    2 is at   1.427410  0.454040 -0.464740
       Atomic Center    3 is at   2.803750  1.142380 -0.568090
       Atomic Center    4 is at   3.878620  0.195910 -0.732780
       Atomic Center    5 is at   4.598680  0.217020 -1.898060
       Atomic Center    6 is at   5.544020 -0.655030 -1.836250
       Atomic Center    7 is at   5.478170 -1.283690 -0.607660
       Atomic Center    8 is at   6.287080 -2.289739 -0.050080
       Atomic Center    9 is at   5.980630 -2.718149  1.233580
       Atomic Center   10 is at   4.888860 -2.167890  1.952860
       Atomic Center   11 is at   4.075100 -1.179210  1.414840
       Atomic Center   12 is at   4.395100 -0.742820  0.118440
       Atomic Center   13 is at   0.325100  1.289510 -0.457890
       Atomic Center   14 is at   0.413660  2.760510 -0.423580
       Atomic Center   15 is at   0.399260  3.347980  0.974220
       Atomic Center   16 is at  -0.045730  4.780340  1.167530
       Atomic Center   17 is at  -0.909260  3.647010  1.669870
       Atomic Center   18 is at  -0.983700  0.700200 -0.360010
       Atomic Center   19 is at  -1.329540 -0.131920  0.711690
       Atomic Center   20 is at  -2.609580 -0.676631  0.791540
       Atomic Center   21 is at  -3.583370 -0.406061 -0.187680
       Atomic Center   22 is at  -3.220330  0.426109 -1.261570
       Atomic Center   23 is at  -1.936530  0.964310 -1.351400
       Atomic Center   24 is at  -4.946510 -0.983891 -0.092590
       Atomic Center   25 is at  -5.170650 -2.296621  0.354440
       Atomic Center   26 is at  -6.475180 -2.782891  0.420770
       Atomic Center   27 is at  -7.523950 -1.944031  0.034240
       Atomic Center   28 is at  -7.342680 -0.685941 -0.390220
       Atomic Center   29 is at  -6.085670 -0.233391 -0.443520
       Atomic Center   30 is at   2.856950  1.797850 -1.447720
       Atomic Center   31 is at   2.981870  1.763710  0.326130
       Atomic Center   32 is at   7.120490 -2.706109 -0.617810
       Atomic Center   33 is at   6.583781 -3.497819  1.703220
       Atomic Center   34 is at   4.676890 -2.541450  2.957220
       Atomic Center   35 is at   3.220240 -0.783420  1.962810
       Atomic Center   36 is at   1.318000  3.079200 -0.960140
       Atomic Center   37 is at  -0.434800  3.162720 -0.997110
       Atomic Center   38 is at   1.219280  3.009190  1.615890
       Atomic Center   39 is at   0.490879  5.391150  1.896450
       Atomic Center   40 is at  -0.388261  5.329810  0.286270
       Atomic Center   41 is at  -1.834010  3.430850  1.129670
       Atomic Center   42 is at  -0.967710  3.478470  2.747290
       Atomic Center   43 is at  -0.592980 -0.352830  1.483490
       Atomic Center   44 is at  -2.865820 -1.304021  1.647780
       Atomic Center   45 is at  -3.937970  0.624669 -2.059890
       Atomic Center   46 is at  -1.666580  1.578020 -2.213450
       Atomic Center   47 is at  -4.327370 -2.936781  0.623490
       Atomic Center   48 is at  -6.677889 -3.802131  0.755960
       Atomic Center   49 is at  -8.559720 -2.298131  0.066290
       Atomic Center   50 is at  -5.968230  0.805659 -0.769470
   28196 points will be used for fitting atomic charges
 Fitting point charges to electrostatic potential
 Charges from ESP fit, RMS=   0.00383 RRMS=   0.22536:
 Charge=   0.00000 Dipole=    -1.5832     2.5051     3.7807 Tot=     4.8038
              1
     1  O   -0.513794
     2  C    0.601279
     3  C   -0.051409
     4  N    0.281731
     5  N   -0.224536
     6  N   -0.337582
     7  C    0.412229
     8  C   -0.271950
     9  C   -0.050515
    10  C   -0.102842
    11  C   -0.146617
    12  C   -0.065366
    13  N   -0.444745
    14  C    0.134404
    15  C   -0.092378
    16  C   -0.206702
    17  C   -0.086669
    18  C    0.288944
    19  C   -0.185311
    20  C   -0.071711
    21  C    0.041494
    22  C   -0.114102
    23  C   -0.131052
    24  C   -0.156505
    25  C    0.099396
    26  C   -0.310118
    27  C    0.357319
    28  N   -0.541036
    29  C    0.323383
    30  H    0.041910
    31  H    0.020006
    32  H    0.133926
    33  H    0.088620
    34  H    0.092688
    35  H    0.116609
    36  H    0.014171
    37  H    0.089803
    38  H    0.092246
    39  H    0.095635
    40  H    0.077139
    41  H    0.033529
    42  H    0.061089
    43  H    0.130713
    44  H    0.079648
    45  H    0.098265
    46  H    0.089230
    47  H    0.070194
    48  H    0.118306
    49  H    0.008673
    50  H    0.012361
 Charges from ESP fit with hydrogens summed into heavy atoms:
              1
     1  O   -0.513794
     2  C    0.601279
     3  C    0.010506
     4  N    0.281731
     5  N   -0.224536
     6  N   -0.337582
     7  C    0.412229
     8  C   -0.138024
     9  C    0.038105
    10  C   -0.010154
    11  C   -0.030009
    12  C   -0.065366
    13  N   -0.444745
    14  C    0.238378
    15  C   -0.000132
    16  C   -0.033928
    17  C    0.007949
    18  C    0.288944
    19  C   -0.054598
    20  C    0.007938
    21  C    0.041494
    22  C   -0.015837
    23  C   -0.041822
    24  C   -0.156505
    25  C    0.169589
    26  C   -0.191812
    27  C    0.365992
    28  N   -0.541036
    29  C    0.335744
    30  H    0.000000
    31  H    0.000000
    32  H    0.000000
    33  H    0.000000
    34  H    0.000000
    35  H    0.000000
    36  H    0.000000
    37  H    0.000000
    38  H    0.000000
    39  H    0.000000
    40  H    0.000000
    41  H    0.000000
    42  H    0.000000
    43  H    0.000000
    44  H    0.000000
    45  H    0.000000
    46  H    0.000000
    47  H    0.000000
    48  H    0.000000
    49  H    0.000000
    50  H    0.000000
 -----------------------------------------------------------------

              Electrostatic Properties (Atomic Units)

 -----------------------------------------------------------------
    Center     Electric         -------- Electric Field --------
               Potential          X             Y             Z
 -----------------------------------------------------------------
    1 Atom    -22.366935
    2 Atom    -14.636681
    3 Atom    -14.680558
    4 Atom    -18.293403
    5 Atom    -18.331203
    6 Atom    -18.369580
    7 Atom    -14.737692
    8 Atom    -14.748469
    9 Atom    -14.751743
   10 Atom    -14.746293
   11 Atom    -14.742274
   12 Atom    -14.714761
   13 Atom    -18.321112
   14 Atom    -14.687540
   15 Atom    -14.722678
   16 Atom    -14.729413
   17 Atom    -14.731532
   18 Atom    -14.701107
   19 Atom    -14.741879
   20 Atom    -14.741077
   21 Atom    -14.731145
   22 Atom    -14.739880
   23 Atom    -14.738823
   24 Atom    -14.732404
   25 Atom    -14.733225
   26 Atom    -14.741770
   27 Atom    -14.717669
   28 Atom    -18.382298
   29 Atom    -14.717216
   30 Atom     -1.054542
   31 Atom     -1.055644
   32 Atom     -1.089672
   33 Atom     -1.095443
   34 Atom     -1.091994
   35 Atom     -1.082158
   36 Atom     -1.072497
   37 Atom     -1.072851
   38 Atom     -1.083296
   39 Atom     -1.085682
   40 Atom     -1.084005
   41 Atom     -1.087481
   42 Atom     -1.087658
   43 Atom     -1.083532
   44 Atom     -1.082664
   45 Atom     -1.081735
   46 Atom     -1.075363
   47 Atom     -1.076543
   48 Atom     -1.078771
   49 Atom     -1.091864
   50 Atom     -1.091502
 -----------------------------------------------------------------
 Leave Link  602 at Sat Sep 10 10:36:29 2022, MaxMem=  209715200 cpu:      99.8
 (Enter /opt/gaussian/l9999.exe)
 1\1\GINC-LQCAPF-6\SP\RB3LYP\CC-pVDZ\C23H21N5O1\LQCAPF-6\10-Sep-2022\0\
 \#p b3lyp/cc-pvdz pop=(chelpg,readradii)\\Mol23.log\\0,1\O,0,1.34408,-
 0.75932,-0.39108\C,0,1.42741,0.45404,-0.46474\C,0,2.80375,1.14238,-0.5
 6809\N,0,3.87862,0.19591,-0.73278\N,0,4.59868,0.21702,-1.89806\N,0,5.5
 4402,-0.65503,-1.83625\C,0,5.47817,-1.28369,-0.60766\C,0,6.28708,-2.28
 974,-0.05008\C,0,5.98063,-2.71815,1.23358\C,0,4.88886,-2.16789,1.95286
 \C,0,4.0751,-1.17921,1.41484\C,0,4.3951,-0.74282,0.11844\N,0,0.3251,1.
 28951,-0.45789\C,0,0.41366,2.76051,-0.42358\C,0,0.39926,3.34798,0.9742
 2\C,0,-0.04573,4.78034,1.16753\C,0,-0.90926,3.64701,1.66987\C,0,-0.983
 7,0.7002,-0.36001\C,0,-1.32954,-0.13192,0.71169\C,0,-2.60958,-0.67663,
 0.79154\C,0,-3.58337,-0.40606,-0.18768\C,0,-3.22033,0.42611,-1.26157\C
 ,0,-1.93653,0.96431,-1.3514\C,0,-4.94651,-0.98389,-0.09259\C,0,-5.1706
 5,-2.29662,0.35444\C,0,-6.47518,-2.78289,0.42077\C,0,-7.52395,-1.94403
 ,0.03424\N,0,-7.34268,-0.68594,-0.39022\C,0,-6.08567,-0.23339,-0.44352
 \H,0,2.85695,1.79785,-1.44772\H,0,2.98187,1.76371,0.32613\H,0,7.12049,
 -2.70611,-0.61781\H,0,6.58378,-3.49782,1.70322\H,0,4.67689,-2.54145,2.
 95722\H,0,3.22024,-0.78342,1.96281\H,0,1.318,3.0792,-0.96014\H,0,-0.43
 48,3.16272,-0.99711\H,0,1.21928,3.00919,1.61589\H,0,0.49088,5.39115,1.
 89645\H,0,-0.38826,5.32981,0.28627\H,0,-1.83401,3.43085,1.12967\H,0,-0
 .96771,3.47847,2.74729\H,0,-0.59298,-0.35283,1.48349\H,0,-2.86582,-1.3
 0402,1.64778\H,0,-3.93797,0.62467,-2.05989\H,0,-1.66658,1.57802,-2.213
 45\H,0,-4.32737,-2.93678,0.62349\H,0,-6.67789,-3.80213,0.75596\H,0,-8.
 55972,-2.29813,0.06629\H,0,-5.96823,0.80566,-0.76947\\Version=EM64L-G0
 9RevC.01\State=1-A\HF=-1238.0905259\RMSD=8.657e-09\Dipole=-0.6840227,0
 .9913226,1.5186693\Quadrupole=-18.2379768,15.3871313,2.8508454,6.75336
 89,10.2495206,-5.8603448\PG=C01 [X(C23H21N5O1)]\\@



 WE LOSE BECAUSE WE WIN

 GAMBLERS,

 RECOLLECTING WHICH,

 TOSS THEIR DICE AGAIN....


                          EMILY DICKINSON  BOLTS OF MELODY NO. 533
 Job cpu time:  0 days  1 hours 18 minutes 58.8 seconds.
 File lengths (MBytes):  RWF=    145 Int=      0 D2E=      0 Chk=     10 Scr=      1
 Normal termination of Gaussian 09 at Sat Sep 10 10:36:29 2022.
