 Entering Gaussian System, Link 0=g09
 Input=Mol38.gjf
 Output=Mol38.log
 Initial command:
 /opt/gaussian/l1.exe /home/scr/lqcapf-6/Gau-581015.inp -scrdir=/home/scr/lqcapf-6/
 Entering Link 1 = /opt/gaussian/l1.exe PID=    581017.
  
 Copyright (c) 1988,1990,1992,1993,1995,1998,2003,2009,2011,
            Gaussian, Inc.  All Rights Reserved.
  
 This is part of the Gaussian(R) 09 program.  It is based on
 the Gaussian(R) 03 system (copyright 2003, Gaussian, Inc.),
 the Gaussian(R) 98 system (copyright 1998, Gaussian, Inc.),
 the Gaussian(R) 94 system (copyright 1995, Gaussian, Inc.),
 the Gaussian 92(TM) system (copyright 1992, Gaussian, Inc.),
 the Gaussian 90(TM) system (copyright 1990, Gaussian, Inc.),
 the Gaussian 88(TM) system (copyright 1988, Gaussian, Inc.),
 the Gaussian 86(TM) system (copyright 1986, Carnegie Mellon
 University), and the Gaussian 82(TM) system (copyright 1983,
 Carnegie Mellon University). Gaussian is a federally registered
 trademark of Gaussian, Inc.
  
 This software contains proprietary and confidential information,
 including trade secrets, belonging to Gaussian, Inc.
  
 This software is provided under written license and may be
 used, copied, transmitted, or stored only in accord with that
 written license.
  
 The following legend is applicable only to US Government
 contracts under FAR:
  
                    RESTRICTED RIGHTS LEGEND
  
 Use, reproduction and disclosure by the US Government is
 subject to restrictions as set forth in subparagraphs (a)
 and (c) of the Commercial Computer Software - Restricted
 Rights clause in FAR 52.227-19.
  
 Gaussian, Inc.
 340 Quinnipiac St., Bldg. 40, Wallingford CT 06492
  
  
 ---------------------------------------------------------------
 Warning -- This program may not be used in any manner that
 competes with the business of Gaussian, Inc. or will provide
 assistance to any competitor of Gaussian, Inc.  The licensee
 of this program is prohibited from giving any competitor of
 Gaussian, Inc. access to this program.  By using this program,
 the user acknowledges that Gaussian, Inc. is engaged in the
 business of creating and licensing software in the field of
 computational chemistry and represents and warrants to the
 licensee that it is not a competitor of Gaussian, Inc. and that
 it will not use this program in any manner prohibited above.
 ---------------------------------------------------------------
  

 Cite this work as:
 Gaussian 09, Revision C.01,
 M. J. Frisch, G. W. Trucks, H. B. Schlegel, G. E. Scuseria, 
 M. A. Robb, J. R. Cheeseman, G. Scalmani, V. Barone, B. Mennucci, 
 G. A. Petersson, H. Nakatsuji, M. Caricato, X. Li, H. P. Hratchian, 
 A. F. Izmaylov, J. Bloino, G. Zheng, J. L. Sonnenberg, M. Hada, 
 M. Ehara, K. Toyota, R. Fukuda, J. Hasegawa, M. Ishida, T. Nakajima, 
 Y. Honda, O. Kitao, H. Nakai, T. Vreven, J. A. Montgomery, Jr., 
 J. E. Peralta, F. Ogliaro, M. Bearpark, J. J. Heyd, E. Brothers, 
 K. N. Kudin, V. N. Staroverov, T. Keith, R. Kobayashi, J. Normand, 
 K. Raghavachari, A. Rendell, J. C. Burant, S. S. Iyengar, J. Tomasi, 
 M. Cossi, N. Rega, J. M. Millam, M. Klene, J. E. Knox, J. B. Cross, 
 V. Bakken, C. Adamo, J. Jaramillo, R. Gomperts, R. E. Stratmann, 
 O. Yazyev, A. J. Austin, R. Cammi, C. Pomelli, J. W. Ochterski, 
 R. L. Martin, K. Morokuma, V. G. Zakrzewski, G. A. Voth, 
 P. Salvador, J. J. Dannenberg, S. Dapprich, A. D. Daniels, 
 O. Farkas, J. B. Foresman, J. V. Ortiz, J. Cioslowski, 
 and D. J. Fox, Gaussian, Inc., Wallingford CT, 2010.
 
 ******************************************
 Gaussian 09:  EM64L-G09RevC.01 23-Sep-2011
                10-Sep-2022 
 ******************************************
 %nprocshared=8
 Will use up to    8 processors via shared memory.
 %mem=1600MB
 ---------------------------------------
 #p b3lyp/cc-pvdz pop=(chelpg,readradii)
 ---------------------------------------
 1/38=1/1;
 2/12=2,17=6,18=5,40=1/2;
 3/5=16,11=2,16=1,25=1,30=1,74=-5/1,2,3;
 4//1;
 5/5=2,38=5/2;
 6/7=2,8=2,9=2,10=2,15=8,20=103,28=1/1,2;
 99/5=1,9=1/99;
 Leave Link    1 at Sat Sep 10 13:45:49 2022, MaxMem=  209715200 cpu:       0.2
 (Enter /opt/gaussian/l101.exe)
 ---------
 Mol38.log
 ---------
 Charge =  0 Multiplicity = 1
 Symbolic Z-Matrix:
 C                    -2.41991  -1.27995  -3.58847 
 O                    -1.64441  -0.6958   -2.55014 
 C                    -2.2074   -0.55576  -1.31506 
 C                    -3.53247  -0.88085  -1.00786 
 C                    -4.03625  -0.71646   0.29706 
 C                    -3.17812  -0.21329   1.2887 
 C                    -1.86356   0.13148   0.97643 
 C                    -1.36492  -0.0201   -0.31657 
 N                    -0.00802   0.32717  -0.6398 
 C                     0.21983   1.40051  -1.62024 
 C                     0.90032   2.64718  -1.07324 
 C                     1.83068   3.339    -1.86058 
 C                     2.42209   4.51624  -1.39347 
 C                     2.1007    5.0202   -0.13164 
 C                     1.17508   4.32343   0.64893 
 C                     0.57392   3.14957   0.19471 
 Cl                    0.75562   4.93936   2.24378 
 C                     0.99777  -0.49039  -0.15292 
 O                     0.77907  -1.43812   0.5818 
 C                     2.44069  -0.10983  -0.52519 
 N                     3.33447  -1.24595  -0.5092 
 N                     3.91315  -1.62931  -1.6898 
 N                     4.73596  -2.59704  -1.47334 
 C                     4.73059  -2.87866  -0.12131 
 C                     5.46161  -3.82656   0.61772 
 C                     5.25523  -3.86439   1.98878 
 C                     4.3345   -2.98806   2.6197 
 C                     3.59704  -2.05319   1.90557 
 C                     3.81957  -2.01012   0.51853 
 C                    -5.43085  -1.07      0.59986 
 C                    -6.28838  -1.97723  -0.08867 
 N                    -7.49593  -2.05755   0.46527 
 N                    -7.43486  -1.20641   1.50706 
 C                    -6.23054  -0.59358   1.63574 
 H                    -1.75937  -1.33111  -4.46343 
 H                    -2.75017  -2.29853  -3.32144 
 H                    -3.30296  -0.66383  -3.83394 
 H                    -4.19314  -1.25788  -1.78656 
 H                    -3.52978  -0.1105    2.3163 
 H                    -1.19645   0.50517   1.75464 
 H                     0.7797    1.0198   -2.48844 
 H                    -0.77076   1.67613  -2.00649 
 H                     2.09818   2.95254  -2.8474 
 H                     3.14876   5.04467  -2.01425 
 H                     2.56008   5.93352   0.24682 
 H                    -0.1458    2.63081   0.82742 
 H                     2.53048   0.31535  -1.53057 
 H                     2.78716   0.65445   0.19115 
 H                     6.16106  -4.49736   0.11654 
 H                     5.80274  -4.58512   2.59971 
 H                     4.19259  -3.06137   3.70036 
 H                     2.85848  -1.41349   2.38638 
 H                    -6.05943  -2.59339  -0.95601 
 H                    -6.03944   0.13401   2.41962 
 H                    -8.2515   -1.08315   2.09167 
 
 NAtoms=     55 NQM=        0 NQMF=       0 NMMI=     55 NMMIF=      0
                NMic=       0 NMicF=      0.
                    Isotopes and Nuclear Properties:
 (Nuclear quadrupole moments (NQMom) in fm**2, nuclear magnetic moments (NMagM)
  in nuclear magnetons)

  Atom         1           2           3           4           5           6           7           8           9          10
 IAtWgt=          12          16          12          12          12          12          12          12          14          12
 AtmWgt=  12.0000000  15.9949146  12.0000000  12.0000000  12.0000000  12.0000000  12.0000000  12.0000000  14.0030740  12.0000000
 NucSpn=           0           0           0           0           0           0           0           0           2           0
 AtZEff=   0.0000000   0.0000000   0.0000000   0.0000000   0.0000000   0.0000000   0.0000000   0.0000000   0.0000000   0.0000000
 NQMom=    0.0000000   0.0000000   0.0000000   0.0000000   0.0000000   0.0000000   0.0000000   0.0000000   2.0440000   0.0000000
 NMagM=    0.0000000   0.0000000   0.0000000   0.0000000   0.0000000   0.0000000   0.0000000   0.0000000   0.4037610   0.0000000

  Atom        11          12          13          14          15          16          17          18          19          20
 IAtWgt=          12          12          12          12          12          12          35          12          16          12
 AtmWgt=  12.0000000  12.0000000  12.0000000  12.0000000  12.0000000  12.0000000  34.9688527  12.0000000  15.9949146  12.0000000
 NucSpn=           0           0           0           0           0           0           3           0           0           0
 AtZEff=   0.0000000   0.0000000   0.0000000   0.0000000   0.0000000   0.0000000   0.0000000   0.0000000   0.0000000   0.0000000
 NQMom=    0.0000000   0.0000000   0.0000000   0.0000000   0.0000000   0.0000000  -8.1650000   0.0000000   0.0000000   0.0000000
 NMagM=    0.0000000   0.0000000   0.0000000   0.0000000   0.0000000   0.0000000   0.8218740   0.0000000   0.0000000   0.0000000

  Atom        21          22          23          24          25          26          27          28          29          30
 IAtWgt=          14          14          14          12          12          12          12          12          12          12
 AtmWgt=  14.0030740  14.0030740  14.0030740  12.0000000  12.0000000  12.0000000  12.0000000  12.0000000  12.0000000  12.0000000
 NucSpn=           2           2           2           0           0           0           0           0           0           0
 AtZEff=   0.0000000   0.0000000   0.0000000   0.0000000   0.0000000   0.0000000   0.0000000   0.0000000   0.0000000   0.0000000
 NQMom=    2.0440000   2.0440000   2.0440000   0.0000000   0.0000000   0.0000000   0.0000000   0.0000000   0.0000000   0.0000000
 NMagM=    0.4037610   0.4037610   0.4037610   0.0000000   0.0000000   0.0000000   0.0000000   0.0000000   0.0000000   0.0000000

  Atom        31          32          33          34          35          36          37          38          39          40
 IAtWgt=          12          14          14          12           1           1           1           1           1           1
 AtmWgt=  12.0000000  14.0030740  14.0030740  12.0000000   1.0078250   1.0078250   1.0078250   1.0078250   1.0078250   1.0078250
 NucSpn=           0           2           2           0           1           1           1           1           1           1
 AtZEff=   0.0000000   0.0000000   0.0000000   0.0000000   0.0000000   0.0000000   0.0000000   0.0000000   0.0000000   0.0000000
 NQMom=    0.0000000   2.0440000   2.0440000   0.0000000   0.0000000   0.0000000   0.0000000   0.0000000   0.0000000   0.0000000
 NMagM=    0.0000000   0.4037610   0.4037610   0.0000000   2.7928460   2.7928460   2.7928460   2.7928460   2.7928460   2.7928460

  Atom        41          42          43          44          45          46          47          48          49          50
 IAtWgt=           1           1           1           1           1           1           1           1           1           1
 AtmWgt=   1.0078250   1.0078250   1.0078250   1.0078250   1.0078250   1.0078250   1.0078250   1.0078250   1.0078250   1.0078250
 NucSpn=           1           1           1           1           1           1           1           1           1           1
 AtZEff=   0.0000000   0.0000000   0.0000000   0.0000000   0.0000000   0.0000000   0.0000000   0.0000000   0.0000000   0.0000000
 NQMom=    0.0000000   0.0000000   0.0000000   0.0000000   0.0000000   0.0000000   0.0000000   0.0000000   0.0000000   0.0000000
 NMagM=    2.7928460   2.7928460   2.7928460   2.7928460   2.7928460   2.7928460   2.7928460   2.7928460   2.7928460   2.7928460

  Atom        51          52          53          54          55
 IAtWgt=           1           1           1           1           1
 AtmWgt=   1.0078250   1.0078250   1.0078250   1.0078250   1.0078250
 NucSpn=           1           1           1           1           1
 AtZEff=   0.0000000   0.0000000   0.0000000   0.0000000   0.0000000
 NQMom=    0.0000000   0.0000000   0.0000000   0.0000000   0.0000000
 NMagM=    2.7928460   2.7928460   2.7928460   2.7928460   2.7928460
 Leave Link  101 at Sat Sep 10 13:45:49 2022, MaxMem=  209715200 cpu:       0.7
 (Enter /opt/gaussian/l202.exe)
 Stoichiometry    C25H21ClN6O2
 Framework group  C1[X(C25H21ClN6O2)]
 Deg. of freedom   159
 Full point group                 C1      NOp   1
 Largest Abelian subgroup         C1      NOp   1
 Largest concise Abelian subgroup C1      NOp   1
                         Standard orientation:                         
 ---------------------------------------------------------------------
 Center     Atomic      Atomic             Coordinates (Angstroms)
 Number     Number       Type             X           Y           Z
 ---------------------------------------------------------------------
      1          6           0        2.419909   -1.279951    3.588470
      2          8           0        1.644410   -0.695801    2.550140
      3          6           0        2.207400   -0.555761    1.315060
      4          6           0        3.532469   -0.880851    1.007860
      5          6           0        4.036250   -0.716462   -0.297060
      6          6           0        3.178120   -0.213291   -1.288700
      7          6           0        1.863560    0.131479   -0.976430
      8          6           0        1.364920   -0.020101    0.316570
      9          7           0        0.008020    0.327170    0.639800
     10          6           0       -0.219830    1.400510    1.620240
     11          6           0       -0.900319    2.647180    1.073240
     12          6           0       -1.830679    3.339001    1.860580
     13          6           0       -2.422088    4.516241    1.393470
     14          6           0       -2.100698    5.020201    0.131640
     15          6           0       -1.175078    4.323431   -0.648930
     16          6           0       -0.573919    3.149570   -0.194710
     17         17           0       -0.755618    4.939360   -2.243780
     18          6           0       -0.997770   -0.490390    0.152920
     19          8           0       -0.779071   -1.438120   -0.581800
     20          6           0       -2.440690   -0.109829    0.525190
     21          7           0       -3.334471   -1.245949    0.509200
     22          7           0       -3.913151   -1.629308    1.689800
     23          7           0       -4.735961   -2.597038    1.473340
     24          6           0       -4.730591   -2.878658    0.121310
     25          6           0       -5.461612   -3.826558   -0.617720
     26          6           0       -5.255232   -3.864388   -1.988780
     27          6           0       -4.334501   -2.988058   -2.619700
     28          6           0       -3.597041   -2.053188   -1.905570
     29          6           0       -3.819571   -2.010118   -0.518530
     30          6           0        5.430849   -1.070002   -0.599860
     31          6           0        6.288379   -1.977233    0.088670
     32          7           0        7.495929   -2.057553   -0.465270
     33          7           0        7.434859   -1.206413   -1.507060
     34          6           0        6.230540   -0.593583   -1.635740
     35          1           0        1.759369   -1.331111    4.463430
     36          1           0        2.750169   -2.298531    3.321440
     37          1           0        3.302960   -0.663831    3.833940
     38          1           0        4.193139   -1.257882    1.786560
     39          1           0        3.529780   -0.110501   -2.316300
     40          1           0        1.196450    0.505170   -1.754640
     41          1           0       -0.779700    1.019800    2.488440
     42          1           0        0.770761    1.676130    2.006490
     43          1           0       -2.098179    2.952541    2.847400
     44          1           0       -3.148758    5.044671    2.014250
     45          1           0       -2.560078    5.933521   -0.246820
     46          1           0        0.145801    2.630810   -0.827420
     47          1           0       -2.530480    0.315351    1.530570
     48          1           0       -2.787160    0.654451   -0.191150
     49          1           0       -6.161062   -4.497357   -0.116540
     50          1           0       -5.802742   -4.585117   -2.599710
     51          1           0       -4.192591   -3.061368   -3.700360
     52          1           0       -2.858481   -1.413489   -2.386380
     53          1           0        6.059429   -2.593393    0.956010
     54          1           0        6.039440    0.134007   -2.419620
     55          1           0        8.251499   -1.083153   -2.091670
 ---------------------------------------------------------------------
 Rotational constants (GHZ):      0.1186488      0.0676349      0.0527842
 Leave Link  202 at Sat Sep 10 13:45:49 2022, MaxMem=  209715200 cpu:       0.0
 (Enter /opt/gaussian/l301.exe)
 Standard basis: CC-pVDZ (5D, 7F)
 Ernie: Thresh=  0.10000D-02 Tol=  0.10000D-05 Strict=F.
 Ernie:  76 primitive shells out of 881 were deleted.
 There are   585 symmetry adapted basis functions of A   symmetry.
 Integral buffers will be    131072 words long.
 Raffenetti 2 integral format.
 Two-electron integral symmetry is turned on.
   585 basis functions,  1307 primitive gaussians,   619 cartesian basis functions
   123 alpha electrons      123 beta electrons
       nuclear repulsion energy      3430.8706103603 Hartrees.
 IExCor=  402 DFT=T Ex+Corr=B3LYP ExCW=0 ScaHFX=  0.200000
 ScaDFX=  0.800000  0.720000  1.000000  0.810000 ScalE2=  1.000000  1.000000
 IRadAn=      0 IRanWt=     -1 IRanGd=            0 ICorTp=0
 NAtoms=   55 NActive=   55 NUniq=   55 SFac= 1.00D+00 NAtFMM=   60 NAOKFM=F Big=F
 Leave Link  301 at Sat Sep 10 13:45:49 2022, MaxMem=  209715200 cpu:       0.3
 (Enter /opt/gaussian/l302.exe)
 NPDir=0 NMtPBC=     1 NCelOv=     1 NCel=       1 NClECP=     1 NCelD=      1
         NCelK=      1 NCelE2=     1 NClLst=     1 CellRange=     0.0.
 One-electron integrals computed using PRISM.
 NBasis=   585 RedAO= T  NBF=   585
 NBsUse=   585 1.00D-06 NBFU=   585
 Precomputing XC quadrature grid using
 IXCGrd= 2 IRadAn=           0 IRanWt=          -1 IRanGd=           0 AccXCQ= 0.00D+00.
 NRdTot=    3545 NPtTot=      453170 NUsed=      478713 NTot=      478745
 NSgBfM=   594   595   596   596   596 NAtAll=    55    55.
 Leave Link  302 at Sat Sep 10 13:45:51 2022, MaxMem=  209715200 cpu:       9.5
 (Enter /opt/gaussian/l303.exe)
 DipDrv:  MaxL=1.
 Leave Link  303 at Sat Sep 10 13:45:51 2022, MaxMem=  209715200 cpu:       1.3
 (Enter /opt/gaussian/l401.exe)
 Harris functional with IExCor=  402 diagonalized for initial guess.
 ExpMin= 1.22D-01 ExpMax= 1.28D+05 ExpMxC= 1.24D+03 IAcc=2 IRadAn=         4 AccDes= 0.00D+00
 HarFok:  IExCor=  402 AccDes= 0.00D+00 IRadAn=         4 IDoV= 1
 ScaDFX=  1.000000  1.000000  1.000000  1.000000
 FoFCou: FMM=F IPFlag=           0 FMFlag=      100000 FMFlg1=           0
         NFxFlg=           0 DoJE=T BraDBF=F KetDBF=T FulRan=T
         Omega=  0.000000  0.000000  1.000000  0.000000  0.000000 ICntrl=     500 IOpCl=  0
         NMat0=    1 NMatS0=    1 NMatT0=    0 NMatD0=    1 NMtDS0=    0 NMtDT0=    0
         I1Cent=           4 NGrid=           0.
 Petite list used in FoFCou.
 Harris En= -1904.20563745676    
 Initial guess orbital symmetries:
       Occupied  (A) (A) (A) (A) (A) (A) (A) (A) (A) (A) (A) (A)
                 (A) (A) (A) (A) (A) (A) (A) (A) (A) (A) (A) (A)
                 (A) (A) (A) (A) (A) (A) (A) (A) (A) (A) (A) (A)
                 (A) (A) (A) (A) (A) (A) (A) (A) (A) (A) (A) (A)
                 (A) (A) (A) (A) (A) (A) (A) (A) (A) (A) (A) (A)
                 (A) (A) (A) (A) (A) (A) (A) (A) (A) (A) (A) (A)
                 (A) (A) (A) (A) (A) (A) (A) (A) (A) (A) (A) (A)
                 (A) (A) (A) (A) (A) (A) (A) (A) (A) (A) (A) (A)
                 (A) (A) (A) (A) (A) (A) (A) (A) (A) (A) (A) (A)
                 (A) (A) (A) (A) (A) (A) (A) (A) (A) (A) (A) (A)
                 (A) (A) (A)
       Virtual   (A) (A) (A) (A) (A) (A) (A) (A) (A) (A) (A) (A)
                 (A) (A) (A) (A) (A) (A) (A) (A) (A) (A) (A) (A)
                 (A) (A) (A) (A) (A) (A) (A) (A) (A) (A) (A) (A)
                 (A) (A) (A) (A) (A) (A) (A) (A) (A) (A) (A) (A)
                 (A) (A) (A) (A) (A) (A) (A) (A) (A) (A) (A) (A)
                 (A) (A) (A) (A) (A) (A) (A) (A) (A) (A) (A) (A)
                 (A) (A) (A) (A) (A) (A) (A) (A) (A) (A) (A) (A)
                 (A) (A) (A) (A) (A) (A) (A) (A) (A) (A) (A) (A)
                 (A) (A) (A) (A) (A) (A) (A) (A) (A) (A) (A) (A)
                 (A) (A) (A) (A) (A) (A) (A) (A) (A) (A) (A) (A)
                 (A) (A) (A) (A) (A) (A) (A) (A) (A) (A) (A) (A)
                 (A) (A) (A) (A) (A) (A) (A) (A) (A) (A) (A) (A)
                 (A) (A) (A) (A) (A) (A) (A) (A) (A) (A) (A) (A)
                 (A) (A) (A) (A) (A) (A) (A) (A) (A) (A) (A) (A)
                 (A) (A) (A) (A) (A) (A) (A) (A) (A) (A) (A) (A)
                 (A) (A) (A) (A) (A) (A) (A) (A) (A) (A) (A) (A)
                 (A) (A) (A) (A) (A) (A) (A) (A) (A) (A) (A) (A)
                 (A) (A) (A) (A) (A) (A) (A) (A) (A) (A) (A) (A)
                 (A) (A) (A) (A) (A) (A) (A) (A) (A) (A) (A) (A)
                 (A) (A) (A) (A) (A) (A) (A) (A) (A) (A) (A) (A)
                 (A) (A) (A) (A) (A) (A) (A) (A) (A) (A) (A) (A)
                 (A) (A) (A) (A) (A) (A) (A) (A) (A) (A) (A) (A)
                 (A) (A) (A) (A) (A) (A) (A) (A) (A) (A) (A) (A)
                 (A) (A) (A) (A) (A) (A) (A) (A) (A) (A) (A) (A)
                 (A) (A) (A) (A) (A) (A) (A) (A) (A) (A) (A) (A)
                 (A) (A) (A) (A) (A) (A) (A) (A) (A) (A) (A) (A)
                 (A) (A) (A) (A) (A) (A) (A) (A) (A) (A) (A) (A)
                 (A) (A) (A) (A) (A) (A) (A) (A) (A) (A) (A) (A)
                 (A) (A) (A) (A) (A) (A) (A) (A) (A) (A) (A) (A)
                 (A) (A) (A) (A) (A) (A) (A) (A) (A) (A) (A) (A)
                 (A) (A) (A) (A) (A) (A) (A) (A) (A) (A) (A) (A)
                 (A) (A) (A) (A) (A) (A) (A) (A) (A) (A) (A) (A)
                 (A) (A) (A) (A) (A) (A) (A) (A) (A) (A) (A) (A)
                 (A) (A) (A) (A) (A) (A) (A) (A) (A) (A) (A) (A)
                 (A) (A) (A) (A) (A) (A) (A) (A) (A) (A) (A) (A)
                 (A) (A) (A) (A) (A) (A) (A) (A) (A) (A) (A) (A)
                 (A) (A) (A) (A) (A) (A) (A) (A) (A) (A) (A) (A)
                 (A) (A) (A) (A) (A) (A) (A) (A) (A) (A) (A) (A)
                 (A) (A) (A) (A) (A) (A)
 The electronic state of the initial guess is 1-A.
 Leave Link  401 at Sat Sep 10 13:45:55 2022, MaxMem=  209715200 cpu:      29.9
 (Enter /opt/gaussian/l502.exe)
 Closed shell SCF:
 Requested convergence on RMS density matrix=1.00D-08 within 128 cycles.
 Requested convergence on MAX density matrix=1.00D-06.
 Requested convergence on             energy=1.00D-06.
 No special actions if energy rises.
 Using DIIS extrapolation, IDIIS=  1040.
 Integral symmetry usage will be decided dynamically.
       478205 words used for storage of precomputed grid.
 IEnd=     1655464 IEndB=     1655464 NGot=   209715200 MDV=   208460157
 LenX=   208460157 LenY=   208076377
 Fock matrices will be formed incrementally for  20 cycles.
 Integral accuracy reduced to 1.0D-05 until final iterations.

 Cycle   1  Pass 0  IDiag  1:
 FoFCou: FMM=F IPFlag=           0 FMFlag=      100000 FMFlg1=           0
         NFxFlg=           0 DoJE=F BraDBF=F KetDBF=F FulRan=T
         Omega=  0.000000  0.000000  1.000000  0.000000  0.000000 ICntrl=       0 IOpCl=  0
         NMat0=    1 NMatS0=    1 NMatT0=    0 NMatD0=    1 NMtDS0=    0 NMtDT0=    0
         I1Cent=           0 NGrid=           0.
 Symmetry not used in FoFCou.
 E= -1903.90409859891    
 DIIS: error= 2.16D-02 at cycle   1 NSaved=   1.
 NSaved= 1 IEnMin= 1 EnMin= -1903.90409859891     IErMin= 1 ErrMin= 2.16D-02
 ErrMax= 2.16D-02 EMaxC= 1.00D-01 BMatC= 5.62D-01 BMatP= 5.62D-01
 IDIUse=3 WtCom= 7.84D-01 WtEn= 2.16D-01
 Coeff-Com:  0.100D+01
 Coeff-En:   0.100D+01
 Coeff:      0.100D+01
 Gap=     0.358 Goal=   None    Shift=    0.000
 GapD=    0.358 DampG=1.000 DampE=0.500 DampFc=0.5000 IDamp=-1.
 Damping current iteration by 5.00D-01
 RMSDP=3.71D-03 MaxDP=1.94D-01              OVMax= 2.90D-01

 Cycle   2  Pass 0  IDiag  1:
 RMSU=  1.29D-03    CP:  9.79D-01
 E= -1904.05602486926     Delta-E=       -0.151926270350 Rises=F Damp=T
 DIIS: error= 7.28D-03 at cycle   2 NSaved=   2.
 NSaved= 2 IEnMin= 2 EnMin= -1904.05602486926     IErMin= 2 ErrMin= 7.28D-03
 ErrMax= 7.28D-03 EMaxC= 1.00D-01 BMatC= 1.17D-01 BMatP= 5.62D-01
 IDIUse=3 WtCom= 9.27D-01 WtEn= 7.28D-02
 Coeff-Com:  0.241D+00 0.759D+00
 Coeff-En:   0.359D+00 0.641D+00
 Coeff:      0.250D+00 0.750D+00
 Gap=     0.232 Goal=   None    Shift=    0.000
 RMSDP=1.33D-03 MaxDP=6.84D-02 DE=-1.52D-01 OVMax= 3.41D-01

 Cycle   3  Pass 0  IDiag  1:
 RMSU=  9.07D-04    CP:  9.66D-01  8.42D-01
 E= -1904.40338793227     Delta-E=       -0.347363063002 Rises=F Damp=F
 DIIS: error= 9.96D-03 at cycle   3 NSaved=   3.
 NSaved= 3 IEnMin= 3 EnMin= -1904.40338793227     IErMin= 2 ErrMin= 7.28D-03
 ErrMax= 9.96D-03 EMaxC= 1.00D-01 BMatC= 1.20D-01 BMatP= 1.17D-01
 IDIUse=3 WtCom= 9.00D-01 WtEn= 9.96D-02
 Coeff-Com:  0.623D-01 0.492D+00 0.446D+00
 Coeff-En:   0.000D+00 0.000D+00 0.100D+01
 Coeff:      0.561D-01 0.443D+00 0.501D+00
 Gap=     0.194 Goal=   None    Shift=    0.000
 RMSDP=8.08D-04 MaxDP=5.72D-02 DE=-3.47D-01 OVMax= 1.09D-01

 Cycle   4  Pass 0  IDiag  1:
 RMSU=  3.82D-04    CP:  9.69D-01  9.24D-01  5.48D-01
 E= -1904.49728006674     Delta-E=       -0.093892134470 Rises=F Damp=F
 DIIS: error= 3.60D-03 at cycle   4 NSaved=   4.
 NSaved= 4 IEnMin= 4 EnMin= -1904.49728006674     IErMin= 4 ErrMin= 3.60D-03
 ErrMax= 3.60D-03 EMaxC= 1.00D-01 BMatC= 2.11D-02 BMatP= 1.17D-01
 IDIUse=3 WtCom= 9.64D-01 WtEn= 3.60D-02
 Coeff-Com:  0.134D-01 0.132D+00 0.313D+00 0.542D+00
 Coeff-En:   0.000D+00 0.000D+00 0.181D+00 0.819D+00
 Coeff:      0.129D-01 0.127D+00 0.308D+00 0.552D+00
 Gap=     0.188 Goal=   None    Shift=    0.000
 RMSDP=2.98D-04 MaxDP=1.69D-02 DE=-9.39D-02 OVMax= 3.68D-02

 Cycle   5  Pass 0  IDiag  1:
 RMSU=  1.18D-04    CP:  9.68D-01  8.97D-01  6.58D-01  6.36D-01
 E= -1904.51513842271     Delta-E=       -0.017858355975 Rises=F Damp=F
 DIIS: error= 9.28D-04 at cycle   5 NSaved=   5.
 NSaved= 5 IEnMin= 5 EnMin= -1904.51513842271     IErMin= 5 ErrMin= 9.28D-04
 ErrMax= 9.28D-04 EMaxC= 1.00D-01 BMatC= 1.68D-03 BMatP= 2.11D-02
 IDIUse=3 WtCom= 9.91D-01 WtEn= 9.28D-03
 Coeff-Com:  0.183D-02 0.257D-01 0.135D+00 0.334D+00 0.503D+00
 Coeff-En:   0.000D+00 0.000D+00 0.000D+00 0.286D-01 0.971D+00
 Coeff:      0.181D-02 0.254D-01 0.134D+00 0.332D+00 0.507D+00
 Gap=     0.184 Goal=   None    Shift=    0.000
 RMSDP=9.75D-05 MaxDP=4.20D-03 DE=-1.79D-02 OVMax= 1.18D-02

 Cycle   6  Pass 0  IDiag  1:
 RMSU=  3.84D-05    CP:  9.68D-01  9.01D-01  6.60D-01  6.88D-01  5.47D-01
 E= -1904.51675548964     Delta-E=       -0.001617066926 Rises=F Damp=F
 DIIS: error= 3.51D-04 at cycle   6 NSaved=   6.
 NSaved= 6 IEnMin= 6 EnMin= -1904.51675548964     IErMin= 6 ErrMin= 3.51D-04
 ErrMax= 3.51D-04 EMaxC= 1.00D-01 BMatC= 1.69D-04 BMatP= 1.68D-03
 IDIUse=3 WtCom= 9.96D-01 WtEn= 3.51D-03
 Coeff-Com: -0.121D-03-0.181D-02 0.377D-01 0.118D+00 0.294D+00 0.553D+00
 Coeff-En:   0.000D+00 0.000D+00 0.000D+00 0.000D+00 0.674D-01 0.933D+00
 Coeff:     -0.121D-03-0.180D-02 0.375D-01 0.118D+00 0.293D+00 0.554D+00
 Gap=     0.183 Goal=   None    Shift=    0.000
 RMSDP=2.96D-05 MaxDP=1.71D-03 DE=-1.62D-03 OVMax= 4.10D-03

 Cycle   7  Pass 0  IDiag  1:
 RMSU=  1.25D-05    CP:  9.68D-01  9.00D-01  6.62D-01  6.89D-01  6.13D-01
                    CP:  6.14D-01
 E= -1904.51692746662     Delta-E=       -0.000171976986 Rises=F Damp=F
 DIIS: error= 1.05D-04 at cycle   7 NSaved=   7.
 NSaved= 7 IEnMin= 7 EnMin= -1904.51692746662     IErMin= 7 ErrMin= 1.05D-04
 ErrMax= 1.05D-04 EMaxC= 1.00D-01 BMatC= 1.71D-05 BMatP= 1.69D-04
 IDIUse=3 WtCom= 9.99D-01 WtEn= 1.05D-03
 Coeff-Com: -0.756D-04-0.359D-02 0.925D-02 0.360D-01 0.122D+00 0.319D+00
 Coeff-Com:  0.517D+00
 Coeff-En:   0.000D+00 0.000D+00 0.000D+00 0.000D+00 0.000D+00 0.177D-01
 Coeff-En:   0.982D+00
 Coeff:     -0.756D-04-0.359D-02 0.924D-02 0.360D-01 0.122D+00 0.319D+00
 Coeff:      0.518D+00
 Gap=     0.183 Goal=   None    Shift=    0.000
 RMSDP=8.16D-06 MaxDP=5.13D-04 DE=-1.72D-04 OVMax= 1.04D-03

 Initial convergence to 1.0D-05 achieved.  Increase integral accuracy.
 Cycle   8  Pass 1  IDiag  1:
 E= -1904.51687228383     Delta-E=        0.000055182793 Rises=F Damp=F
 DIIS: error= 2.35D-04 at cycle   1 NSaved=   1.
 NSaved= 1 IEnMin= 1 EnMin= -1904.51687228383     IErMin= 1 ErrMin= 2.35D-04
 ErrMax= 2.35D-04 EMaxC= 1.00D-01 BMatC= 1.72D-05 BMatP= 1.72D-05
 IDIUse=3 WtCom= 9.98D-01 WtEn= 2.35D-03
 Coeff-Com:  0.100D+01
 Coeff-En:   0.100D+01
 Coeff:      0.100D+01
 Gap=     0.183 Goal=   None    Shift=    0.000
 RMSDP=8.16D-06 MaxDP=5.13D-04 DE= 5.52D-05 OVMax= 6.21D-04

 Cycle   9  Pass 1  IDiag  1:
 RMSU=  1.10D-04    CP:  1.00D+00
 E= -1904.51688458061     Delta-E=       -0.000012296778 Rises=F Damp=F
 DIIS: error= 5.62D-05 at cycle   2 NSaved=   2.
 NSaved= 2 IEnMin= 2 EnMin= -1904.51688458061     IErMin= 2 ErrMin= 5.62D-05
 ErrMax= 5.62D-05 EMaxC= 1.00D-01 BMatC= 4.88D-06 BMatP= 1.72D-05
 IDIUse=1 WtCom= 1.00D+00 WtEn= 0.00D+00
 Coeff-Com:  0.266D+00 0.734D+00
 Coeff:      0.266D+00 0.734D+00
 Gap=     0.183 Goal=   None    Shift=    0.000
 RMSDP=8.15D-06 MaxDP=5.76D-04 DE=-1.23D-05 OVMax= 8.74D-04

 Cycle  10  Pass 1  IDiag  1:
 RMSU=  5.73D-06    CP:  1.00D+00  1.01D+00
 E= -1904.51688079995     Delta-E=        0.000003780653 Rises=F Damp=F
 DIIS: error= 7.10D-05 at cycle   3 NSaved=   3.
 NSaved= 3 IEnMin= 2 EnMin= -1904.51688458061     IErMin= 2 ErrMin= 5.62D-05
 ErrMax= 7.10D-05 EMaxC= 1.00D-01 BMatC= 8.97D-06 BMatP= 4.88D-06
 IDIUse=1 WtCom= 1.00D+00 WtEn= 0.00D+00
 Coeff-Com:  0.195D-02 0.576D+00 0.423D+00
 Coeff:      0.195D-02 0.576D+00 0.423D+00
 Gap=     0.183 Goal=   None    Shift=    0.000
 RMSDP=4.91D-06 MaxDP=3.43D-04 DE= 3.78D-06 OVMax= 5.74D-04

 Cycle  11  Pass 1  IDiag  1:
 RMSU=  8.05D-07    CP:  1.00D+00  1.01D+00  4.15D-01
 E= -1904.51688887471     Delta-E=       -0.000008074756 Rises=F Damp=F
 DIIS: error= 9.77D-06 at cycle   4 NSaved=   4.
 NSaved= 4 IEnMin= 4 EnMin= -1904.51688887471     IErMin= 4 ErrMin= 9.77D-06
 ErrMax= 9.77D-06 EMaxC= 1.00D-01 BMatC= 1.91D-07 BMatP= 4.88D-06
 IDIUse=1 WtCom= 1.00D+00 WtEn= 0.00D+00
 Coeff-Com: -0.360D-02 0.370D+00 0.281D+00 0.353D+00
 Coeff:     -0.360D-02 0.370D+00 0.281D+00 0.353D+00
 Gap=     0.183 Goal=   None    Shift=    0.000
 RMSDP=7.30D-07 MaxDP=5.67D-05 DE=-8.07D-06 OVMax= 8.90D-05

 Cycle  12  Pass 1  IDiag  1:
 RMSU=  2.21D-07    CP:  1.00D+00  1.01D+00  4.34D-01  4.37D-01
 E= -1904.51688904508     Delta-E=       -0.000000170368 Rises=F Damp=F
 DIIS: error= 1.52D-06 at cycle   5 NSaved=   5.
 NSaved= 5 IEnMin= 5 EnMin= -1904.51688904508     IErMin= 5 ErrMin= 1.52D-06
 ErrMax= 1.52D-06 EMaxC= 1.00D-01 BMatC= 2.82D-09 BMatP= 1.91D-07
 IDIUse=1 WtCom= 1.00D+00 WtEn= 0.00D+00
 Coeff-Com: -0.206D-02 0.186D+00 0.142D+00 0.200D+00 0.475D+00
 Coeff:     -0.206D-02 0.186D+00 0.142D+00 0.200D+00 0.475D+00
 Gap=     0.183 Goal=   None    Shift=    0.000
 RMSDP=1.18D-07 MaxDP=7.67D-06 DE=-1.70D-07 OVMax= 1.66D-05

 Cycle  13  Pass 1  IDiag  1:
 RMSU=  7.06D-08    CP:  1.00D+00  1.01D+00  4.32D-01  4.42D-01  8.06D-01
 E= -1904.51688904758     Delta-E=       -0.000000002500 Rises=F Damp=F
 DIIS: error= 7.44D-07 at cycle   6 NSaved=   6.
 NSaved= 6 IEnMin= 6 EnMin= -1904.51688904758     IErMin= 6 ErrMin= 7.44D-07
 ErrMax= 7.44D-07 EMaxC= 1.00D-01 BMatC= 3.04D-10 BMatP= 2.82D-09
 IDIUse=1 WtCom= 1.00D+00 WtEn= 0.00D+00
 Coeff-Com: -0.852D-03 0.721D-01 0.548D-01 0.831D-01 0.284D+00 0.506D+00
 Coeff:     -0.852D-03 0.721D-01 0.548D-01 0.831D-01 0.284D+00 0.506D+00
 Gap=     0.183 Goal=   None    Shift=    0.000
 RMSDP=3.66D-08 MaxDP=2.60D-06 DE=-2.50D-09 OVMax= 6.41D-06

 Cycle  14  Pass 1  IDiag  1:
 RMSU=  1.95D-08    CP:  1.00D+00  1.01D+00  4.32D-01  4.47D-01  8.31D-01
                    CP:  7.82D-01
 E= -1904.51688904781     Delta-E=       -0.000000000236 Rises=F Damp=F
 DIIS: error= 1.66D-07 at cycle   7 NSaved=   7.
 NSaved= 7 IEnMin= 7 EnMin= -1904.51688904781     IErMin= 7 ErrMin= 1.66D-07
 ErrMax= 1.66D-07 EMaxC= 1.00D-01 BMatC= 2.36D-11 BMatP= 3.04D-10
 IDIUse=1 WtCom= 1.00D+00 WtEn= 0.00D+00
 Coeff-Com: -0.149D-03 0.110D-01 0.824D-02 0.155D-01 0.780D-01 0.257D+00
 Coeff-Com:  0.631D+00
 Coeff:     -0.149D-03 0.110D-01 0.824D-02 0.155D-01 0.780D-01 0.257D+00
 Coeff:      0.631D+00
 Gap=     0.183 Goal=   None    Shift=    0.000
 RMSDP=1.20D-08 MaxDP=7.70D-07 DE=-2.36D-10 OVMax= 1.89D-06

 Cycle  15  Pass 1  IDiag  1:
 RMSU=  6.40D-09    CP:  1.00D+00  1.01D+00  4.32D-01  4.47D-01  8.41D-01
                    CP:  8.11D-01  7.61D-01
 E= -1904.51688904787     Delta-E=       -0.000000000055 Rises=F Damp=F
 DIIS: error= 5.86D-08 at cycle   8 NSaved=   8.
 NSaved= 8 IEnMin= 8 EnMin= -1904.51688904787     IErMin= 8 ErrMin= 5.86D-08
 ErrMax= 5.86D-08 EMaxC= 1.00D-01 BMatC= 5.68D-12 BMatP= 2.36D-11
 IDIUse=1 WtCom= 1.00D+00 WtEn= 0.00D+00
 Coeff-Com:  0.169D-04-0.243D-02-0.192D-02-0.925D-03 0.107D-01 0.917D-01
 Coeff-Com:  0.391D+00 0.511D+00
 Coeff:      0.169D-04-0.243D-02-0.192D-02-0.925D-03 0.107D-01 0.917D-01
 Coeff:      0.391D+00 0.511D+00
 Gap=     0.183 Goal=   None    Shift=    0.000
 RMSDP=5.30D-09 MaxDP=3.05D-07 DE=-5.55D-11 OVMax= 8.38D-07

 SCF Done:  E(RB3LYP) =  -1904.51688905     A.U. after   15 cycles
             Convg  =    0.5300D-08             -V/T =  2.0055
 KE= 1.894075774569D+03 PE=-1.131491559133D+04 EE= 4.085452317351D+03
 Leave Link  502 at Sat Sep 10 14:01:11 2022, MaxMem=  209715200 cpu:    6707.7
 (Enter /opt/gaussian/l601.exe)
 Copying SCF densities to generalized density rwf, IOpCl= 0 IROHF=0.

 **********************************************************************

            Population analysis using the SCF density.

 **********************************************************************

 Orbital symmetries:
       Occupied  (A) (A) (A) (A) (A) (A) (A) (A) (A) (A) (A) (A)
                 (A) (A) (A) (A) (A) (A) (A) (A) (A) (A) (A) (A)
                 (A) (A) (A) (A) (A) (A) (A) (A) (A) (A) (A) (A)
                 (A) (A) (A) (A) (A) (A) (A) (A) (A) (A) (A) (A)
                 (A) (A) (A) (A) (A) (A) (A) (A) (A) (A) (A) (A)
                 (A) (A) (A) (A) (A) (A) (A) (A) (A) (A) (A) (A)
                 (A) (A) (A) (A) (A) (A) (A) (A) (A) (A) (A) (A)
                 (A) (A) (A) (A) (A) (A) (A) (A) (A) (A) (A) (A)
                 (A) (A) (A) (A) (A) (A) (A) (A) (A) (A) (A) (A)
                 (A) (A) (A) (A) (A) (A) (A) (A) (A) (A) (A) (A)
                 (A) (A) (A)
       Virtual   (A) (A) (A) (A) (A) (A) (A) (A) (A) (A) (A) (A)
                 (A) (A) (A) (A) (A) (A) (A) (A) (A) (A) (A) (A)
                 (A) (A) (A) (A) (A) (A) (A) (A) (A) (A) (A) (A)
                 (A) (A) (A) (A) (A) (A) (A) (A) (A) (A) (A) (A)
                 (A) (A) (A) (A) (A) (A) (A) (A) (A) (A) (A) (A)
                 (A) (A) (A) (A) (A) (A) (A) (A) (A) (A) (A) (A)
                 (A) (A) (A) (A) (A) (A) (A) (A) (A) (A) (A) (A)
                 (A) (A) (A) (A) (A) (A) (A) (A) (A) (A) (A) (A)
                 (A) (A) (A) (A) (A) (A) (A) (A) (A) (A) (A) (A)
                 (A) (A) (A) (A) (A) (A) (A) (A) (A) (A) (A) (A)
                 (A) (A) (A) (A) (A) (A) (A) (A) (A) (A) (A) (A)
                 (A) (A) (A) (A) (A) (A) (A) (A) (A) (A) (A) (A)
                 (A) (A) (A) (A) (A) (A) (A) (A) (A) (A) (A) (A)
                 (A) (A) (A) (A) (A) (A) (A) (A) (A) (A) (A) (A)
                 (A) (A) (A) (A) (A) (A) (A) (A) (A) (A) (A) (A)
                 (A) (A) (A) (A) (A) (A) (A) (A) (A) (A) (A) (A)
                 (A) (A) (A) (A) (A) (A) (A) (A) (A) (A) (A) (A)
                 (A) (A) (A) (A) (A) (A) (A) (A) (A) (A) (A) (A)
                 (A) (A) (A) (A) (A) (A) (A) (A) (A) (A) (A) (A)
                 (A) (A) (A) (A) (A) (A) (A) (A) (A) (A) (A) (A)
                 (A) (A) (A) (A) (A) (A) (A) (A) (A) (A) (A) (A)
                 (A) (A) (A) (A) (A) (A) (A) (A) (A) (A) (A) (A)
                 (A) (A) (A) (A) (A) (A) (A) (A) (A) (A) (A) (A)
                 (A) (A) (A) (A) (A) (A) (A) (A) (A) (A) (A) (A)
                 (A) (A) (A) (A) (A) (A) (A) (A) (A) (A) (A) (A)
                 (A) (A) (A) (A) (A) (A) (A) (A) (A) (A) (A) (A)
                 (A) (A) (A) (A) (A) (A) (A) (A) (A) (A) (A) (A)
                 (A) (A) (A) (A) (A) (A) (A) (A) (A) (A) (A) (A)
                 (A) (A) (A) (A) (A) (A) (A) (A) (A) (A) (A) (A)
                 (A) (A) (A) (A) (A) (A) (A) (A) (A) (A) (A) (A)
                 (A) (A) (A) (A) (A) (A) (A) (A) (A) (A) (A) (A)
                 (A) (A) (A) (A) (A) (A) (A) (A) (A) (A) (A) (A)
                 (A) (A) (A) (A) (A) (A) (A) (A) (A) (A) (A) (A)
                 (A) (A) (A) (A) (A) (A) (A) (A) (A) (A) (A) (A)
                 (A) (A) (A) (A) (A) (A) (A) (A) (A) (A) (A) (A)
                 (A) (A) (A) (A) (A) (A) (A) (A) (A) (A) (A) (A)
                 (A) (A) (A) (A) (A) (A) (A) (A) (A) (A) (A) (A)
                 (A) (A) (A) (A) (A) (A) (A) (A) (A) (A) (A) (A)
                 (A) (A) (A) (A) (A) (A)
 The electronic state is 1-A.
 Alpha  occ. eigenvalues -- -101.55168 -19.18826 -19.11779 -14.41403 -14.40632
 Alpha  occ. eigenvalues --  -14.38417 -14.37683 -14.35240 -14.34233 -10.29996
 Alpha  occ. eigenvalues --  -10.26308 -10.26164 -10.25612 -10.25048 -10.24879
 Alpha  occ. eigenvalues --  -10.23347 -10.23208 -10.22521 -10.22326 -10.21583
 Alpha  occ. eigenvalues --  -10.21480 -10.21462 -10.21425 -10.21160 -10.21131
 Alpha  occ. eigenvalues --  -10.20498 -10.20233 -10.19842 -10.19831 -10.19531
 Alpha  occ. eigenvalues --  -10.19389 -10.19308 -10.19253 -10.18869  -9.46983
 Alpha  occ. eigenvalues --   -7.23240  -7.22273  -7.22234  -1.08808  -1.08454
 Alpha  occ. eigenvalues --   -1.05528  -1.05001  -0.95538  -0.91795  -0.90241
 Alpha  occ. eigenvalues --   -0.86773  -0.85755  -0.85071  -0.82716  -0.80871
 Alpha  occ. eigenvalues --   -0.78812  -0.77400  -0.76588  -0.76375  -0.75347
 Alpha  occ. eigenvalues --   -0.74949  -0.73556  -0.71590  -0.70337  -0.65727
 Alpha  occ. eigenvalues --   -0.64223  -0.63000  -0.62502  -0.61715  -0.60967
 Alpha  occ. eigenvalues --   -0.60296  -0.59858  -0.58197  -0.56629  -0.55514
 Alpha  occ. eigenvalues --   -0.53589  -0.52773  -0.52482  -0.52049  -0.51475
 Alpha  occ. eigenvalues --   -0.50484  -0.50095  -0.48673  -0.48196  -0.47139
 Alpha  occ. eigenvalues --   -0.46894  -0.46094  -0.45993  -0.45722  -0.44936
 Alpha  occ. eigenvalues --   -0.44848  -0.44414  -0.44165  -0.43961  -0.43782
 Alpha  occ. eigenvalues --   -0.43385  -0.42763  -0.42417  -0.41250  -0.40881
 Alpha  occ. eigenvalues --   -0.40102  -0.39641  -0.39067  -0.38393  -0.37359
 Alpha  occ. eigenvalues --   -0.37213  -0.36902  -0.36580  -0.36046  -0.34984
 Alpha  occ. eigenvalues --   -0.34781  -0.34185  -0.33955  -0.32477  -0.32059
 Alpha  occ. eigenvalues --   -0.30643  -0.29920  -0.29364  -0.27802  -0.26812
 Alpha  occ. eigenvalues --   -0.26536  -0.26136  -0.26063  -0.25851  -0.24476
 Alpha  occ. eigenvalues --   -0.24325  -0.22732  -0.21979
 Alpha virt. eigenvalues --   -0.03651  -0.03525  -0.03351  -0.03042  -0.01059
 Alpha virt. eigenvalues --    0.00264   0.01191   0.01652   0.02186   0.04168
 Alpha virt. eigenvalues --    0.04481   0.04888   0.05369   0.06027   0.06988
 Alpha virt. eigenvalues --    0.07218   0.07598   0.08057   0.08658   0.09491
 Alpha virt. eigenvalues --    0.09617   0.10752   0.11034   0.11332   0.11715
 Alpha virt. eigenvalues --    0.12161   0.12259   0.13045   0.13414   0.13673
 Alpha virt. eigenvalues --    0.14569   0.14828   0.15582   0.16012   0.16278
 Alpha virt. eigenvalues --    0.16839   0.18215   0.18629   0.19967   0.20370
 Alpha virt. eigenvalues --    0.20829   0.21793   0.21882   0.23110   0.23454
 Alpha virt. eigenvalues --    0.25095   0.25296   0.25765   0.26143   0.26529
 Alpha virt. eigenvalues --    0.27526   0.27943   0.29350   0.29698   0.30338
 Alpha virt. eigenvalues --    0.30572   0.31001   0.32179   0.33125   0.33581
 Alpha virt. eigenvalues --    0.35066   0.36104   0.36605   0.37149   0.37705
 Alpha virt. eigenvalues --    0.38240   0.39683   0.40893   0.41201   0.41853
 Alpha virt. eigenvalues --    0.42522   0.43018   0.43419   0.44608   0.44737
 Alpha virt. eigenvalues --    0.44925   0.45179   0.45483   0.45751   0.45884
 Alpha virt. eigenvalues --    0.46394   0.46581   0.46832   0.47368   0.47666
 Alpha virt. eigenvalues --    0.48586   0.48846   0.48966   0.49324   0.49449
 Alpha virt. eigenvalues --    0.49707   0.50000   0.50232   0.50445   0.50588
 Alpha virt. eigenvalues --    0.51102   0.51353   0.51525   0.52083   0.52424
 Alpha virt. eigenvalues --    0.52977   0.53131   0.53768   0.54199   0.54743
 Alpha virt. eigenvalues --    0.54993   0.55258   0.55506   0.55696   0.56001
 Alpha virt. eigenvalues --    0.56323   0.56554   0.57230   0.57780   0.58400
 Alpha virt. eigenvalues --    0.58951   0.59194   0.59611   0.60047   0.60312
 Alpha virt. eigenvalues --    0.60623   0.60997   0.61610   0.62210   0.62605
 Alpha virt. eigenvalues --    0.62942   0.63444   0.64112   0.64476   0.64740
 Alpha virt. eigenvalues --    0.65130   0.65161   0.65438   0.65654   0.65823
 Alpha virt. eigenvalues --    0.66121   0.67053   0.67269   0.67768   0.68049
 Alpha virt. eigenvalues --    0.69172   0.69371   0.70351   0.70904   0.71421
 Alpha virt. eigenvalues --    0.71576   0.71934   0.72287   0.72349   0.72753
 Alpha virt. eigenvalues --    0.73287   0.73643   0.74750   0.74830   0.75244
 Alpha virt. eigenvalues --    0.75633   0.77511   0.78427   0.79523   0.79905
 Alpha virt. eigenvalues --    0.80474   0.80829   0.81568   0.82588   0.82771
 Alpha virt. eigenvalues --    0.83052   0.83699   0.84589   0.85307   0.85612
 Alpha virt. eigenvalues --    0.86478   0.87267   0.87863   0.88280   0.88576
 Alpha virt. eigenvalues --    0.88976   0.89073   0.89536   0.89895   0.90416
 Alpha virt. eigenvalues --    0.90986   0.91804   0.92212   0.92888   0.93287
 Alpha virt. eigenvalues --    0.93415   0.93674   0.94342   0.94661   0.95447
 Alpha virt. eigenvalues --    0.95948   0.96464   0.97659   0.98014   0.99251
 Alpha virt. eigenvalues --    0.99919   1.00130   1.00712   1.01048   1.01395
 Alpha virt. eigenvalues --    1.01481   1.01780   1.02165   1.03295   1.03431
 Alpha virt. eigenvalues --    1.03772   1.04480   1.05360   1.05773   1.06082
 Alpha virt. eigenvalues --    1.06624   1.07463   1.07735   1.08879   1.09369
 Alpha virt. eigenvalues --    1.09951   1.11264   1.11548   1.12019   1.13153
 Alpha virt. eigenvalues --    1.14130   1.14234   1.15085   1.16315   1.17094
 Alpha virt. eigenvalues --    1.18297   1.19553   1.20016   1.20639   1.21718
 Alpha virt. eigenvalues --    1.22286   1.22683   1.23410   1.24930   1.25350
 Alpha virt. eigenvalues --    1.25892   1.26106   1.27349   1.27692   1.28517
 Alpha virt. eigenvalues --    1.30071   1.30912   1.32013   1.32863   1.33669
 Alpha virt. eigenvalues --    1.33939   1.36085   1.36829   1.37510   1.38509
 Alpha virt. eigenvalues --    1.38972   1.41076   1.41511   1.42411   1.43190
 Alpha virt. eigenvalues --    1.43606   1.44666   1.45150   1.45757   1.46614
 Alpha virt. eigenvalues --    1.47076   1.47439   1.48548   1.49575   1.50039
 Alpha virt. eigenvalues --    1.50142   1.50546   1.50995   1.51266   1.51731
 Alpha virt. eigenvalues --    1.52512   1.53355   1.54594   1.54663   1.55656
 Alpha virt. eigenvalues --    1.56071   1.56732   1.57145   1.57556   1.57599
 Alpha virt. eigenvalues --    1.58392   1.58936   1.59281   1.59689   1.60058
 Alpha virt. eigenvalues --    1.60904   1.61272   1.62051   1.62251   1.62376
 Alpha virt. eigenvalues --    1.62811   1.63416   1.63864   1.64635   1.65108
 Alpha virt. eigenvalues --    1.65269   1.65415   1.65751   1.65889   1.66316
 Alpha virt. eigenvalues --    1.66834   1.68174   1.68642   1.69078   1.69576
 Alpha virt. eigenvalues --    1.70604   1.70741   1.71197   1.72079   1.73018
 Alpha virt. eigenvalues --    1.73110   1.73432   1.73839   1.74201   1.74889
 Alpha virt. eigenvalues --    1.75265   1.75645   1.76058   1.77164   1.77447
 Alpha virt. eigenvalues --    1.77911   1.78227   1.78672   1.79016   1.79389
 Alpha virt. eigenvalues --    1.80053   1.80979   1.81662   1.81841   1.82284
 Alpha virt. eigenvalues --    1.82668   1.82860   1.83083   1.84318   1.84691
 Alpha virt. eigenvalues --    1.85468   1.85829   1.86637   1.86656   1.87522
 Alpha virt. eigenvalues --    1.88288   1.88560   1.88981   1.89537   1.89799
 Alpha virt. eigenvalues --    1.90601   1.90782   1.91936   1.93570   1.93659
 Alpha virt. eigenvalues --    1.94865   1.95999   1.96352   1.96829   1.98027
 Alpha virt. eigenvalues --    1.98426   1.98791   1.99659   2.00223   2.01156
 Alpha virt. eigenvalues --    2.02335   2.02594   2.03683   2.04639   2.05005
 Alpha virt. eigenvalues --    2.05745   2.06041   2.07274   2.08233   2.08693
 Alpha virt. eigenvalues --    2.09370   2.10769   2.11592   2.12821   2.13266
 Alpha virt. eigenvalues --    2.14331   2.15999   2.16562   2.17584   2.18460
 Alpha virt. eigenvalues --    2.19136   2.21194   2.21679   2.22383   2.23806
 Alpha virt. eigenvalues --    2.25734   2.25968   2.26892   2.28569   2.29368
 Alpha virt. eigenvalues --    2.30793   2.31552   2.32232   2.33468   2.33746
 Alpha virt. eigenvalues --    2.35346   2.37215   2.37510   2.37927   2.38755
 Alpha virt. eigenvalues --    2.39132   2.40108   2.40374   2.41326   2.41849
 Alpha virt. eigenvalues --    2.43556   2.44236   2.45089   2.45883   2.46529
 Alpha virt. eigenvalues --    2.47573   2.48823   2.49608   2.50353   2.50716
 Alpha virt. eigenvalues --    2.52150   2.52890   2.55397   2.56088   2.57274
 Alpha virt. eigenvalues --    2.58693   2.59480   2.62509   2.62788   2.63394
 Alpha virt. eigenvalues --    2.64579   2.67270   2.68839   2.69554   2.70627
 Alpha virt. eigenvalues --    2.71166   2.72657   2.73854   2.74400   2.74622
 Alpha virt. eigenvalues --    2.77685   2.78858   2.80044   2.80444   2.81269
 Alpha virt. eigenvalues --    2.83339   2.85266   2.86890   2.90115   2.94997
 Alpha virt. eigenvalues --    2.97237   2.97420   2.99239   3.01147   3.04575
 Alpha virt. eigenvalues --    3.07107   3.07353   3.09951   3.14443   3.23944
 Alpha virt. eigenvalues --    3.32209   3.39091   3.40395   3.42336   3.49120
 Alpha virt. eigenvalues --    3.54253   3.59231
          Condensed to atoms (all electrons):
 Mulliken atomic charges:
              1
     1  C    0.123313
     2  O   -0.290233
     3  C    0.164577
     4  C   -0.038691
     5  C    0.066166
     6  C   -0.001618
     7  C    0.099910
     8  C    0.051248
     9  N   -0.288871
    10  C    0.174127
    11  C   -0.097518
    12  C    0.027976
    13  C    0.048705
    14  C    0.116728
    15  C   -0.140950
    16  C    0.143599
    17  Cl  -0.086430
    18  C    0.146380
    19  O   -0.247815
    20  C    0.134543
    21  N   -0.229052
    22  N   -0.065838
    23  N   -0.184069
    24  C    0.010658
    25  C    0.042252
    26  C    0.037632
    27  C    0.037859
    28  C    0.043114
    29  C    0.204605
    30  C   -0.065317
    31  C    0.089921
    32  N   -0.170517
    33  N    0.003654
    34  C    0.094105
    35  H    0.040936
    36  H    0.037031
    37  H    0.033132
    38  H   -0.041544
    39  H   -0.047781
    40  H   -0.030792
    41  H    0.025645
    42  H    0.053479
    43  H   -0.035364
    44  H   -0.014098
    45  H   -0.017535
    46  H   -0.038611
    47  H    0.042837
    48  H    0.062959
    49  H   -0.025294
    50  H   -0.029381
    51  H   -0.026665
    52  H   -0.028395
    53  H   -0.016855
    54  H    0.000005
    55  H    0.102138
 Sum of Mulliken atomic charges =   0.00000
 Mulliken charges with hydrogens summed into heavy atoms:
              1
     1  C    0.234411
     2  O   -0.290233
     3  C    0.164577
     4  C   -0.080235
     5  C    0.066166
     6  C   -0.049399
     7  C    0.069118
     8  C    0.051248
     9  N   -0.288871
    10  C    0.253251
    11  C   -0.097518
    12  C   -0.007388
    13  C    0.034607
    14  C    0.099193
    15  C   -0.140950
    16  C    0.104988
    17  Cl  -0.086430
    18  C    0.146380
    19  O   -0.247815
    20  C    0.240340
    21  N   -0.229052
    22  N   -0.065838
    23  N   -0.184069
    24  C    0.010658
    25  C    0.016959
    26  C    0.008251
    27  C    0.011194
    28  C    0.014720
    29  C    0.204605
    30  C   -0.065317
    31  C    0.073065
    32  N   -0.170517
    33  N    0.105792
    34  C    0.094110
 Sum of Mulliken charges with hydrogens summed into heavy atoms =   0.00000
 Electronic spatial extent (au):  <R**2>=          20467.8585
 Charge=              0.0000 electrons
 Dipole moment (field-independent basis, Debye):
    X=              3.9814    Y=              4.0985    Z=             -0.2943  Tot=              5.7216
 Quadrupole moment (field-independent basis, Debye-Ang):
   XX=           -197.1083   YY=           -208.7542   ZZ=           -183.6113
   XY=             -5.0879   XZ=             -0.8242   YZ=              8.2211
 Traceless Quadrupole moment (field-independent basis, Debye-Ang):
   XX=             -0.6170   YY=            -12.2630   ZZ=             12.8800
   XY=             -5.0879   XZ=             -0.8242   YZ=              8.2211
 Octapole moment (field-independent basis, Debye-Ang**2):
  XXX=            169.3194  YYY=             21.8391  ZZZ=              7.2208  XYY=            -68.6779
  XXY=             90.6957  XXZ=           -172.5190  XZZ=             97.9965  YZZ=            -10.3834
  YYZ=             21.9902  XYZ=            -69.6562
 Hexadecapole moment (field-independent basis, Debye-Ang**3):
 XXXX=         -16175.6986 YYYY=          -8162.9879 ZZZZ=          -2735.4004 XXXY=            477.7338
 XXXZ=           -894.7456 YYYX=            -72.6286 YYYZ=             74.9307 ZZZX=             38.5540
 ZZZY=            -23.5183 XXYY=          -4171.0665 XXZZ=          -2841.8591 YYZZ=          -1853.5032
 XXYZ=            205.0237 YYXZ=            105.5777 ZZXY=           -110.2866
 N-N= 3.430870610360D+03 E-N=-1.131491559902D+04  KE= 1.894075774569D+03
 No NMR shielding tensors so no spin-rotation constants.
 Leave Link  601 at Sat Sep 10 14:01:11 2022, MaxMem=  209715200 cpu:       4.6
 (Enter /opt/gaussian/l602.exe)
 Breneman (CHELPG) radii used.
 Read replacement radii for each type of atom:
 Rad(35) =   1.900000000000D+00
 Atom Element Radius
    1     6    1.50
    2     8    1.70
    3     6    1.50
    4     6    1.50
    5     6    1.50
    6     6    1.50
    7     6    1.50
    8     6    1.50
    9     7    1.70
   10     6    1.50
   11     6    1.50
   12     6    1.50
   13     6    1.50
   14     6    1.50
   15     6    1.50
   16     6    1.50
   17    17    2.00
   18     6    1.50
   19     8    1.70
   20     6    1.50
   21     7    1.70
   22     7    1.70
   23     7    1.70
   24     6    1.50
   25     6    1.50
   26     6    1.50
   27     6    1.50
   28     6    1.50
   29     6    1.50
   30     6    1.50
   31     6    1.50
   32     7    1.70
   33     7    1.70
   34     6    1.50
   35     1    1.45
   36     1    1.45
   37     1    1.45
   38     1    1.45
   39     1    1.45
   40     1    1.45
   41     1    1.45
   42     1    1.45
   43     1    1.45
   44     1    1.45
   45     1    1.45
   46     1    1.45
   47     1    1.45
   48     1    1.45
   49     1    1.45
   50     1    1.45
   51     1    1.45
   52     1    1.45
   53     1    1.45
   54     1    1.45
   55     1    1.45
 Generate Potential Derived Charges using the Breneman model, NDens= 1.
 Grid spacing= 0.300 Box extension= 2.800
 NStep X,Y,Z=   68     55     46   Total possible points=      172040
 Number of Points to Fit=   30471

 **********************************************************************

            Electrostatic Properties Using The SCF Density

 **********************************************************************

       Atomic Center    1 is at   2.419909 -1.279951  3.588470
       Atomic Center    2 is at   1.644410 -0.695801  2.550140
       Atomic Center    3 is at   2.207400 -0.555761  1.315060
       Atomic Center    4 is at   3.532469 -0.880851  1.007860
       Atomic Center    5 is at   4.036250 -0.716462 -0.297060
       Atomic Center    6 is at   3.178120 -0.213291 -1.288700
       Atomic Center    7 is at   1.863560  0.131479 -0.976430
       Atomic Center    8 is at   1.364920 -0.020101  0.316570
       Atomic Center    9 is at   0.008020  0.327170  0.639800
       Atomic Center   10 is at  -0.219830  1.400510  1.620240
       Atomic Center   11 is at  -0.900319  2.647180  1.073240
       Atomic Center   12 is at  -1.830679  3.339001  1.860580
       Atomic Center   13 is at  -2.422088  4.516241  1.393470
       Atomic Center   14 is at  -2.100698  5.020201  0.131640
       Atomic Center   15 is at  -1.175078  4.323431 -0.648930
       Atomic Center   16 is at  -0.573919  3.149570 -0.194710
       Atomic Center   17 is at  -0.755618  4.939360 -2.243780
       Atomic Center   18 is at  -0.997770 -0.490390  0.152920
       Atomic Center   19 is at  -0.779071 -1.438120 -0.581800
       Atomic Center   20 is at  -2.440690 -0.109829  0.525190
       Atomic Center   21 is at  -3.334471 -1.245949  0.509200
       Atomic Center   22 is at  -3.913151 -1.629308  1.689800
       Atomic Center   23 is at  -4.735961 -2.597038  1.473340
       Atomic Center   24 is at  -4.730591 -2.878658  0.121310
       Atomic Center   25 is at  -5.461612 -3.826558 -0.617720
       Atomic Center   26 is at  -5.255232 -3.864388 -1.988780
       Atomic Center   27 is at  -4.334501 -2.988058 -2.619700
       Atomic Center   28 is at  -3.597041 -2.053188 -1.905570
       Atomic Center   29 is at  -3.819571 -2.010118 -0.518530
       Atomic Center   30 is at   5.430849 -1.070002 -0.599860
       Atomic Center   31 is at   6.288379 -1.977233  0.088670
       Atomic Center   32 is at   7.495929 -2.057553 -0.465270
       Atomic Center   33 is at   7.434859 -1.206413 -1.507060
       Atomic Center   34 is at   6.230540 -0.593583 -1.635740
       Atomic Center   35 is at   1.759369 -1.331111  4.463430
       Atomic Center   36 is at   2.750169 -2.298531  3.321440
       Atomic Center   37 is at   3.302960 -0.663831  3.833940
       Atomic Center   38 is at   4.193139 -1.257882  1.786560
       Atomic Center   39 is at   3.529780 -0.110501 -2.316300
       Atomic Center   40 is at   1.196450  0.505170 -1.754640
       Atomic Center   41 is at  -0.779700  1.019800  2.488440
       Atomic Center   42 is at   0.770761  1.676130  2.006490
       Atomic Center   43 is at  -2.098179  2.952541  2.847400
       Atomic Center   44 is at  -3.148758  5.044671  2.014250
       Atomic Center   45 is at  -2.560078  5.933521 -0.246820
       Atomic Center   46 is at   0.145801  2.630810 -0.827420
       Atomic Center   47 is at  -2.530480  0.315351  1.530570
       Atomic Center   48 is at  -2.787160  0.654451 -0.191150
       Atomic Center   49 is at  -6.161062 -4.497357 -0.116540
       Atomic Center   50 is at  -5.802742 -4.585117 -2.599710
       Atomic Center   51 is at  -4.192591 -3.061368 -3.700360
       Atomic Center   52 is at  -2.858481 -1.413489 -2.386380
       Atomic Center   53 is at   6.059429 -2.593393  0.956010
       Atomic Center   54 is at   6.039440  0.134007 -2.419620
       Atomic Center   55 is at   8.251499 -1.083153 -2.091670
   30471 points will be used for fitting atomic charges
 Fitting point charges to electrostatic potential
 Charges from ESP fit, RMS=   0.00424 RRMS=   0.24435:
 Charge=   0.00000 Dipole=     3.9349     4.0642    -0.1255 Tot=     5.6584
              1
     1  C    0.164247
     2  O   -0.313604
     3  C    0.334407
     4  C   -0.323766
     5  C    0.118253
     6  C   -0.182711
     7  C   -0.105112
     8  C    0.062076
     9  N   -0.272844
    10  C    0.083363
    11  C    0.126979
    12  C   -0.189564
    13  C   -0.060376
    14  C   -0.088643
    15  C    0.071854
    16  C   -0.089636
    17  Cl  -0.123772
    18  C    0.521497
    19  O   -0.524945
    20  C    0.049477
    21  N    0.241126
    22  N   -0.207458
    23  N   -0.356080
    24  C    0.411623
    25  C   -0.265884
    26  C   -0.062815
    27  C   -0.089938
    28  C   -0.171266
    29  C   -0.029582
    30  C   -0.032977
    31  C    0.135526
    32  N   -0.443968
    33  N    0.065865
    34  C   -0.170555
    35  H    0.033774
    36  H    0.019384
    37  H    0.013588
    38  H    0.113569
    39  H    0.106581
    40  H    0.139010
    41  H    0.047928
    42  H    0.002586
    43  H    0.113780
    44  H    0.094321
    45  H    0.097741
    46  H    0.049698
    47  H   -0.019819
    48  H   -0.005882
    49  H    0.129266
    50  H    0.088989
    51  H    0.086122
    52  H    0.138646
    53  H    0.084101
    54  H    0.130057
    55  H    0.255763
 Charges from ESP fit with hydrogens summed into heavy atoms:
              1
     1  C    0.230992
     2  O   -0.313604
     3  C    0.334407
     4  C   -0.210197
     5  C    0.118253
     6  C   -0.076130
     7  C    0.033899
     8  C    0.062076
     9  N   -0.272844
    10  C    0.133877
    11  C    0.126979
    12  C   -0.075784
    13  C    0.033944
    14  C    0.009098
    15  C    0.071854
    16  C   -0.039938
    17  Cl  -0.123772
    18  C    0.521497
    19  O   -0.524945
    20  C    0.023777
    21  N    0.241126
    22  N   -0.207458
    23  N   -0.356080
    24  C    0.411623
    25  C   -0.136618
    26  C    0.026174
    27  C   -0.003817
    28  C   -0.032620
    29  C   -0.029582
    30  C   -0.032977
    31  C    0.219627
    32  N   -0.443968
    33  N    0.321628
    34  C   -0.040498
    35  H    0.000000
    36  H    0.000000
    37  H    0.000000
    38  H    0.000000
    39  H    0.000000
    40  H    0.000000
    41  H    0.000000
    42  H    0.000000
    43  H    0.000000
    44  H    0.000000
    45  H    0.000000
    46  H    0.000000
    47  H    0.000000
    48  H    0.000000
    49  H    0.000000
    50  H    0.000000
    51  H    0.000000
    52  H    0.000000
    53  H    0.000000
    54  H    0.000000
    55  H    0.000000
 -----------------------------------------------------------------

              Electrostatic Properties (Atomic Units)

 -----------------------------------------------------------------
    Center     Electric         -------- Electric Field --------
               Potential          X             Y             Z
 -----------------------------------------------------------------
    1 Atom    -14.682455
    2 Atom    -22.295696
    3 Atom    -14.683155
    4 Atom    -14.748051
    5 Atom    -14.731081
    6 Atom    -14.752618
    7 Atom    -14.745151
    8 Atom    -14.711737
    9 Atom    -18.324768
   10 Atom    -14.690321
   11 Atom    -14.723788
   12 Atom    -14.735231
   13 Atom    -14.730988
   14 Atom    -14.732132
   15 Atom    -14.683810
   16 Atom    -14.733021
   17 Atom    -64.403171
   18 Atom    -14.642937
   19 Atom    -22.372050
   20 Atom    -14.689353
   21 Atom    -18.298317
   22 Atom    -18.336238
   23 Atom    -18.374337
   24 Atom    -14.742990
   25 Atom    -14.753978
   26 Atom    -14.757163
   27 Atom    -14.753010
   28 Atom    -14.750382
   29 Atom    -14.720665
   30 Atom    -14.747624
   31 Atom    -14.734253
   32 Atom    -18.363656
   33 Atom    -18.288494
   34 Atom    -14.711175
   35 Atom     -1.077597
   36 Atom     -1.079626
   37 Atom     -1.079259
   38 Atom     -1.079009
   39 Atom     -1.089874
   40 Atom     -1.084988
   41 Atom     -1.079298
   42 Atom     -1.073350
   43 Atom     -1.074519
   44 Atom     -1.075011
   45 Atom     -1.071609
   46 Atom     -1.071281
   47 Atom     -1.065102
   48 Atom     -1.064076
   49 Atom     -1.094614
   50 Atom     -1.100644
   51 Atom     -1.098675
   52 Atom     -1.092327
   53 Atom     -1.080446
   54 Atom     -1.050655
   55 Atom     -0.973008
 -----------------------------------------------------------------
 Leave Link  602 at Sat Sep 10 14:01:28 2022, MaxMem=  209715200 cpu:     125.9
 (Enter /opt/gaussian/l9999.exe)
 1\1\GINC-LQCAPF-6\SP\RB3LYP\CC-pVDZ\C25H21Cl1N6O2\LQCAPF-6\10-Sep-2022
 \0\\#p b3lyp/cc-pvdz pop=(chelpg,readradii)\\Mol38.log\\0,1\C,0,-2.419
 91,-1.27995,-3.58847\O,0,-1.64441,-0.6958,-2.55014\C,0,-2.2074,-0.5557
 6,-1.31506\C,0,-3.53247,-0.88085,-1.00786\C,0,-4.03625,-0.71646,0.2970
 6\C,0,-3.17812,-0.21329,1.2887\C,0,-1.86356,0.13148,0.97643\C,0,-1.364
 92,-0.0201,-0.31657\N,0,-0.00802,0.32717,-0.6398\C,0,0.21983,1.40051,-
 1.62024\C,0,0.90032,2.64718,-1.07324\C,0,1.83068,3.339,-1.86058\C,0,2.
 42209,4.51624,-1.39347\C,0,2.1007,5.0202,-0.13164\C,0,1.17508,4.32343,
 0.64893\C,0,0.57392,3.14957,0.19471\Cl,0,0.75562,4.93936,2.24378\C,0,0
 .99777,-0.49039,-0.15292\O,0,0.77907,-1.43812,0.5818\C,0,2.44069,-0.10
 983,-0.52519\N,0,3.33447,-1.24595,-0.5092\N,0,3.91315,-1.62931,-1.6898
 \N,0,4.73596,-2.59704,-1.47334\C,0,4.73059,-2.87866,-0.12131\C,0,5.461
 61,-3.82656,0.61772\C,0,5.25523,-3.86439,1.98878\C,0,4.3345,-2.98806,2
 .6197\C,0,3.59704,-2.05319,1.90557\C,0,3.81957,-2.01012,0.51853\C,0,-5
 .43085,-1.07,0.59986\C,0,-6.28838,-1.97723,-0.08867\N,0,-7.49593,-2.05
 755,0.46527\N,0,-7.43486,-1.20641,1.50706\C,0,-6.23054,-0.59358,1.6357
 4\H,0,-1.75937,-1.33111,-4.46343\H,0,-2.75017,-2.29853,-3.32144\H,0,-3
 .30296,-0.66383,-3.83394\H,0,-4.19314,-1.25788,-1.78656\H,0,-3.52978,-
 0.1105,2.3163\H,0,-1.19645,0.50517,1.75464\H,0,0.7797,1.0198,-2.48844\
 H,0,-0.77076,1.67613,-2.00649\H,0,2.09818,2.95254,-2.8474\H,0,3.14876,
 5.04467,-2.01425\H,0,2.56008,5.93352,0.24682\H,0,-0.1458,2.63081,0.827
 42\H,0,2.53048,0.31535,-1.53057\H,0,2.78716,0.65445,0.19115\H,0,6.1610
 6,-4.49736,0.11654\H,0,5.80274,-4.58512,2.59971\H,0,4.19259,-3.06137,3
 .70036\H,0,2.85848,-1.41349,2.38638\H,0,-6.05943,-2.59339,-0.95601\H,0
 ,-6.03944,0.13401,2.41962\H,0,-8.2515,-1.08315,2.09167\\Version=EM64L-
 G09RevC.01\State=1-A\HF=-1904.516889\RMSD=5.300e-09\Dipole=-1.5664085,
 1.6124915,0.115782\Quadrupole=-0.4587258,-9.117222,9.5759478,3.7827348
 ,-0.6127993,-6.1121583\PG=C01 [X(C25H21Cl1N6O2)]\\@


 Statistics are no substitute for judgment.
                            -- Henry Clay
 Job cpu time:  0 days  1 hours 54 minutes 40.6 seconds.
 File lengths (MBytes):  RWF=    188 Int=      0 D2E=      0 Chk=     13 Scr=      1
 Normal termination of Gaussian 09 at Sat Sep 10 14:01:29 2022.
