 Entering Gaussian System, Link 0=g09
 Input=Mol33.gjf
 Output=Mol33.log
 Initial command:
 /opt/gaussian/l1.exe /home/scr/lqcapf-6/Gau-573358.inp -scrdir=/home/scr/lqcapf-6/
 Entering Link 1 = /opt/gaussian/l1.exe PID=    573360.
  
 Copyright (c) 1988,1990,1992,1993,1995,1998,2003,2009,2011,
            Gaussian, Inc.  All Rights Reserved.
  
 This is part of the Gaussian(R) 09 program.  It is based on
 the Gaussian(R) 03 system (copyright 2003, Gaussian, Inc.),
 the Gaussian(R) 98 system (copyright 1998, Gaussian, Inc.),
 the Gaussian(R) 94 system (copyright 1995, Gaussian, Inc.),
 the Gaussian 92(TM) system (copyright 1992, Gaussian, Inc.),
 the Gaussian 90(TM) system (copyright 1990, Gaussian, Inc.),
 the Gaussian 88(TM) system (copyright 1988, Gaussian, Inc.),
 the Gaussian 86(TM) system (copyright 1986, Carnegie Mellon
 University), and the Gaussian 82(TM) system (copyright 1983,
 Carnegie Mellon University). Gaussian is a federally registered
 trademark of Gaussian, Inc.
  
 This software contains proprietary and confidential information,
 including trade secrets, belonging to Gaussian, Inc.
  
 This software is provided under written license and may be
 used, copied, transmitted, or stored only in accord with that
 written license.
  
 The following legend is applicable only to US Government
 contracts under FAR:
  
                    RESTRICTED RIGHTS LEGEND
  
 Use, reproduction and disclosure by the US Government is
 subject to restrictions as set forth in subparagraphs (a)
 and (c) of the Commercial Computer Software - Restricted
 Rights clause in FAR 52.227-19.
  
 Gaussian, Inc.
 340 Quinnipiac St., Bldg. 40, Wallingford CT 06492
  
  
 ---------------------------------------------------------------
 Warning -- This program may not be used in any manner that
 competes with the business of Gaussian, Inc. or will provide
 assistance to any competitor of Gaussian, Inc.  The licensee
 of this program is prohibited from giving any competitor of
 Gaussian, Inc. access to this program.  By using this program,
 the user acknowledges that Gaussian, Inc. is engaged in the
 business of creating and licensing software in the field of
 computational chemistry and represents and warrants to the
 licensee that it is not a competitor of Gaussian, Inc. and that
 it will not use this program in any manner prohibited above.
 ---------------------------------------------------------------
  

 Cite this work as:
 Gaussian 09, Revision C.01,
 M. J. Frisch, G. W. Trucks, H. B. Schlegel, G. E. Scuseria, 
 M. A. Robb, J. R. Cheeseman, G. Scalmani, V. Barone, B. Mennucci, 
 G. A. Petersson, H. Nakatsuji, M. Caricato, X. Li, H. P. Hratchian, 
 A. F. Izmaylov, J. Bloino, G. Zheng, J. L. Sonnenberg, M. Hada, 
 M. Ehara, K. Toyota, R. Fukuda, J. Hasegawa, M. Ishida, T. Nakajima, 
 Y. Honda, O. Kitao, H. Nakai, T. Vreven, J. A. Montgomery, Jr., 
 J. E. Peralta, F. Ogliaro, M. Bearpark, J. J. Heyd, E. Brothers, 
 K. N. Kudin, V. N. Staroverov, T. Keith, R. Kobayashi, J. Normand, 
 K. Raghavachari, A. Rendell, J. C. Burant, S. S. Iyengar, J. Tomasi, 
 M. Cossi, N. Rega, J. M. Millam, M. Klene, J. E. Knox, J. B. Cross, 
 V. Bakken, C. Adamo, J. Jaramillo, R. Gomperts, R. E. Stratmann, 
 O. Yazyev, A. J. Austin, R. Cammi, C. Pomelli, J. W. Ochterski, 
 R. L. Martin, K. Morokuma, V. G. Zakrzewski, G. A. Voth, 
 P. Salvador, J. J. Dannenberg, S. Dapprich, A. D. Daniels, 
 O. Farkas, J. B. Foresman, J. V. Ortiz, J. Cioslowski, 
 and D. J. Fox, Gaussian, Inc., Wallingford CT, 2010.
 
 ******************************************
 Gaussian 09:  EM64L-G09RevC.01 23-Sep-2011
                10-Sep-2022 
 ******************************************
 %nprocshared=8
 Will use up to    8 processors via shared memory.
 %mem=1600MB
 ---------------------------------------
 #p b3lyp/cc-pvdz pop=(chelpg,readradii)
 ---------------------------------------
 1/38=1/1;
 2/12=2,17=6,18=5,40=1/2;
 3/5=16,11=2,16=1,25=1,30=1,74=-5/1,2,3;
 4//1;
 5/5=2,38=5/2;
 6/7=2,8=2,9=2,10=2,15=8,20=103,28=1/1,2;
 99/5=1,9=1/99;
 Leave Link    1 at Sat Sep 10 12:31:49 2022, MaxMem=  209715200 cpu:       0.2
 (Enter /opt/gaussian/l101.exe)
 ---------
 Mol33.log
 ---------
 Charge =  0 Multiplicity = 1
 Symbolic Z-Matrix:
 C                    -4.35185   4.54885  -1.19859 
 C                    -3.01898   4.01035  -0.73668 
 C                    -2.12206   4.82024  -0.02979 
 C                    -0.89061   4.29945   0.37624 
 C                    -0.52132   2.9866    0.09478 
 C                    -1.41396   2.16738  -0.61328 
 C                    -2.65148   2.68303  -1.01585 
 C                    -1.03761   0.74181  -0.99114 
 N                    -0.37551  -0.03262   0.07938 
 C                    -1.07675  -0.58195   1.13531 
 O                    -0.54498  -1.20901   2.04066 
 C                    -2.6096   -0.42351   1.13765 
 N                    -3.26195  -1.40337   0.28562 
 N                    -3.98099  -1.00299  -0.80795 
 N                    -4.49176  -2.03502  -1.39069 
 C                    -4.12169  -3.16197  -0.68368 
 C                    -4.42014  -4.52071  -0.89529 
 C                    -3.89202  -5.4355    0.00434 
 C                    -3.07883  -5.02206   1.09204 
 C                    -2.76986  -3.6868    1.31825 
 C                    -3.31734  -2.76688   0.4066 
 C                     1.04576  -0.23837   0.00477 
 C                     1.61711  -0.75222  -1.16714 
 C                     2.997    -0.92948  -1.26339 
 C                     3.84743  -0.61624  -0.18855 
 C                     3.25775  -0.11793   0.988 
 C                     1.88039   0.06918   1.0881 
 C                     5.3147   -0.80924  -0.29053 
 C                     6.02297  -0.53339  -1.47178 
 C                     7.40164  -0.73529  -1.50658 
 C                     8.03912  -1.20441  -0.35491 
 N                     7.39062  -1.48215   0.78443 
 C                     6.0678   -1.28842   0.79953 
 Cl                    0.22287   5.33271   1.26757 
 H                    -5.16842   3.84708  -0.96579 
 H                    -4.58447   5.51476  -0.72727 
 H                    -4.35771   4.69945  -2.29176 
 H                    -2.37761   5.85281   0.21223 
 H                     0.44755   2.61177   0.42376 
 H                    -3.3514    2.03262  -1.54797 
 H                    -1.9284    0.21002  -1.3502 
 H                    -0.3335    0.77314  -1.83348 
 H                    -2.92199  -0.58098   2.1791 
 H                    -2.95142   0.56356   0.80576 
 H                    -5.04265  -4.82716  -1.73714 
 H                    -4.09898  -6.49992  -0.12392 
 H                    -2.67805  -5.78053   1.76809 
 H                    -2.12277  -3.36536   2.13481 
 H                     0.9786   -1.0385   -2.00522 
 H                     3.41396  -1.35467  -2.17857 
 H                     3.88998   0.15652   1.83456 
 H                     1.44998   0.45652   2.01044 
 H                     5.49967  -0.14173  -2.34714 
 H                     7.978    -0.52132  -2.409 
 H                     9.12233  -1.36509  -0.34536 
 H                     5.56004  -1.54892   1.73421 
 
 NAtoms=     56 NQM=        0 NQMF=       0 NMMI=     56 NMMIF=      0
                NMic=       0 NMicF=      0.
                    Isotopes and Nuclear Properties:
 (Nuclear quadrupole moments (NQMom) in fm**2, nuclear magnetic moments (NMagM)
  in nuclear magnetons)

  Atom         1           2           3           4           5           6           7           8           9          10
 IAtWgt=          12          12          12          12          12          12          12          12          14          12
 AtmWgt=  12.0000000  12.0000000  12.0000000  12.0000000  12.0000000  12.0000000  12.0000000  12.0000000  14.0030740  12.0000000
 NucSpn=           0           0           0           0           0           0           0           0           2           0
 AtZEff=   0.0000000   0.0000000   0.0000000   0.0000000   0.0000000   0.0000000   0.0000000   0.0000000   0.0000000   0.0000000
 NQMom=    0.0000000   0.0000000   0.0000000   0.0000000   0.0000000   0.0000000   0.0000000   0.0000000   2.0440000   0.0000000
 NMagM=    0.0000000   0.0000000   0.0000000   0.0000000   0.0000000   0.0000000   0.0000000   0.0000000   0.4037610   0.0000000

  Atom        11          12          13          14          15          16          17          18          19          20
 IAtWgt=          16          12          14          14          14          12          12          12          12          12
 AtmWgt=  15.9949146  12.0000000  14.0030740  14.0030740  14.0030740  12.0000000  12.0000000  12.0000000  12.0000000  12.0000000
 NucSpn=           0           0           2           2           2           0           0           0           0           0
 AtZEff=   0.0000000   0.0000000   0.0000000   0.0000000   0.0000000   0.0000000   0.0000000   0.0000000   0.0000000   0.0000000
 NQMom=    0.0000000   0.0000000   2.0440000   2.0440000   2.0440000   0.0000000   0.0000000   0.0000000   0.0000000   0.0000000
 NMagM=    0.0000000   0.0000000   0.4037610   0.4037610   0.4037610   0.0000000   0.0000000   0.0000000   0.0000000   0.0000000

  Atom        21          22          23          24          25          26          27          28          29          30
 IAtWgt=          12          12          12          12          12          12          12          12          12          12
 AtmWgt=  12.0000000  12.0000000  12.0000000  12.0000000  12.0000000  12.0000000  12.0000000  12.0000000  12.0000000  12.0000000
 NucSpn=           0           0           0           0           0           0           0           0           0           0
 AtZEff=   0.0000000   0.0000000   0.0000000   0.0000000   0.0000000   0.0000000   0.0000000   0.0000000   0.0000000   0.0000000
 NQMom=    0.0000000   0.0000000   0.0000000   0.0000000   0.0000000   0.0000000   0.0000000   0.0000000   0.0000000   0.0000000
 NMagM=    0.0000000   0.0000000   0.0000000   0.0000000   0.0000000   0.0000000   0.0000000   0.0000000   0.0000000   0.0000000

  Atom        31          32          33          34          35          36          37          38          39          40
 IAtWgt=          12          14          12          35           1           1           1           1           1           1
 AtmWgt=  12.0000000  14.0030740  12.0000000  34.9688527   1.0078250   1.0078250   1.0078250   1.0078250   1.0078250   1.0078250
 NucSpn=           0           2           0           3           1           1           1           1           1           1
 AtZEff=   0.0000000   0.0000000   0.0000000   0.0000000   0.0000000   0.0000000   0.0000000   0.0000000   0.0000000   0.0000000
 NQMom=    0.0000000   2.0440000   0.0000000  -8.1650000   0.0000000   0.0000000   0.0000000   0.0000000   0.0000000   0.0000000
 NMagM=    0.0000000   0.4037610   0.0000000   0.8218740   2.7928460   2.7928460   2.7928460   2.7928460   2.7928460   2.7928460

  Atom        41          42          43          44          45          46          47          48          49          50
 IAtWgt=           1           1           1           1           1           1           1           1           1           1
 AtmWgt=   1.0078250   1.0078250   1.0078250   1.0078250   1.0078250   1.0078250   1.0078250   1.0078250   1.0078250   1.0078250
 NucSpn=           1           1           1           1           1           1           1           1           1           1
 AtZEff=   0.0000000   0.0000000   0.0000000   0.0000000   0.0000000   0.0000000   0.0000000   0.0000000   0.0000000   0.0000000
 NQMom=    0.0000000   0.0000000   0.0000000   0.0000000   0.0000000   0.0000000   0.0000000   0.0000000   0.0000000   0.0000000
 NMagM=    2.7928460   2.7928460   2.7928460   2.7928460   2.7928460   2.7928460   2.7928460   2.7928460   2.7928460   2.7928460

  Atom        51          52          53          54          55          56
 IAtWgt=           1           1           1           1           1           1
 AtmWgt=   1.0078250   1.0078250   1.0078250   1.0078250   1.0078250   1.0078250
 NucSpn=           1           1           1           1           1           1
 AtZEff=   0.0000000   0.0000000   0.0000000   0.0000000   0.0000000   0.0000000
 NQMom=    0.0000000   0.0000000   0.0000000   0.0000000   0.0000000   0.0000000
 NMagM=    2.7928460   2.7928460   2.7928460   2.7928460   2.7928460   2.7928460
 Leave Link  101 at Sat Sep 10 12:31:49 2022, MaxMem=  209715200 cpu:       0.7
 (Enter /opt/gaussian/l202.exe)
 Stoichiometry    C27H22ClN5O
 Framework group  C1[X(C27H22ClN5O)]
 Deg. of freedom   162
 Full point group                 C1      NOp   1
 Largest Abelian subgroup         C1      NOp   1
 Largest concise Abelian subgroup C1      NOp   1
                         Standard orientation:                         
 ---------------------------------------------------------------------
 Center     Atomic      Atomic             Coordinates (Angstroms)
 Number     Number       Type             X           Y           Z
 ---------------------------------------------------------------------
      1          6           0       -4.351848    4.548851   -1.198591
      2          6           0       -3.018979    4.010350   -0.736681
      3          6           0       -2.122058    4.820240   -0.029791
      4          6           0       -0.890608    4.299450    0.376239
      5          6           0       -0.521319    2.986600    0.094779
      6          6           0       -1.413959    2.167380   -0.613281
      7          6           0       -2.651479    2.683030   -1.015851
      8          6           0       -1.037610    0.741810   -0.991141
      9          7           0       -0.375510   -0.032620    0.079379
     10          6           0       -1.076750   -0.581950    1.135309
     11          8           0       -0.544980   -1.209010    2.040659
     12          6           0       -2.609600   -0.423510    1.137649
     13          7           0       -3.261950   -1.403369    0.285619
     14          7           0       -3.980990   -1.002989   -0.807951
     15          7           0       -4.491761   -2.035019   -1.390691
     16          6           0       -4.121691   -3.161969   -0.683681
     17          6           0       -4.420141   -4.520709   -0.895291
     18          6           0       -3.892022   -5.435499    0.004339
     19          6           0       -3.078832   -5.022060    1.092039
     20          6           0       -2.769861   -3.686800    1.318249
     21          6           0       -3.317341   -2.766879    0.406599
     22          6           0        1.045760   -0.238371    0.004769
     23          6           0        1.617110   -0.752221   -1.167141
     24          6           0        2.997000   -0.929482   -1.263391
     25          6           0        3.847430   -0.616242   -0.188551
     26          6           0        3.257750   -0.117932    0.987999
     27          6           0        1.880390    0.069179    1.088099
     28          6           0        5.314700   -0.809242   -0.290531
     29          6           0        6.022970   -0.533393   -1.471781
     30          6           0        7.401640   -0.735293   -1.506581
     31          6           0        8.039120   -1.204413   -0.354911
     32          7           0        7.390620   -1.482153    0.784429
     33          6           0        6.067800   -1.288423    0.799529
     34         17           0        0.222872    5.332709    1.267569
     35          1           0       -5.168419    3.847081   -0.965791
     36          1           0       -4.584468    5.514761   -0.727271
     37          1           0       -4.357708    4.699451   -2.291761
     38          1           0       -2.377608    5.852810    0.212229
     39          1           0        0.447551    2.611769    0.423759
     40          1           0       -3.351399    2.032621   -1.547971
     41          1           0       -1.928400    0.210020   -1.350201
     42          1           0       -0.333500    0.773140   -1.833481
     43          1           0       -2.921990   -0.580980    2.179099
     44          1           0       -2.951420    0.563560    0.805759
     45          1           0       -5.042652   -4.827159   -1.737141
     46          1           0       -4.098982   -6.499919   -0.123921
     47          1           0       -2.678052   -5.780530    1.768089
     48          1           0       -2.122771   -3.365360    2.134809
     49          1           0        0.978600   -1.038501   -2.005221
     50          1           0        3.413960   -1.354672   -2.178571
     51          1           0        3.889980    0.156518    1.834559
     52          1           0        1.449980    0.456519    2.010439
     53          1           0        5.499670   -0.141732   -2.347141
     54          1           0        7.978000   -0.521323   -2.409001
     55          1           0        9.122330   -1.365094   -0.345361
     56          1           0        5.560040   -1.548922    1.734209
 ---------------------------------------------------------------------
 Rotational constants (GHZ):      0.1139765      0.0717117      0.0481530
 Leave Link  202 at Sat Sep 10 12:31:49 2022, MaxMem=  209715200 cpu:       0.0
 (Enter /opt/gaussian/l301.exe)
 Standard basis: CC-pVDZ (5D, 7F)
 Ernie: Thresh=  0.10000D-02 Tol=  0.10000D-05 Strict=F.
 Ernie:  76 primitive shells out of 886 were deleted.
 There are   590 symmetry adapted basis functions of A   symmetry.
 Integral buffers will be    131072 words long.
 Raffenetti 2 integral format.
 Two-electron integral symmetry is turned on.
   590 basis functions,  1314 primitive gaussians,   624 cartesian basis functions
   122 alpha electrons      122 beta electrons
       nuclear repulsion energy      3354.1815093381 Hartrees.
 IExCor=  402 DFT=T Ex+Corr=B3LYP ExCW=0 ScaHFX=  0.200000
 ScaDFX=  0.800000  0.720000  1.000000  0.810000 ScalE2=  1.000000  1.000000
 IRadAn=      0 IRanWt=     -1 IRanGd=            0 ICorTp=0
 NAtoms=   56 NActive=   56 NUniq=   56 SFac= 1.00D+00 NAtFMM=   60 NAOKFM=F Big=F
 Leave Link  301 at Sat Sep 10 12:31:49 2022, MaxMem=  209715200 cpu:       0.3
 (Enter /opt/gaussian/l302.exe)
 NPDir=0 NMtPBC=     1 NCelOv=     1 NCel=       1 NClECP=     1 NCelD=      1
         NCelK=      1 NCelE2=     1 NClLst=     1 CellRange=     0.0.
 One-electron integrals computed using PRISM.
 NBasis=   590 RedAO= T  NBF=   590
 NBsUse=   590 1.00D-06 NBFU=   590
 Precomputing XC quadrature grid using
 IXCGrd= 2 IRadAn=           0 IRanWt=          -1 IRanGd=           0 AccXCQ= 0.00D+00.
 NRdTot=    3612 NPtTot=      461922 NUsed=      487947 NTot=      487979
 NSgBfM=   598   598   601   601   601 NAtAll=    56    56.
 Leave Link  302 at Sat Sep 10 12:31:50 2022, MaxMem=  209715200 cpu:       9.8
 (Enter /opt/gaussian/l303.exe)
 DipDrv:  MaxL=1.
 Leave Link  303 at Sat Sep 10 12:31:51 2022, MaxMem=  209715200 cpu:       1.3
 (Enter /opt/gaussian/l401.exe)
 Harris functional with IExCor=  402 diagonalized for initial guess.
 ExpMin= 1.22D-01 ExpMax= 1.28D+05 ExpMxC= 1.24D+03 IAcc=2 IRadAn=         4 AccDes= 0.00D+00
 HarFok:  IExCor=  402 AccDes= 0.00D+00 IRadAn=         4 IDoV= 1
 ScaDFX=  1.000000  1.000000  1.000000  1.000000
 FoFCou: FMM=F IPFlag=           0 FMFlag=      100000 FMFlg1=           0
         NFxFlg=           0 DoJE=T BraDBF=F KetDBF=T FulRan=T
         Omega=  0.000000  0.000000  1.000000  0.000000  0.000000 ICntrl=     500 IOpCl=  0
         NMat0=    1 NMatS0=    1 NMatT0=    0 NMatD0=    1 NMtDS0=    0 NMtDT0=    0
         I1Cent=           4 NGrid=           0.
 Petite list used in FoFCou.
 Harris En= -1851.10348571721    
 Initial guess orbital symmetries:
       Occupied  (A) (A) (A) (A) (A) (A) (A) (A) (A) (A) (A) (A)
                 (A) (A) (A) (A) (A) (A) (A) (A) (A) (A) (A) (A)
                 (A) (A) (A) (A) (A) (A) (A) (A) (A) (A) (A) (A)
                 (A) (A) (A) (A) (A) (A) (A) (A) (A) (A) (A) (A)
                 (A) (A) (A) (A) (A) (A) (A) (A) (A) (A) (A) (A)
                 (A) (A) (A) (A) (A) (A) (A) (A) (A) (A) (A) (A)
                 (A) (A) (A) (A) (A) (A) (A) (A) (A) (A) (A) (A)
                 (A) (A) (A) (A) (A) (A) (A) (A) (A) (A) (A) (A)
                 (A) (A) (A) (A) (A) (A) (A) (A) (A) (A) (A) (A)
                 (A) (A) (A) (A) (A) (A) (A) (A) (A) (A) (A) (A)
                 (A) (A)
       Virtual   (A) (A) (A) (A) (A) (A) (A) (A) (A) (A) (A) (A)
                 (A) (A) (A) (A) (A) (A) (A) (A) (A) (A) (A) (A)
                 (A) (A) (A) (A) (A) (A) (A) (A) (A) (A) (A) (A)
                 (A) (A) (A) (A) (A) (A) (A) (A) (A) (A) (A) (A)
                 (A) (A) (A) (A) (A) (A) (A) (A) (A) (A) (A) (A)
                 (A) (A) (A) (A) (A) (A) (A) (A) (A) (A) (A) (A)
                 (A) (A) (A) (A) (A) (A) (A) (A) (A) (A) (A) (A)
                 (A) (A) (A) (A) (A) (A) (A) (A) (A) (A) (A) (A)
                 (A) (A) (A) (A) (A) (A) (A) (A) (A) (A) (A) (A)
                 (A) (A) (A) (A) (A) (A) (A) (A) (A) (A) (A) (A)
                 (A) (A) (A) (A) (A) (A) (A) (A) (A) (A) (A) (A)
                 (A) (A) (A) (A) (A) (A) (A) (A) (A) (A) (A) (A)
                 (A) (A) (A) (A) (A) (A) (A) (A) (A) (A) (A) (A)
                 (A) (A) (A) (A) (A) (A) (A) (A) (A) (A) (A) (A)
                 (A) (A) (A) (A) (A) (A) (A) (A) (A) (A) (A) (A)
                 (A) (A) (A) (A) (A) (A) (A) (A) (A) (A) (A) (A)
                 (A) (A) (A) (A) (A) (A) (A) (A) (A) (A) (A) (A)
                 (A) (A) (A) (A) (A) (A) (A) (A) (A) (A) (A) (A)
                 (A) (A) (A) (A) (A) (A) (A) (A) (A) (A) (A) (A)
                 (A) (A) (A) (A) (A) (A) (A) (A) (A) (A) (A) (A)
                 (A) (A) (A) (A) (A) (A) (A) (A) (A) (A) (A) (A)
                 (A) (A) (A) (A) (A) (A) (A) (A) (A) (A) (A) (A)
                 (A) (A) (A) (A) (A) (A) (A) (A) (A) (A) (A) (A)
                 (A) (A) (A) (A) (A) (A) (A) (A) (A) (A) (A) (A)
                 (A) (A) (A) (A) (A) (A) (A) (A) (A) (A) (A) (A)
                 (A) (A) (A) (A) (A) (A) (A) (A) (A) (A) (A) (A)
                 (A) (A) (A) (A) (A) (A) (A) (A) (A) (A) (A) (A)
                 (A) (A) (A) (A) (A) (A) (A) (A) (A) (A) (A) (A)
                 (A) (A) (A) (A) (A) (A) (A) (A) (A) (A) (A) (A)
                 (A) (A) (A) (A) (A) (A) (A) (A) (A) (A) (A) (A)
                 (A) (A) (A) (A) (A) (A) (A) (A) (A) (A) (A) (A)
                 (A) (A) (A) (A) (A) (A) (A) (A) (A) (A) (A) (A)
                 (A) (A) (A) (A) (A) (A) (A) (A) (A) (A) (A) (A)
                 (A) (A) (A) (A) (A) (A) (A) (A) (A) (A) (A) (A)
                 (A) (A) (A) (A) (A) (A) (A) (A) (A) (A) (A) (A)
                 (A) (A) (A) (A) (A) (A) (A) (A) (A) (A) (A) (A)
                 (A) (A) (A) (A) (A) (A) (A) (A) (A) (A) (A) (A)
                 (A) (A) (A) (A) (A) (A) (A) (A) (A) (A) (A) (A)
                 (A) (A) (A) (A) (A) (A) (A) (A) (A) (A) (A) (A)
 The electronic state of the initial guess is 1-A.
 Leave Link  401 at Sat Sep 10 12:31:54 2022, MaxMem=  209715200 cpu:      30.2
 (Enter /opt/gaussian/l502.exe)
 Closed shell SCF:
 Requested convergence on RMS density matrix=1.00D-08 within 128 cycles.
 Requested convergence on MAX density matrix=1.00D-06.
 Requested convergence on             energy=1.00D-06.
 No special actions if energy rises.
 Using DIIS extrapolation, IDIIS=  1040.
 Integral symmetry usage will be decided dynamically.
       487430 words used for storage of precomputed grid.
 IEnd=     1683414 IEndB=     1683414 NGot=   209715200 MDV=   208438427
 LenX=   208438427 LenY=   208048427
 Fock matrices will be formed incrementally for  20 cycles.
 Integral accuracy reduced to 1.0D-05 until final iterations.

 Cycle   1  Pass 0  IDiag  1:
 FoFCou: FMM=F IPFlag=           0 FMFlag=      100000 FMFlg1=           0
         NFxFlg=           0 DoJE=F BraDBF=F KetDBF=F FulRan=T
         Omega=  0.000000  0.000000  1.000000  0.000000  0.000000 ICntrl=       0 IOpCl=  0
         NMat0=    1 NMatS0=    1 NMatT0=    0 NMatD0=    1 NMtDS0=    0 NMtDT0=    0
         I1Cent=           0 NGrid=           0.
 Symmetry not used in FoFCou.
 E= -1850.75918365888    
 DIIS: error= 2.01D-02 at cycle   1 NSaved=   1.
 NSaved= 1 IEnMin= 1 EnMin= -1850.75918365888     IErMin= 1 ErrMin= 2.01D-02
 ErrMax= 2.01D-02 EMaxC= 1.00D-01 BMatC= 5.77D-01 BMatP= 5.77D-01
 IDIUse=3 WtCom= 7.99D-01 WtEn= 2.01D-01
 Coeff-Com:  0.100D+01
 Coeff-En:   0.100D+01
 Coeff:      0.100D+01
 Gap=     0.326 Goal=   None    Shift=    0.000
 GapD=    0.326 DampG=1.000 DampE=0.500 DampFc=0.5000 IDamp=-1.
 Damping current iteration by 5.00D-01
 RMSDP=3.70D-03 MaxDP=2.03D-01              OVMax= 3.25D-01

 Cycle   2  Pass 0  IDiag  1:
 RMSU=  1.28D-03    CP:  9.75D-01
 E= -1850.91844531838     Delta-E=       -0.159261659499 Rises=F Damp=T
 DIIS: error= 8.88D-03 at cycle   2 NSaved=   2.
 NSaved= 2 IEnMin= 2 EnMin= -1850.91844531838     IErMin= 2 ErrMin= 8.88D-03
 ErrMax= 8.88D-03 EMaxC= 1.00D-01 BMatC= 1.21D-01 BMatP= 5.77D-01
 IDIUse=3 WtCom= 9.11D-01 WtEn= 8.88D-02
 Coeff-Com:  0.241D+00 0.759D+00
 Coeff-En:   0.355D+00 0.645D+00
 Coeff:      0.251D+00 0.749D+00
 Gap=     0.238 Goal=   None    Shift=    0.000
 RMSDP=1.33D-03 MaxDP=7.52D-02 DE=-1.59D-01 OVMax= 2.71D-01

 Cycle   3  Pass 0  IDiag  1:
 RMSU=  9.07D-04    CP:  9.60D-01  8.53D-01
 E= -1851.26199831508     Delta-E=       -0.343552996692 Rises=F Damp=F
 DIIS: error= 1.20D-02 at cycle   3 NSaved=   3.
 NSaved= 3 IEnMin= 3 EnMin= -1851.26199831508     IErMin= 2 ErrMin= 8.88D-03
 ErrMax= 1.20D-02 EMaxC= 1.00D-01 BMatC= 1.38D-01 BMatP= 1.21D-01
 IDIUse=2 WtCom= 0.00D+00 WtEn= 1.00D+00
 Coeff-En:   0.000D+00 0.000D+00 0.100D+01
 Coeff:      0.000D+00 0.000D+00 0.100D+01
 Gap=     0.216 Goal=   None    Shift=    0.000
 RMSDP=2.09D-03 MaxDP=1.69D-01 DE=-3.44D-01 OVMax= 2.44D-01

 Cycle   4  Pass 0  IDiag  1:
 RMSU=  8.29D-04    CP:  9.65D-01  1.29D+00 -1.99D-01
 E= -1850.54834783450     Delta-E=        0.713650480577 Rises=F Damp=F
 DIIS: error= 2.87D-02 at cycle   4 NSaved=   4.
 NSaved= 4 IEnMin= 3 EnMin= -1851.26199831508     IErMin= 2 ErrMin= 8.88D-03
 ErrMax= 2.87D-02 EMaxC= 1.00D-01 BMatC= 9.54D-01 BMatP= 1.21D-01
 IDIUse=2 WtCom= 0.00D+00 WtEn= 1.00D+00
 Coeff-En:   0.000D+00 0.000D+00 0.809D+00 0.191D+00
 Coeff:      0.000D+00 0.000D+00 0.809D+00 0.191D+00
 Gap=     0.183 Goal=   None    Shift=    0.000
 RMSDP=1.14D-03 MaxDP=9.17D-02 DE= 7.14D-01 OVMax= 1.35D-01

 Cycle   5  Pass 0  IDiag  1:
 RMSU=  1.80D-04    CP:  9.64D-01  9.81D-01  4.04D-01  5.16D-01
 E= -1851.32684175546     Delta-E=       -0.778493920958 Rises=F Damp=F
 DIIS: error= 7.84D-03 at cycle   5 NSaved=   5.
 NSaved= 5 IEnMin= 5 EnMin= -1851.32684175546     IErMin= 5 ErrMin= 7.84D-03
 ErrMax= 7.84D-03 EMaxC= 1.00D-01 BMatC= 7.15D-02 BMatP= 1.21D-01
 IDIUse=3 WtCom= 9.22D-01 WtEn= 7.84D-02
 Coeff-Com:  0.245D-02 0.438D-01 0.351D+00-0.633D-01 0.666D+00
 Coeff-En:   0.000D+00 0.000D+00 0.376D+00 0.000D+00 0.624D+00
 Coeff:      0.226D-02 0.404D-01 0.353D+00-0.584D-01 0.663D+00
 Gap=     0.188 Goal=   None    Shift=    0.000
 RMSDP=4.41D-04 MaxDP=2.95D-02 DE=-7.78D-01 OVMax= 7.10D-02

 Cycle   6  Pass 0  IDiag  1:
 RMSU=  6.30D-05    CP:  9.62D-01  9.15D-01  6.54D-01  3.05D-01  6.80D-01
 E= -1851.39212414903     Delta-E=       -0.065282393574 Rises=F Damp=F
 DIIS: error= 9.71D-04 at cycle   6 NSaved=   6.
 NSaved= 6 IEnMin= 6 EnMin= -1851.39212414903     IErMin= 6 ErrMin= 9.71D-04
 ErrMax= 9.71D-04 EMaxC= 1.00D-01 BMatC= 1.13D-03 BMatP= 7.15D-02
 IDIUse=3 WtCom= 9.90D-01 WtEn= 9.71D-03
 Coeff-Com: -0.473D-02 0.248D-01 0.175D+00-0.642D-01 0.443D+00 0.425D+00
 Coeff-En:   0.000D+00 0.000D+00 0.000D+00 0.000D+00 0.000D+00 0.100D+01
 Coeff:     -0.468D-02 0.246D-01 0.174D+00-0.636D-01 0.439D+00 0.431D+00
 Gap=     0.180 Goal=   None    Shift=    0.000
 RMSDP=5.57D-05 MaxDP=4.55D-03 DE=-6.53D-02 OVMax= 1.13D-02

 Cycle   7  Pass 0  IDiag  1:
 RMSU=  1.78D-05    CP:  9.62D-01  9.21D-01  6.48D-01  3.07D-01  7.67D-01
                    CP:  5.21D-01
 E= -1851.39310025629     Delta-E=       -0.000976107258 Rises=F Damp=F
 DIIS: error= 3.82D-04 at cycle   7 NSaved=   7.
 NSaved= 7 IEnMin= 7 EnMin= -1851.39310025629     IErMin= 7 ErrMin= 3.82D-04
 ErrMax= 3.82D-04 EMaxC= 1.00D-01 BMatC= 6.69D-05 BMatP= 1.13D-03
 IDIUse=3 WtCom= 9.96D-01 WtEn= 3.82D-03
 Coeff-Com: -0.189D-02 0.800D-02 0.650D-01-0.284D-01 0.174D+00 0.221D+00
 Coeff-Com:  0.562D+00
 Coeff-En:   0.000D+00 0.000D+00 0.000D+00 0.000D+00 0.000D+00 0.000D+00
 Coeff-En:   0.100D+01
 Coeff:     -0.189D-02 0.797D-02 0.648D-01-0.283D-01 0.173D+00 0.220D+00
 Coeff:      0.564D+00
 Gap=     0.180 Goal=   None    Shift=    0.000
 RMSDP=1.75D-05 MaxDP=1.80D-03 DE=-9.76D-04 OVMax= 3.01D-03

 Cycle   8  Pass 0  IDiag  1:
 RMSU=  9.26D-06    CP:  9.62D-01  9.19D-01  6.50D-01  3.06D-01  7.69D-01
                    CP:  5.69D-01  6.07D-01
 E= -1851.39314518388     Delta-E=       -0.000044927592 Rises=F Damp=F
 DIIS: error= 1.02D-04 at cycle   8 NSaved=   8.
 NSaved= 8 IEnMin= 8 EnMin= -1851.39314518388     IErMin= 8 ErrMin= 1.02D-04
 ErrMax= 1.02D-04 EMaxC= 1.00D-01 BMatC= 2.05D-05 BMatP= 6.69D-05
 IDIUse=3 WtCom= 9.99D-01 WtEn= 1.02D-03
 Coeff-Com:  0.247D-03-0.161D-02 0.106D-01-0.447D-02 0.241D-01 0.582D-01
 Coeff-Com:  0.400D+00 0.513D+00
 Coeff-En:   0.000D+00 0.000D+00 0.000D+00 0.000D+00 0.000D+00 0.000D+00
 Coeff-En:   0.213D+00 0.787D+00
 Coeff:      0.247D-03-0.161D-02 0.106D-01-0.446D-02 0.241D-01 0.581D-01
 Coeff:      0.399D+00 0.514D+00
 Gap=     0.180 Goal=   None    Shift=    0.000
 RMSDP=8.46D-06 MaxDP=6.27D-04 DE=-4.49D-05 OVMax= 1.30D-03

 Initial convergence to 1.0D-05 achieved.  Increase integral accuracy.
 Cycle   9  Pass 1  IDiag  1:
 E= -1851.39315360595     Delta-E=       -0.000008422069 Rises=F Damp=F
 DIIS: error= 2.56D-04 at cycle   1 NSaved=   1.
 NSaved= 1 IEnMin= 1 EnMin= -1851.39315360595     IErMin= 1 ErrMin= 2.56D-04
 ErrMax= 2.56D-04 EMaxC= 1.00D-01 BMatC= 1.70D-05 BMatP= 1.70D-05
 IDIUse=3 WtCom= 9.97D-01 WtEn= 2.56D-03
 Coeff-Com:  0.100D+01
 Coeff-En:   0.100D+01
 Coeff:      0.100D+01
 Gap=     0.180 Goal=   None    Shift=    0.000
 RMSDP=8.46D-06 MaxDP=6.27D-04 DE=-8.42D-06 OVMax= 1.06D-03

 Cycle  10  Pass 1  IDiag  1:
 RMSU=  1.10D-04    CP:  1.00D+00
 E= -1851.39316581270     Delta-E=       -0.000012206753 Rises=F Damp=F
 DIIS: error= 5.43D-05 at cycle   2 NSaved=   2.
 NSaved= 2 IEnMin= 2 EnMin= -1851.39316581270     IErMin= 2 ErrMin= 5.43D-05
 ErrMax= 5.43D-05 EMaxC= 1.00D-01 BMatC= 4.76D-06 BMatP= 1.70D-05
 IDIUse=1 WtCom= 1.00D+00 WtEn= 0.00D+00
 Coeff-Com:  0.264D+00 0.736D+00
 Coeff:      0.264D+00 0.736D+00
 Gap=     0.180 Goal=   None    Shift=    0.000
 RMSDP=8.69D-06 MaxDP=7.78D-04 DE=-1.22D-05 OVMax= 1.75D-03

 Cycle  11  Pass 1  IDiag  1:
 RMSU=  6.10D-06    CP:  1.00D+00  1.01D+00
 E= -1851.39316146223     Delta-E=        0.000004350477 Rises=F Damp=F
 DIIS: error= 8.34D-05 at cycle   3 NSaved=   3.
 NSaved= 3 IEnMin= 2 EnMin= -1851.39316581270     IErMin= 2 ErrMin= 5.43D-05
 ErrMax= 8.34D-05 EMaxC= 1.00D-01 BMatC= 9.28D-06 BMatP= 4.76D-06
 IDIUse=1 WtCom= 1.00D+00 WtEn= 0.00D+00
 Coeff-Com:  0.638D-02 0.581D+00 0.412D+00
 Coeff:      0.638D-02 0.581D+00 0.412D+00
 Gap=     0.180 Goal=   None    Shift=    0.000
 RMSDP=5.28D-06 MaxDP=4.81D-04 DE= 4.35D-06 OVMax= 1.15D-03

 Cycle  12  Pass 1  IDiag  1:
 RMSU=  9.64D-07    CP:  1.00D+00  1.01D+00  4.13D-01
 E= -1851.39317034332     Delta-E=       -0.000008881092 Rises=F Damp=F
 DIIS: error= 1.60D-05 at cycle   4 NSaved=   4.
 NSaved= 4 IEnMin= 4 EnMin= -1851.39317034332     IErMin= 4 ErrMin= 1.60D-05
 ErrMax= 1.60D-05 EMaxC= 1.00D-01 BMatC= 2.31D-07 BMatP= 4.76D-06
 IDIUse=1 WtCom= 1.00D+00 WtEn= 0.00D+00
 Coeff-Com: -0.353D-02 0.355D+00 0.266D+00 0.382D+00
 Coeff:     -0.353D-02 0.355D+00 0.266D+00 0.382D+00
 Gap=     0.180 Goal=   None    Shift=    0.000
 RMSDP=8.50D-07 MaxDP=7.98D-05 DE=-8.88D-06 OVMax= 1.11D-04

 Cycle  13  Pass 1  IDiag  1:
 RMSU=  2.20D-07    CP:  1.00D+00  1.01D+00  4.28D-01  4.28D-01
 E= -1851.39317055603     Delta-E=       -0.000000212716 Rises=F Damp=F
 DIIS: error= 2.51D-06 at cycle   5 NSaved=   5.
 NSaved= 5 IEnMin= 5 EnMin= -1851.39317055603     IErMin= 5 ErrMin= 2.51D-06
 ErrMax= 2.51D-06 EMaxC= 1.00D-01 BMatC= 4.29D-09 BMatP= 2.31D-07
 IDIUse=1 WtCom= 1.00D+00 WtEn= 0.00D+00
 Coeff-Com: -0.229D-02 0.202D+00 0.152D+00 0.233D+00 0.416D+00
 Coeff:     -0.229D-02 0.202D+00 0.152D+00 0.233D+00 0.416D+00
 Gap=     0.180 Goal=   None    Shift=    0.000
 RMSDP=1.28D-07 MaxDP=1.14D-05 DE=-2.13D-07 OVMax= 2.24D-05

 Cycle  14  Pass 1  IDiag  1:
 RMSU=  7.66D-08    CP:  1.00D+00  1.01D+00  4.27D-01  4.36D-01  7.87D-01
 E= -1851.39317055999     Delta-E=       -0.000000003951 Rises=F Damp=F
 DIIS: error= 4.65D-07 at cycle   6 NSaved=   6.
 NSaved= 6 IEnMin= 6 EnMin= -1851.39317055999     IErMin= 6 ErrMin= 4.65D-07
 ErrMax= 4.65D-07 EMaxC= 1.00D-01 BMatC= 2.61D-10 BMatP= 4.29D-09
 IDIUse=1 WtCom= 1.00D+00 WtEn= 0.00D+00
 Coeff-Com: -0.993D-03 0.838D-01 0.628D-01 0.983D-01 0.244D+00 0.512D+00
 Coeff:     -0.993D-03 0.838D-01 0.628D-01 0.983D-01 0.244D+00 0.512D+00
 Gap=     0.180 Goal=   None    Shift=    0.000
 RMSDP=3.78D-08 MaxDP=1.99D-06 DE=-3.95D-09 OVMax= 4.91D-06

 Cycle  15  Pass 1  IDiag  1:
 RMSU=  2.12D-08    CP:  1.00D+00  1.01D+00  4.27D-01  4.39D-01  8.14D-01
                    CP:  8.11D-01
 E= -1851.39317056022     Delta-E=       -0.000000000236 Rises=F Damp=F
 DIIS: error= 2.52D-07 at cycle   7 NSaved=   7.
 NSaved= 7 IEnMin= 7 EnMin= -1851.39317056022     IErMin= 7 ErrMin= 2.52D-07
 ErrMax= 2.52D-07 EMaxC= 1.00D-01 BMatC= 5.13D-11 BMatP= 2.61D-10
 IDIUse=1 WtCom= 1.00D+00 WtEn= 0.00D+00
 Coeff-Com: -0.235D-03 0.183D-01 0.138D-01 0.221D-01 0.880D-01 0.333D+00
 Coeff-Com:  0.525D+00
 Coeff:     -0.235D-03 0.183D-01 0.138D-01 0.221D-01 0.880D-01 0.333D+00
 Coeff:      0.525D+00
 Gap=     0.180 Goal=   None    Shift=    0.000
 RMSDP=1.45D-08 MaxDP=1.53D-06 DE=-2.36D-10 OVMax= 1.69D-06

 Cycle  16  Pass 1  IDiag  1:
 RMSU=  7.05D-09    CP:  1.00D+00  1.01D+00  4.27D-01  4.40D-01  8.21D-01
                    CP:  8.43D-01  6.85D-01
 E= -1851.39317056026     Delta-E=       -0.000000000035 Rises=F Damp=F
 DIIS: error= 1.02D-07 at cycle   8 NSaved=   8.
 NSaved= 8 IEnMin= 8 EnMin= -1851.39317056026     IErMin= 8 ErrMin= 1.02D-07
 ErrMax= 1.02D-07 EMaxC= 1.00D-01 BMatC= 9.18D-12 BMatP= 5.13D-11
 IDIUse=1 WtCom= 1.00D+00 WtEn= 0.00D+00
 Coeff-Com:  0.663D-05-0.160D-02-0.116D-02-0.167D-02 0.196D-01 0.138D+00
 Coeff-Com:  0.346D+00 0.500D+00
 Coeff:      0.663D-05-0.160D-02-0.116D-02-0.167D-02 0.196D-01 0.138D+00
 Coeff:      0.346D+00 0.500D+00
 Gap=     0.180 Goal=   None    Shift=    0.000
 RMSDP=5.89D-09 MaxDP=5.57D-07 DE=-3.55D-11 OVMax= 6.72D-07

 SCF Done:  E(RB3LYP) =  -1851.39317056     A.U. after   16 cycles
             Convg  =    0.5895D-08             -V/T =  2.0056
 KE= 1.841026904129D+03 PE=-1.103286669429D+04 EE= 3.986265110267D+03
 Leave Link  502 at Sat Sep 10 12:48:38 2022, MaxMem=  209715200 cpu:    7374.7
 (Enter /opt/gaussian/l601.exe)
 Copying SCF densities to generalized density rwf, IOpCl= 0 IROHF=0.

 **********************************************************************

            Population analysis using the SCF density.

 **********************************************************************

 Orbital symmetries:
       Occupied  (A) (A) (A) (A) (A) (A) (A) (A) (A) (A) (A) (A)
                 (A) (A) (A) (A) (A) (A) (A) (A) (A) (A) (A) (A)
                 (A) (A) (A) (A) (A) (A) (A) (A) (A) (A) (A) (A)
                 (A) (A) (A) (A) (A) (A) (A) (A) (A) (A) (A) (A)
                 (A) (A) (A) (A) (A) (A) (A) (A) (A) (A) (A) (A)
                 (A) (A) (A) (A) (A) (A) (A) (A) (A) (A) (A) (A)
                 (A) (A) (A) (A) (A) (A) (A) (A) (A) (A) (A) (A)
                 (A) (A) (A) (A) (A) (A) (A) (A) (A) (A) (A) (A)
                 (A) (A) (A) (A) (A) (A) (A) (A) (A) (A) (A) (A)
                 (A) (A) (A) (A) (A) (A) (A) (A) (A) (A) (A) (A)
                 (A) (A)
       Virtual   (A) (A) (A) (A) (A) (A) (A) (A) (A) (A) (A) (A)
                 (A) (A) (A) (A) (A) (A) (A) (A) (A) (A) (A) (A)
                 (A) (A) (A) (A) (A) (A) (A) (A) (A) (A) (A) (A)
                 (A) (A) (A) (A) (A) (A) (A) (A) (A) (A) (A) (A)
                 (A) (A) (A) (A) (A) (A) (A) (A) (A) (A) (A) (A)
                 (A) (A) (A) (A) (A) (A) (A) (A) (A) (A) (A) (A)
                 (A) (A) (A) (A) (A) (A) (A) (A) (A) (A) (A) (A)
                 (A) (A) (A) (A) (A) (A) (A) (A) (A) (A) (A) (A)
                 (A) (A) (A) (A) (A) (A) (A) (A) (A) (A) (A) (A)
                 (A) (A) (A) (A) (A) (A) (A) (A) (A) (A) (A) (A)
                 (A) (A) (A) (A) (A) (A) (A) (A) (A) (A) (A) (A)
                 (A) (A) (A) (A) (A) (A) (A) (A) (A) (A) (A) (A)
                 (A) (A) (A) (A) (A) (A) (A) (A) (A) (A) (A) (A)
                 (A) (A) (A) (A) (A) (A) (A) (A) (A) (A) (A) (A)
                 (A) (A) (A) (A) (A) (A) (A) (A) (A) (A) (A) (A)
                 (A) (A) (A) (A) (A) (A) (A) (A) (A) (A) (A) (A)
                 (A) (A) (A) (A) (A) (A) (A) (A) (A) (A) (A) (A)
                 (A) (A) (A) (A) (A) (A) (A) (A) (A) (A) (A) (A)
                 (A) (A) (A) (A) (A) (A) (A) (A) (A) (A) (A) (A)
                 (A) (A) (A) (A) (A) (A) (A) (A) (A) (A) (A) (A)
                 (A) (A) (A) (A) (A) (A) (A) (A) (A) (A) (A) (A)
                 (A) (A) (A) (A) (A) (A) (A) (A) (A) (A) (A) (A)
                 (A) (A) (A) (A) (A) (A) (A) (A) (A) (A) (A) (A)
                 (A) (A) (A) (A) (A) (A) (A) (A) (A) (A) (A) (A)
                 (A) (A) (A) (A) (A) (A) (A) (A) (A) (A) (A) (A)
                 (A) (A) (A) (A) (A) (A) (A) (A) (A) (A) (A) (A)
                 (A) (A) (A) (A) (A) (A) (A) (A) (A) (A) (A) (A)
                 (A) (A) (A) (A) (A) (A) (A) (A) (A) (A) (A) (A)
                 (A) (A) (A) (A) (A) (A) (A) (A) (A) (A) (A) (A)
                 (A) (A) (A) (A) (A) (A) (A) (A) (A) (A) (A) (A)
                 (A) (A) (A) (A) (A) (A) (A) (A) (A) (A) (A) (A)
                 (A) (A) (A) (A) (A) (A) (A) (A) (A) (A) (A) (A)
                 (A) (A) (A) (A) (A) (A) (A) (A) (A) (A) (A) (A)
                 (A) (A) (A) (A) (A) (A) (A) (A) (A) (A) (A) (A)
                 (A) (A) (A) (A) (A) (A) (A) (A) (A) (A) (A) (A)
                 (A) (A) (A) (A) (A) (A) (A) (A) (A) (A) (A) (A)
                 (A) (A) (A) (A) (A) (A) (A) (A) (A) (A) (A) (A)
                 (A) (A) (A) (A) (A) (A) (A) (A) (A) (A) (A) (A)
                 (A) (A) (A) (A) (A) (A) (A) (A) (A) (A) (A) (A)
 The electronic state is 1-A.
 Alpha  occ. eigenvalues -- -101.54746 -19.12823 -14.42365 -14.40231 -14.38675
 Alpha  occ. eigenvalues --  -14.35907 -14.33036 -10.30859 -10.25808 -10.25652
 Alpha  occ. eigenvalues --  -10.24842 -10.24514 -10.23956 -10.22691 -10.22656
 Alpha  occ. eigenvalues --  -10.22041 -10.21947 -10.21829 -10.21434 -10.21399
 Alpha  occ. eigenvalues --  -10.21352 -10.20879 -10.20813 -10.20767 -10.20744
 Alpha  occ. eigenvalues --  -10.20739 -10.20632 -10.20620 -10.20527 -10.20506
 Alpha  occ. eigenvalues --  -10.20467 -10.20262 -10.20191 -10.20060  -9.46560
 Alpha  occ. eigenvalues --   -7.22816  -7.21850  -7.21811  -1.10418  -1.05869
 Alpha  occ. eigenvalues --   -0.96394  -0.94610  -0.93320  -0.89892  -0.87379
 Alpha  occ. eigenvalues --   -0.87138  -0.84978  -0.82037  -0.80039  -0.78768
 Alpha  occ. eigenvalues --   -0.78245  -0.77402  -0.76516  -0.75738  -0.75315
 Alpha  occ. eigenvalues --   -0.73636  -0.71058  -0.70366  -0.66069  -0.65578
 Alpha  occ. eigenvalues --   -0.64416  -0.63186  -0.62286  -0.61788  -0.60343
 Alpha  occ. eigenvalues --   -0.59903  -0.59819  -0.57048  -0.54297  -0.53686
 Alpha  occ. eigenvalues --   -0.53366  -0.52483  -0.51552  -0.51101  -0.49778
 Alpha  occ. eigenvalues --   -0.49610  -0.49285  -0.47802  -0.47319  -0.47187
 Alpha  occ. eigenvalues --   -0.46129  -0.45585  -0.45540  -0.44877  -0.44747
 Alpha  occ. eigenvalues --   -0.43925  -0.43532  -0.43411  -0.42927  -0.42662
 Alpha  occ. eigenvalues --   -0.42438  -0.42306  -0.40782  -0.40493  -0.40339
 Alpha  occ. eigenvalues --   -0.39995  -0.39100  -0.39029  -0.38245  -0.38143
 Alpha  occ. eigenvalues --   -0.37307  -0.36812  -0.36560  -0.36449  -0.36169
 Alpha  occ. eigenvalues --   -0.35951  -0.34158  -0.33149  -0.32314  -0.31646
 Alpha  occ. eigenvalues --   -0.30917  -0.28871  -0.28172  -0.27513  -0.27163
 Alpha  occ. eigenvalues --   -0.26555  -0.26238  -0.25925  -0.25817  -0.25287
 Alpha  occ. eigenvalues --   -0.24166  -0.23315
 Alpha virt. eigenvalues --   -0.05322  -0.05145  -0.03276  -0.03031  -0.02760
 Alpha virt. eigenvalues --   -0.02154  -0.01296  -0.00061   0.01249   0.02608
 Alpha virt. eigenvalues --    0.02724   0.05603   0.06126   0.06469   0.06652
 Alpha virt. eigenvalues --    0.07672   0.08189   0.09194   0.09579   0.09922
 Alpha virt. eigenvalues --    0.10202   0.10441   0.10711   0.11087   0.11483
 Alpha virt. eigenvalues --    0.11837   0.12714   0.12929   0.13497   0.13963
 Alpha virt. eigenvalues --    0.14426   0.14661   0.15062   0.15336   0.15374
 Alpha virt. eigenvalues --    0.15536   0.16744   0.17513   0.17609   0.18777
 Alpha virt. eigenvalues --    0.19862   0.20605   0.21346   0.22276   0.22710
 Alpha virt. eigenvalues --    0.22949   0.23831   0.24379   0.25340   0.25520
 Alpha virt. eigenvalues --    0.27193   0.27500   0.28134   0.28221   0.29112
 Alpha virt. eigenvalues --    0.29565   0.29664   0.31138   0.31469   0.32780
 Alpha virt. eigenvalues --    0.33281   0.34008   0.34501   0.34941   0.35601
 Alpha virt. eigenvalues --    0.35836   0.37165   0.37687   0.37982   0.38835
 Alpha virt. eigenvalues --    0.41011   0.41848   0.42094   0.42339   0.42798
 Alpha virt. eigenvalues --    0.44084   0.44277   0.44754   0.44904   0.45043
 Alpha virt. eigenvalues --    0.45318   0.45849   0.46388   0.46582   0.47069
 Alpha virt. eigenvalues --    0.47155   0.47508   0.47918   0.48349   0.48608
 Alpha virt. eigenvalues --    0.48779   0.49263   0.49379   0.49667   0.49774
 Alpha virt. eigenvalues --    0.49956   0.50186   0.50349   0.50542   0.50647
 Alpha virt. eigenvalues --    0.51294   0.51419   0.51987   0.52278   0.52905
 Alpha virt. eigenvalues --    0.53227   0.53688   0.53725   0.53853   0.54133
 Alpha virt. eigenvalues --    0.54740   0.55482   0.55719   0.56548   0.57007
 Alpha virt. eigenvalues --    0.57042   0.57530   0.57816   0.58256   0.58561
 Alpha virt. eigenvalues --    0.58892   0.59491   0.59811   0.60173   0.60613
 Alpha virt. eigenvalues --    0.61266   0.61392   0.61873   0.62663   0.62863
 Alpha virt. eigenvalues --    0.63333   0.63867   0.64152   0.64504   0.64608
 Alpha virt. eigenvalues --    0.64649   0.65018   0.65769   0.66119   0.66280
 Alpha virt. eigenvalues --    0.66653   0.66888   0.67190   0.67361   0.67816
 Alpha virt. eigenvalues --    0.68370   0.68471   0.69180   0.69573   0.70068
 Alpha virt. eigenvalues --    0.70563   0.70787   0.71070   0.71932   0.72301
 Alpha virt. eigenvalues --    0.73018   0.73403   0.73477   0.74150   0.75356
 Alpha virt. eigenvalues --    0.75413   0.77173   0.78404   0.79025   0.79813
 Alpha virt. eigenvalues --    0.80434   0.81420   0.82344   0.83647   0.83995
 Alpha virt. eigenvalues --    0.84744   0.85219   0.86059   0.86341   0.86693
 Alpha virt. eigenvalues --    0.86959   0.87422   0.87943   0.88258   0.88897
 Alpha virt. eigenvalues --    0.89133   0.89649   0.90147   0.90711   0.91274
 Alpha virt. eigenvalues --    0.91735   0.91976   0.92435   0.93034   0.93356
 Alpha virt. eigenvalues --    0.94032   0.95096   0.95176   0.95900   0.96637
 Alpha virt. eigenvalues --    0.97034   0.97951   0.98625   0.98739   0.99329
 Alpha virt. eigenvalues --    0.99813   1.00155   1.00380   1.00759   1.01183
 Alpha virt. eigenvalues --    1.01788   1.02490   1.02582   1.02809   1.03168
 Alpha virt. eigenvalues --    1.03766   1.04084   1.04437   1.04967   1.05226
 Alpha virt. eigenvalues --    1.05597   1.06128   1.06609   1.07048   1.07855
 Alpha virt. eigenvalues --    1.08074   1.08940   1.09937   1.10303   1.11756
 Alpha virt. eigenvalues --    1.12402   1.13154   1.13550   1.14663   1.15259
 Alpha virt. eigenvalues --    1.15773   1.16011   1.18198   1.18809   1.19457
 Alpha virt. eigenvalues --    1.19693   1.20412   1.21297   1.23578   1.23932
 Alpha virt. eigenvalues --    1.24418   1.25462   1.26499   1.27560   1.28650
 Alpha virt. eigenvalues --    1.29094   1.29946   1.30537   1.31001   1.32482
 Alpha virt. eigenvalues --    1.33959   1.34215   1.35626   1.35908   1.36632
 Alpha virt. eigenvalues --    1.38115   1.38629   1.39626   1.40815   1.41912
 Alpha virt. eigenvalues --    1.43638   1.44503   1.44813   1.45016   1.46301
 Alpha virt. eigenvalues --    1.46957   1.47126   1.47697   1.48354   1.48638
 Alpha virt. eigenvalues --    1.49110   1.49234   1.49861   1.50069   1.50440
 Alpha virt. eigenvalues --    1.50958   1.51620   1.52023   1.53116   1.54296
 Alpha virt. eigenvalues --    1.54484   1.54703   1.55725   1.56051   1.57101
 Alpha virt. eigenvalues --    1.57311   1.57730   1.58417   1.58725   1.59003
 Alpha virt. eigenvalues --    1.59407   1.60487   1.60629   1.61187   1.61492
 Alpha virt. eigenvalues --    1.61572   1.61675   1.61727   1.62569   1.62953
 Alpha virt. eigenvalues --    1.63234   1.63532   1.64038   1.64383   1.64836
 Alpha virt. eigenvalues --    1.65253   1.66035   1.66744   1.66974   1.67259
 Alpha virt. eigenvalues --    1.67903   1.68491   1.68870   1.69194   1.69977
 Alpha virt. eigenvalues --    1.70176   1.70674   1.70990   1.71770   1.73190
 Alpha virt. eigenvalues --    1.73343   1.74125   1.74289   1.74700   1.75466
 Alpha virt. eigenvalues --    1.75626   1.75795   1.76817   1.76826   1.77534
 Alpha virt. eigenvalues --    1.77847   1.78270   1.78829   1.79302   1.79879
 Alpha virt. eigenvalues --    1.80675   1.80983   1.81694   1.81899   1.82740
 Alpha virt. eigenvalues --    1.83058   1.83264   1.84053   1.84429   1.84879
 Alpha virt. eigenvalues --    1.85588   1.86072   1.86677   1.87120   1.87780
 Alpha virt. eigenvalues --    1.87967   1.88562   1.89683   1.90373   1.91400
 Alpha virt. eigenvalues --    1.91725   1.92527   1.93299   1.93806   1.94388
 Alpha virt. eigenvalues --    1.95367   1.96062   1.96992   1.97493   1.97543
 Alpha virt. eigenvalues --    1.98065   1.98268   1.99188   1.99754   2.00251
 Alpha virt. eigenvalues --    2.01244   2.02237   2.02762   2.03003   2.04187
 Alpha virt. eigenvalues --    2.04807   2.05882   2.06429   2.07001   2.09074
 Alpha virt. eigenvalues --    2.09849   2.10747   2.11008   2.12572   2.13269
 Alpha virt. eigenvalues --    2.14118   2.15245   2.15940   2.16778   2.17097
 Alpha virt. eigenvalues --    2.17438   2.18612   2.18873   2.20945   2.21470
 Alpha virt. eigenvalues --    2.21695   2.22399   2.23872   2.26376   2.27427
 Alpha virt. eigenvalues --    2.28998   2.29275   2.31624   2.32363   2.33626
 Alpha virt. eigenvalues --    2.36563   2.37900   2.38094   2.38348   2.39001
 Alpha virt. eigenvalues --    2.39927   2.40212   2.40897   2.42311   2.42954
 Alpha virt. eigenvalues --    2.43481   2.45507   2.45721   2.46839   2.46975
 Alpha virt. eigenvalues --    2.47745   2.48251   2.48852   2.50763   2.51141
 Alpha virt. eigenvalues --    2.52054   2.52763   2.53893   2.54439   2.55702
 Alpha virt. eigenvalues --    2.58791   2.61291   2.61770   2.64053   2.65329
 Alpha virt. eigenvalues --    2.65898   2.66506   2.68508   2.69839   2.70096
 Alpha virt. eigenvalues --    2.71948   2.72766   2.73137   2.73721   2.74457
 Alpha virt. eigenvalues --    2.75239   2.76873   2.78191   2.80344   2.81190
 Alpha virt. eigenvalues --    2.81249   2.83357   2.85430   2.87272   2.89879
 Alpha virt. eigenvalues --    2.92002   2.96293   2.96722   2.99337   3.07967
 Alpha virt. eigenvalues --    3.08931   3.12151   3.30537   3.37775   3.40112
 Alpha virt. eigenvalues --    3.48537   3.52736   3.53230
          Condensed to atoms (all electrons):
 Mulliken atomic charges:
              1
     1  C    0.056601
     2  C   -0.095462
     3  C    0.127570
     4  C   -0.144112
     5  C    0.132013
     6  C   -0.095970
     7  C    0.024597
     8  C    0.155987
     9  N   -0.278847
    10  C    0.134140
    11  O   -0.256964
    12  C    0.168019
    13  N   -0.242884
    14  N   -0.069838
    15  N   -0.178096
    16  C    0.009895
    17  C    0.043163
    18  C    0.039844
    19  C    0.043909
    20  C    0.030867
    21  C    0.183385
    22  C    0.075257
    23  C    0.048648
    24  C    0.022882
    25  C    0.035941
    26  C    0.018286
    27  C    0.089015
    28  C   -0.045385
    29  C    0.075030
    30  C   -0.007990
    31  C    0.105677
    32  N   -0.172833
    33  C    0.099571
    34  Cl  -0.088104
    35  H    0.042443
    36  H    0.020599
    37  H    0.048394
    38  H   -0.034149
    39  H   -0.033067
    40  H   -0.037035
    41  H    0.035300
    42  H    0.049328
    43  H    0.045253
    44  H    0.056528
    45  H   -0.020660
    46  H   -0.023711
    47  H   -0.019160
    48  H   -0.006975
    49  H   -0.023048
    50  H   -0.033805
    51  H   -0.028474
    52  H   -0.021265
    53  H   -0.027773
    54  H   -0.022946
    55  H   -0.002960
    56  H   -0.006631
 Sum of Mulliken atomic charges =   0.00000
 Mulliken charges with hydrogens summed into heavy atoms:
              1
     1  C    0.168037
     2  C   -0.095462
     3  C    0.093420
     4  C   -0.144112
     5  C    0.098946
     6  C   -0.095970
     7  C   -0.012438
     8  C    0.240615
     9  N   -0.278847
    10  C    0.134140
    11  O   -0.256964
    12  C    0.269799
    13  N   -0.242884
    14  N   -0.069838
    15  N   -0.178096
    16  C    0.009895
    17  C    0.022502
    18  C    0.016134
    19  C    0.024748
    20  C    0.023892
    21  C    0.183385
    22  C    0.075257
    23  C    0.025601
    24  C   -0.010923
    25  C    0.035941
    26  C   -0.010188
    27  C    0.067751
    28  C   -0.045385
    29  C    0.047258
    30  C   -0.030937
    31  C    0.102718
    32  N   -0.172833
    33  C    0.092941
    34  Cl  -0.088104
 Sum of Mulliken charges with hydrogens summed into heavy atoms =   0.00000
 Electronic spatial extent (au):  <R**2>=          21240.8060
 Charge=              0.0000 electrons
 Dipole moment (field-independent basis, Debye):
    X=             -0.9642    Y=              0.6935    Z=             -2.2415  Tot=              2.5367
 Quadrupole moment (field-independent basis, Debye-Ang):
   XX=           -208.7210   YY=           -197.2583   ZZ=           -200.7729
   XY=             -1.5263   XZ=            -18.3225   YZ=             -1.2412
 Traceless Quadrupole moment (field-independent basis, Debye-Ang):
   XX=             -6.4702   YY=              4.9924   ZZ=              1.4779
   XY=             -1.5263   XZ=            -18.3225   YZ=             -1.2412
 Octapole moment (field-independent basis, Debye-Ang**2):
  XXX=              8.4262  YYY=            -58.3143  ZZZ=              0.2772  XYY=           -119.3018
  XXY=             77.5621  XXZ=            -78.3063  XZZ=             20.0227  YZZ=              6.0345
  YYZ=             -9.5379  XYZ=             30.1979
 Hexadecapole moment (field-independent basis, Debye-Ang**3):
 XXXX=         -17745.2808 YYYY=          -9757.0295 ZZZZ=          -1501.7332 XXXY=             72.9945
 XXXZ=           -934.3035 YYYX=            144.9409 YYYZ=            -70.0039 ZZZX=            -56.9200
 ZZZY=             25.9422 XXYY=          -4475.4350 XXZZ=          -3131.6566 YYZZ=          -1980.7827
 XXYZ=            109.9235 YYXZ=             71.1699 ZZXY=              6.4859
 N-N= 3.354181509338D+03 E-N=-1.103286672984D+04  KE= 1.841026904129D+03
 No NMR shielding tensors so no spin-rotation constants.
 Leave Link  601 at Sat Sep 10 12:48:39 2022, MaxMem=  209715200 cpu:       4.6
 (Enter /opt/gaussian/l602.exe)
 Breneman (CHELPG) radii used.
 Read replacement radii for each type of atom:
 Rad(35) =   1.900000000000D+00
 Atom Element Radius
    1     6    1.50
    2     6    1.50
    3     6    1.50
    4     6    1.50
    5     6    1.50
    6     6    1.50
    7     6    1.50
    8     6    1.50
    9     7    1.70
   10     6    1.50
   11     8    1.70
   12     6    1.50
   13     7    1.70
   14     7    1.70
   15     7    1.70
   16     6    1.50
   17     6    1.50
   18     6    1.50
   19     6    1.50
   20     6    1.50
   21     6    1.50
   22     6    1.50
   23     6    1.50
   24     6    1.50
   25     6    1.50
   26     6    1.50
   27     6    1.50
   28     6    1.50
   29     6    1.50
   30     6    1.50
   31     6    1.50
   32     7    1.70
   33     6    1.50
   34    17    2.00
   35     1    1.45
   36     1    1.45
   37     1    1.45
   38     1    1.45
   39     1    1.45
   40     1    1.45
   41     1    1.45
   42     1    1.45
   43     1    1.45
   44     1    1.45
   45     1    1.45
   46     1    1.45
   47     1    1.45
   48     1    1.45
   49     1    1.45
   50     1    1.45
   51     1    1.45
   52     1    1.45
   53     1    1.45
   54     1    1.45
   55     1    1.45
   56     1    1.45
 Generate Potential Derived Charges using the Breneman model, NDens= 1.
 Grid spacing= 0.300 Box extension= 2.800
 NStep X,Y,Z=   68     61     35   Total possible points=      145180
 Number of Points to Fit=   30876

 **********************************************************************

            Electrostatic Properties Using The SCF Density

 **********************************************************************

       Atomic Center    1 is at  -4.351848  4.548851 -1.198591
       Atomic Center    2 is at  -3.018979  4.010350 -0.736681
       Atomic Center    3 is at  -2.122058  4.820240 -0.029791
       Atomic Center    4 is at  -0.890608  4.299450  0.376239
       Atomic Center    5 is at  -0.521319  2.986600  0.094779
       Atomic Center    6 is at  -1.413959  2.167380 -0.613281
       Atomic Center    7 is at  -2.651479  2.683030 -1.015851
       Atomic Center    8 is at  -1.037610  0.741810 -0.991141
       Atomic Center    9 is at  -0.375510 -0.032620  0.079379
       Atomic Center   10 is at  -1.076750 -0.581950  1.135309
       Atomic Center   11 is at  -0.544980 -1.209010  2.040659
       Atomic Center   12 is at  -2.609600 -0.423510  1.137649
       Atomic Center   13 is at  -3.261950 -1.403369  0.285619
       Atomic Center   14 is at  -3.980990 -1.002989 -0.807951
       Atomic Center   15 is at  -4.491761 -2.035019 -1.390691
       Atomic Center   16 is at  -4.121691 -3.161969 -0.683681
       Atomic Center   17 is at  -4.420141 -4.520709 -0.895291
       Atomic Center   18 is at  -3.892022 -5.435499  0.004339
       Atomic Center   19 is at  -3.078832 -5.022060  1.092039
       Atomic Center   20 is at  -2.769861 -3.686800  1.318249
       Atomic Center   21 is at  -3.317341 -2.766879  0.406599
       Atomic Center   22 is at   1.045760 -0.238371  0.004769
       Atomic Center   23 is at   1.617110 -0.752221 -1.167141
       Atomic Center   24 is at   2.997000 -0.929482 -1.263391
       Atomic Center   25 is at   3.847430 -0.616242 -0.188551
       Atomic Center   26 is at   3.257750 -0.117932  0.987999
       Atomic Center   27 is at   1.880390  0.069179  1.088099
       Atomic Center   28 is at   5.314700 -0.809242 -0.290531
       Atomic Center   29 is at   6.022970 -0.533393 -1.471781
       Atomic Center   30 is at   7.401640 -0.735293 -1.506581
       Atomic Center   31 is at   8.039120 -1.204413 -0.354911
       Atomic Center   32 is at   7.390620 -1.482153  0.784429
       Atomic Center   33 is at   6.067800 -1.288423  0.799529
       Atomic Center   34 is at   0.222872  5.332709  1.267569
       Atomic Center   35 is at  -5.168419  3.847081 -0.965791
       Atomic Center   36 is at  -4.584468  5.514761 -0.727271
       Atomic Center   37 is at  -4.357708  4.699451 -2.291761
       Atomic Center   38 is at  -2.377608  5.852810  0.212229
       Atomic Center   39 is at   0.447551  2.611769  0.423759
       Atomic Center   40 is at  -3.351399  2.032621 -1.547971
       Atomic Center   41 is at  -1.928400  0.210020 -1.350201
       Atomic Center   42 is at  -0.333500  0.773140 -1.833481
       Atomic Center   43 is at  -2.921990 -0.580980  2.179099
       Atomic Center   44 is at  -2.951420  0.563560  0.805759
       Atomic Center   45 is at  -5.042652 -4.827159 -1.737141
       Atomic Center   46 is at  -4.098982 -6.499919 -0.123921
       Atomic Center   47 is at  -2.678052 -5.780530  1.768089
       Atomic Center   48 is at  -2.122771 -3.365360  2.134809
       Atomic Center   49 is at   0.978600 -1.038501 -2.005221
       Atomic Center   50 is at   3.413960 -1.354672 -2.178571
       Atomic Center   51 is at   3.889980  0.156518  1.834559
       Atomic Center   52 is at   1.449980  0.456519  2.010439
       Atomic Center   53 is at   5.499670 -0.141732 -2.347141
       Atomic Center   54 is at   7.978000 -0.521323 -2.409001
       Atomic Center   55 is at   9.122330 -1.365094 -0.345361
       Atomic Center   56 is at   5.560040 -1.548922  1.734209
   30876 points will be used for fitting atomic charges
 Fitting point charges to electrostatic potential
 Charges from ESP fit, RMS=   0.00405 RRMS=   0.32697:
 Charge=   0.00000 Dipole=    -1.0540     0.5213    -2.3392 Tot=     2.6181
              1
     1  C   -0.122962
     2  C    0.118721
     3  C   -0.169274
     4  C    0.053217
     5  C   -0.016903
     6  C   -0.060000
     7  C   -0.106879
     8  C    0.262289
     9  N   -0.424175
    10  C    0.539404
    11  O   -0.528621
    12  C    0.083946
    13  N    0.149362
    14  N   -0.105038
    15  N   -0.395034
    16  C    0.428436
    17  C   -0.276290
    18  C   -0.041981
    19  C   -0.111533
    20  C   -0.146109
    21  C   -0.056795
    22  C    0.287151
    23  C   -0.209318
    24  C   -0.068554
    25  C    0.043138
    26  C   -0.127446
    27  C   -0.113173
    28  C   -0.139489
    29  C    0.089496
    30  C   -0.308856
    31  C    0.356162
    32  N   -0.540622
    33  C    0.321413
    34  Cl  -0.120433
    35  H    0.055572
    36  H    0.043508
    37  H    0.048084
    38  H    0.118246
    39  H    0.022588
    40  H    0.046855
    41  H    0.007832
    42  H   -0.000810
    43  H    0.036131
    44  H   -0.035389
    45  H    0.139742
    46  H    0.087902
    47  H    0.100683
    48  H    0.136214
    49  H    0.124311
    50  H    0.081066
    51  H    0.093742
    52  H    0.142279
    53  H    0.061045
    54  H    0.119539
    55  H    0.009462
    56  H    0.018150
 Charges from ESP fit with hydrogens summed into heavy atoms:
              1
     1  C    0.024202
     2  C    0.118721
     3  C   -0.051029
     4  C    0.053217
     5  C    0.005685
     6  C   -0.060000
     7  C   -0.060024
     8  C    0.269311
     9  N   -0.424175
    10  C    0.539404
    11  O   -0.528621
    12  C    0.084689
    13  N    0.149362
    14  N   -0.105038
    15  N   -0.395034
    16  C    0.428436
    17  C   -0.136548
    18  C    0.045921
    19  C   -0.010850
    20  C   -0.009896
    21  C   -0.056795
    22  C    0.287151
    23  C   -0.085007
    24  C    0.012512
    25  C    0.043138
    26  C   -0.033704
    27  C    0.029106
    28  C   -0.139489
    29  C    0.150540
    30  C   -0.189317
    31  C    0.365624
    32  N   -0.540622
    33  C    0.339563
    34  Cl  -0.120433
    35  H    0.000000
    36  H    0.000000
    37  H    0.000000
    38  H    0.000000
    39  H    0.000000
    40  H    0.000000
    41  H    0.000000
    42  H    0.000000
    43  H    0.000000
    44  H    0.000000
    45  H    0.000000
    46  H    0.000000
    47  H    0.000000
    48  H    0.000000
    49  H    0.000000
    50  H    0.000000
    51  H    0.000000
    52  H    0.000000
    53  H    0.000000
    54  H    0.000000
    55  H    0.000000
    56  H    0.000000
 -----------------------------------------------------------------

              Electrostatic Properties (Atomic Units)

 -----------------------------------------------------------------
    Center     Electric         -------- Electric Field --------
               Potential          X             Y             Z
 -----------------------------------------------------------------
    1 Atom    -14.738843
    2 Atom    -14.727955
    3 Atom    -14.740027
    4 Atom    -14.688958
    5 Atom    -14.739044
    6 Atom    -14.727502
    7 Atom    -14.744833
    8 Atom    -14.690989
    9 Atom    -18.315136
   10 Atom    -14.634128
   11 Atom    -22.361546
   12 Atom    -14.683916
   13 Atom    -18.281272
   14 Atom    -18.317641
   15 Atom    -18.357715
   16 Atom    -14.727516
   17 Atom    -14.740199
   18 Atom    -14.744019
   19 Atom    -14.739968
   20 Atom    -14.738129
   21 Atom    -14.706616
   22 Atom    -14.698953
   23 Atom    -14.738340
   24 Atom    -14.739534
   25 Atom    -14.731863
   26 Atom    -14.741995
   27 Atom    -14.742555
   28 Atom    -14.733200
   29 Atom    -14.733626
   30 Atom    -14.742392
   31 Atom    -14.718580
   32 Atom    -18.383506
   33 Atom    -14.718570
   34 Atom    -64.407382
   35 Atom     -1.089788
   36 Atom     -1.091464
   37 Atom     -1.088260
   38 Atom     -1.077283
   39 Atom     -1.075336
   40 Atom     -1.082939
   41 Atom     -1.078797
   42 Atom     -1.070340
   43 Atom     -1.067461
   44 Atom     -1.058326
   45 Atom     -1.081614
   46 Atom     -1.088752
   47 Atom     -1.087183
   48 Atom     -1.080321
   49 Atom     -1.074730
   50 Atom     -1.080922
   51 Atom     -1.084708
   52 Atom     -1.085011
   53 Atom     -1.076456
   54 Atom     -1.079182
   55 Atom     -1.092763
   56 Atom     -1.093402
 -----------------------------------------------------------------
 Leave Link  602 at Sat Sep 10 12:48:57 2022, MaxMem=  209715200 cpu:     131.0
 (Enter /opt/gaussian/l9999.exe)
 1\1\GINC-LQCAPF-6\SP\RB3LYP\CC-pVDZ\C27H22Cl1N5O1\LQCAPF-6\10-Sep-2022
 \0\\#p b3lyp/cc-pvdz pop=(chelpg,readradii)\\Mol33.log\\0,1\C,0,-4.351
 85,4.54885,-1.19859\C,0,-3.01898,4.01035,-0.73668\C,0,-2.12206,4.82024
 ,-0.02979\C,0,-0.89061,4.29945,0.37624\C,0,-0.52132,2.9866,0.09478\C,0
 ,-1.41396,2.16738,-0.61328\C,0,-2.65148,2.68303,-1.01585\C,0,-1.03761,
 0.74181,-0.99114\N,0,-0.37551,-0.03262,0.07938\C,0,-1.07675,-0.58195,1
 .13531\O,0,-0.54498,-1.20901,2.04066\C,0,-2.6096,-0.42351,1.13765\N,0,
 -3.26195,-1.40337,0.28562\N,0,-3.98099,-1.00299,-0.80795\N,0,-4.49176,
 -2.03502,-1.39069\C,0,-4.12169,-3.16197,-0.68368\C,0,-4.42014,-4.52071
 ,-0.89529\C,0,-3.89202,-5.4355,0.00434\C,0,-3.07883,-5.02206,1.09204\C
 ,0,-2.76986,-3.6868,1.31825\C,0,-3.31734,-2.76688,0.4066\C,0,1.04576,-
 0.23837,0.00477\C,0,1.61711,-0.75222,-1.16714\C,0,2.997,-0.92948,-1.26
 339\C,0,3.84743,-0.61624,-0.18855\C,0,3.25775,-0.11793,0.988\C,0,1.880
 39,0.06918,1.0881\C,0,5.3147,-0.80924,-0.29053\C,0,6.02297,-0.53339,-1
 .47178\C,0,7.40164,-0.73529,-1.50658\C,0,8.03912,-1.20441,-0.35491\N,0
 ,7.39062,-1.48215,0.78443\C,0,6.0678,-1.28842,0.79953\Cl,0,0.22287,5.3
 3271,1.26757\H,0,-5.16842,3.84708,-0.96579\H,0,-4.58447,5.51476,-0.727
 27\H,0,-4.35771,4.69945,-2.29176\H,0,-2.37761,5.85281,0.21223\H,0,0.44
 755,2.61177,0.42376\H,0,-3.3514,2.03262,-1.54797\H,0,-1.9284,0.21002,-
 1.3502\H,0,-0.3335,0.77314,-1.83348\H,0,-2.92199,-0.58098,2.1791\H,0,-
 2.95142,0.56356,0.80576\H,0,-5.04265,-4.82716,-1.73714\H,0,-4.09898,-6
 .49992,-0.12392\H,0,-2.67805,-5.78053,1.76809\H,0,-2.12277,-3.36536,2.
 13481\H,0,0.9786,-1.0385,-2.00522\H,0,3.41396,-1.35467,-2.17857\H,0,3.
 88998,0.15652,1.83456\H,0,1.44998,0.45652,2.01044\H,0,5.49967,-0.14173
 ,-2.34714\H,0,7.978,-0.52132,-2.409\H,0,9.12233,-1.36509,-0.34536\H,0,
 5.56004,-1.54892,1.73421\\Version=EM64L-G09RevC.01\State=1-A\HF=-1851.
 3931706\RMSD=5.895e-09\Dipole=-0.3793375,0.2728299,-0.8818877\Quadrupo
 le=-4.810465,3.7117132,1.0987518,-1.1347505,-13.6223009,-0.9227865\PG=
 C01 [X(C27H22Cl1N5O1)]\\@


 FOR THE NATURE OF THE CHEMICAL BOND
 IS THE PROBLEM AT THE HEART OF ALL CHEMISTRY.

                     -- BRYCE CRAWFORD, JR., 1953
 Job cpu time:  0 days  2 hours  5 minutes 53.2 seconds.
 File lengths (MBytes):  RWF=    191 Int=      0 D2E=      0 Chk=     13 Scr=      1
 Normal termination of Gaussian 09 at Sat Sep 10 12:48:57 2022.
