 Entering Gaussian System, Link 0=g09
 Input=Mol36.gjf
 Output=Mol36.log
 Initial command:
 /opt/gaussian/l1.exe /home/scr/lqcapf-6/Gau-577742.inp -scrdir=/home/scr/lqcapf-6/
 Entering Link 1 = /opt/gaussian/l1.exe PID=    577744.
  
 Copyright (c) 1988,1990,1992,1993,1995,1998,2003,2009,2011,
            Gaussian, Inc.  All Rights Reserved.
  
 This is part of the Gaussian(R) 09 program.  It is based on
 the Gaussian(R) 03 system (copyright 2003, Gaussian, Inc.),
 the Gaussian(R) 98 system (copyright 1998, Gaussian, Inc.),
 the Gaussian(R) 94 system (copyright 1995, Gaussian, Inc.),
 the Gaussian 92(TM) system (copyright 1992, Gaussian, Inc.),
 the Gaussian 90(TM) system (copyright 1990, Gaussian, Inc.),
 the Gaussian 88(TM) system (copyright 1988, Gaussian, Inc.),
 the Gaussian 86(TM) system (copyright 1986, Carnegie Mellon
 University), and the Gaussian 82(TM) system (copyright 1983,
 Carnegie Mellon University). Gaussian is a federally registered
 trademark of Gaussian, Inc.
  
 This software contains proprietary and confidential information,
 including trade secrets, belonging to Gaussian, Inc.
  
 This software is provided under written license and may be
 used, copied, transmitted, or stored only in accord with that
 written license.
  
 The following legend is applicable only to US Government
 contracts under FAR:
  
                    RESTRICTED RIGHTS LEGEND
  
 Use, reproduction and disclosure by the US Government is
 subject to restrictions as set forth in subparagraphs (a)
 and (c) of the Commercial Computer Software - Restricted
 Rights clause in FAR 52.227-19.
  
 Gaussian, Inc.
 340 Quinnipiac St., Bldg. 40, Wallingford CT 06492
  
  
 ---------------------------------------------------------------
 Warning -- This program may not be used in any manner that
 competes with the business of Gaussian, Inc. or will provide
 assistance to any competitor of Gaussian, Inc.  The licensee
 of this program is prohibited from giving any competitor of
 Gaussian, Inc. access to this program.  By using this program,
 the user acknowledges that Gaussian, Inc. is engaged in the
 business of creating and licensing software in the field of
 computational chemistry and represents and warrants to the
 licensee that it is not a competitor of Gaussian, Inc. and that
 it will not use this program in any manner prohibited above.
 ---------------------------------------------------------------
  

 Cite this work as:
 Gaussian 09, Revision C.01,
 M. J. Frisch, G. W. Trucks, H. B. Schlegel, G. E. Scuseria, 
 M. A. Robb, J. R. Cheeseman, G. Scalmani, V. Barone, B. Mennucci, 
 G. A. Petersson, H. Nakatsuji, M. Caricato, X. Li, H. P. Hratchian, 
 A. F. Izmaylov, J. Bloino, G. Zheng, J. L. Sonnenberg, M. Hada, 
 M. Ehara, K. Toyota, R. Fukuda, J. Hasegawa, M. Ishida, T. Nakajima, 
 Y. Honda, O. Kitao, H. Nakai, T. Vreven, J. A. Montgomery, Jr., 
 J. E. Peralta, F. Ogliaro, M. Bearpark, J. J. Heyd, E. Brothers, 
 K. N. Kudin, V. N. Staroverov, T. Keith, R. Kobayashi, J. Normand, 
 K. Raghavachari, A. Rendell, J. C. Burant, S. S. Iyengar, J. Tomasi, 
 M. Cossi, N. Rega, J. M. Millam, M. Klene, J. E. Knox, J. B. Cross, 
 V. Bakken, C. Adamo, J. Jaramillo, R. Gomperts, R. E. Stratmann, 
 O. Yazyev, A. J. Austin, R. Cammi, C. Pomelli, J. W. Ochterski, 
 R. L. Martin, K. Morokuma, V. G. Zakrzewski, G. A. Voth, 
 P. Salvador, J. J. Dannenberg, S. Dapprich, A. D. Daniels, 
 O. Farkas, J. B. Foresman, J. V. Ortiz, J. Cioslowski, 
 and D. J. Fox, Gaussian, Inc., Wallingford CT, 2010.
 
 ******************************************
 Gaussian 09:  EM64L-G09RevC.01 23-Sep-2011
                10-Sep-2022 
 ******************************************
 %nprocshared=8
 Will use up to    8 processors via shared memory.
 %mem=1600MB
 ---------------------------------------
 #p b3lyp/cc-pvdz pop=(chelpg,readradii)
 ---------------------------------------
 1/38=1/1;
 2/12=2,17=6,18=5,40=1/2;
 3/5=16,11=2,16=1,25=1,30=1,74=-5/1,2,3;
 4//1;
 5/5=2,38=5/2;
 6/7=2,8=2,9=2,10=2,15=8,20=103,28=1/1,2;
 99/5=1,9=1/99;
 Leave Link    1 at Sat Sep 10 13:18:29 2022, MaxMem=  209715200 cpu:       0.2
 (Enter /opt/gaussian/l101.exe)
 ---------
 Mol36.log
 ---------
 Charge =  0 Multiplicity = 1
 Symbolic Z-Matrix:
 Cl                   -2.52942   6.01025  -0.36921 
 C                    -1.81692   4.50877   0.20483 
 C                    -1.79818   4.23772   1.57578 
 C                    -1.23177   3.03882   2.01019 
 C                    -0.69193   2.1276    1.09565 
 C                    -0.71346   2.40779  -0.27638 
 C                    -1.28629   3.60988  -0.71944 
 C                    -0.11824   1.46549  -1.3179 
 N                     0.2429    0.12401  -0.84947 
 C                    -0.72198  -0.85936  -0.66319 
 O                    -0.48291  -1.95795  -0.19785 
 C                    -2.15796  -0.48372  -1.08565 
 N                    -3.06601  -1.59326  -0.95045 
 N                    -3.55401  -2.19484  -2.07945 
 N                    -4.35155  -3.14999  -1.74733 
 C                    -4.41189  -3.20879  -0.36803 
 C                    -5.14049  -4.0591    0.48244 
 C                    -5.00314  -3.86631   1.84981 
 C                    -4.15722  -2.85385   2.37062 
 C                    -3.42673  -2.00807   1.54564 
 C                    -3.57388  -2.20471   0.16275 
 C                     1.62712  -0.14518  -0.57019 
 C                     2.43839   0.85381  -0.00943 
 C                     3.79382   0.62292   0.22414 
 C                     4.39251  -0.60876  -0.09066 
 C                     3.56556  -1.60097  -0.65067 
 C                     2.21112  -1.38228  -0.88791 
 C                     5.81994  -0.85811   0.15241 
 C                     6.85083   0.072     0.26152 
 N                     7.98781  -0.63602   0.48492 
 N                     7.79015  -1.967     0.53544 
 C                     6.48222  -2.10791   0.33256 
 H                    -2.22197   4.95254   2.28129 
 H                    -1.21021   2.81152   3.07815 
 H                    -0.25066   1.19612   1.45373 
 H                    -1.32216   3.84985  -1.78412 
 H                    -0.81343   1.38493  -2.16769 
 H                     0.79576   1.91475  -1.73201 
 H                    -2.51949   0.37546  -0.49856 
 H                    -2.18897  -0.20315  -2.14793 
 H                    -5.78521  -4.83533   0.06767 
 H                    -5.55119  -4.50575   2.54475 
 H                    -4.07314  -2.7421    3.45393 
 H                    -2.76234  -1.24649   1.95468 
 H                     2.01385   1.81883   0.27082 
 H                     4.38825   1.41342   0.6872 
 H                     3.99483  -2.5648   -0.93118 
 H                     1.60597  -2.17546  -1.32011 
 H                     6.85986   1.15507   0.17505 
 H                     6.04548  -3.1046    0.34189 
 H                     8.92436  -0.27182   0.60284 
 
 NAtoms=     51 NQM=        0 NQMF=       0 NMMI=     51 NMMIF=      0
                NMic=       0 NMicF=      0.
                    Isotopes and Nuclear Properties:
 (Nuclear quadrupole moments (NQMom) in fm**2, nuclear magnetic moments (NMagM)
  in nuclear magnetons)

  Atom         1           2           3           4           5           6           7           8           9          10
 IAtWgt=          35          12          12          12          12          12          12          12          14          12
 AtmWgt=  34.9688527  12.0000000  12.0000000  12.0000000  12.0000000  12.0000000  12.0000000  12.0000000  14.0030740  12.0000000
 NucSpn=           3           0           0           0           0           0           0           0           2           0
 AtZEff=   0.0000000   0.0000000   0.0000000   0.0000000   0.0000000   0.0000000   0.0000000   0.0000000   0.0000000   0.0000000
 NQMom=   -8.1650000   0.0000000   0.0000000   0.0000000   0.0000000   0.0000000   0.0000000   0.0000000   2.0440000   0.0000000
 NMagM=    0.8218740   0.0000000   0.0000000   0.0000000   0.0000000   0.0000000   0.0000000   0.0000000   0.4037610   0.0000000

  Atom        11          12          13          14          15          16          17          18          19          20
 IAtWgt=          16          12          14          14          14          12          12          12          12          12
 AtmWgt=  15.9949146  12.0000000  14.0030740  14.0030740  14.0030740  12.0000000  12.0000000  12.0000000  12.0000000  12.0000000
 NucSpn=           0           0           2           2           2           0           0           0           0           0
 AtZEff=   0.0000000   0.0000000   0.0000000   0.0000000   0.0000000   0.0000000   0.0000000   0.0000000   0.0000000   0.0000000
 NQMom=    0.0000000   0.0000000   2.0440000   2.0440000   2.0440000   0.0000000   0.0000000   0.0000000   0.0000000   0.0000000
 NMagM=    0.0000000   0.0000000   0.4037610   0.4037610   0.4037610   0.0000000   0.0000000   0.0000000   0.0000000   0.0000000

  Atom        21          22          23          24          25          26          27          28          29          30
 IAtWgt=          12          12          12          12          12          12          12          12          12          14
 AtmWgt=  12.0000000  12.0000000  12.0000000  12.0000000  12.0000000  12.0000000  12.0000000  12.0000000  12.0000000  14.0030740
 NucSpn=           0           0           0           0           0           0           0           0           0           2
 AtZEff=   0.0000000   0.0000000   0.0000000   0.0000000   0.0000000   0.0000000   0.0000000   0.0000000   0.0000000   0.0000000
 NQMom=    0.0000000   0.0000000   0.0000000   0.0000000   0.0000000   0.0000000   0.0000000   0.0000000   0.0000000   2.0440000
 NMagM=    0.0000000   0.0000000   0.0000000   0.0000000   0.0000000   0.0000000   0.0000000   0.0000000   0.0000000   0.4037610

  Atom        31          32          33          34          35          36          37          38          39          40
 IAtWgt=          14          12           1           1           1           1           1           1           1           1
 AtmWgt=  14.0030740  12.0000000   1.0078250   1.0078250   1.0078250   1.0078250   1.0078250   1.0078250   1.0078250   1.0078250
 NucSpn=           2           0           1           1           1           1           1           1           1           1
 AtZEff=   0.0000000   0.0000000   0.0000000   0.0000000   0.0000000   0.0000000   0.0000000   0.0000000   0.0000000   0.0000000
 NQMom=    2.0440000   0.0000000   0.0000000   0.0000000   0.0000000   0.0000000   0.0000000   0.0000000   0.0000000   0.0000000
 NMagM=    0.4037610   0.0000000   2.7928460   2.7928460   2.7928460   2.7928460   2.7928460   2.7928460   2.7928460   2.7928460

  Atom        41          42          43          44          45          46          47          48          49          50
 IAtWgt=           1           1           1           1           1           1           1           1           1           1
 AtmWgt=   1.0078250   1.0078250   1.0078250   1.0078250   1.0078250   1.0078250   1.0078250   1.0078250   1.0078250   1.0078250
 NucSpn=           1           1           1           1           1           1           1           1           1           1
 AtZEff=   0.0000000   0.0000000   0.0000000   0.0000000   0.0000000   0.0000000   0.0000000   0.0000000   0.0000000   0.0000000
 NQMom=    0.0000000   0.0000000   0.0000000   0.0000000   0.0000000   0.0000000   0.0000000   0.0000000   0.0000000   0.0000000
 NMagM=    2.7928460   2.7928460   2.7928460   2.7928460   2.7928460   2.7928460   2.7928460   2.7928460   2.7928460   2.7928460

  Atom        51
 IAtWgt=           1
 AtmWgt=   1.0078250
 NucSpn=           1
 AtZEff=   0.0000000
 NQMom=    0.0000000
 NMagM=    2.7928460
 Leave Link  101 at Sat Sep 10 13:18:29 2022, MaxMem=  209715200 cpu:       0.7
 (Enter /opt/gaussian/l202.exe)
 Stoichiometry    C24H19ClN6O
 Framework group  C1[X(C24H19ClN6O)]
 Deg. of freedom   147
 Full point group                 C1      NOp   1
 Largest Abelian subgroup         C1      NOp   1
 Largest concise Abelian subgroup C1      NOp   1
                         Standard orientation:                         
 ---------------------------------------------------------------------
 Center     Atomic      Atomic             Coordinates (Angstroms)
 Number     Number       Type             X           Y           Z
 ---------------------------------------------------------------------
      1         17           0       -2.529420    6.010250   -0.369210
      2          6           0       -1.816919    4.508770    0.204830
      3          6           0       -1.798179    4.237720    1.575780
      4          6           0       -1.231769    3.038820    2.010190
      5          6           0       -0.691929    2.127600    1.095650
      6          6           0       -0.713459    2.407790   -0.276380
      7          6           0       -1.286289    3.609880   -0.719440
      8          6           0       -0.118239    1.465490   -1.317900
      9          7           0        0.242901    0.124010   -0.849470
     10          6           0       -0.721979   -0.859360   -0.663190
     11          8           0       -0.482909   -1.957950   -0.197850
     12          6           0       -2.157959   -0.483720   -1.085650
     13          7           0       -3.066009   -1.593260   -0.950450
     14          7           0       -3.554009   -2.194840   -2.079450
     15          7           0       -4.351549   -3.149991   -1.747330
     16          6           0       -4.411889   -3.208791   -0.368030
     17          6           0       -5.140489   -4.059101    0.482440
     18          6           0       -5.003139   -3.866311    1.849810
     19          6           0       -4.157219   -2.853850    2.370620
     20          6           0       -3.426729   -2.008070    1.545640
     21          6           0       -3.573879   -2.204710    0.162750
     22          6           0        1.627121   -0.145180   -0.570190
     23          6           0        2.438391    0.853810   -0.009430
     24          6           0        3.793821    0.622920    0.224140
     25          6           0        4.392511   -0.608760   -0.090660
     26          6           0        3.565561   -1.600970   -0.650670
     27          6           0        2.211121   -1.382280   -0.887910
     28          6           0        5.819941   -0.858110    0.152410
     29          6           0        6.850831    0.072001    0.261520
     30          7           0        7.987811   -0.636019    0.484920
     31          7           0        7.790151   -1.966999    0.535440
     32          6           0        6.482221   -2.107909    0.332560
     33          1           0       -2.221970    4.952540    2.281290
     34          1           0       -1.210209    2.811520    3.078150
     35          1           0       -0.250659    1.196120    1.453730
     36          1           0       -1.322159    3.849850   -1.784120
     37          1           0       -0.813429    1.384930   -2.167690
     38          1           0        0.795761    1.914750   -1.732010
     39          1           0       -2.519489    0.375460   -0.498560
     40          1           0       -2.188969   -0.203150   -2.147930
     41          1           0       -5.785209   -4.835331    0.067670
     42          1           0       -5.551189   -4.505751    2.544750
     43          1           0       -4.073139   -2.742100    3.453930
     44          1           0       -2.762339   -1.246490    1.954680
     45          1           0        2.013851    1.818830    0.270820
     46          1           0        4.388251    1.413420    0.687200
     47          1           0        3.994831   -2.564800   -0.931180
     48          1           0        1.605971   -2.175460   -1.320110
     49          1           0        6.859861    1.155071    0.175050
     50          1           0        6.045481   -3.104599    0.341890
     51          1           0        8.924361   -0.271819    0.602840
 ---------------------------------------------------------------------
 Rotational constants (GHZ):      0.1266537      0.0711825      0.0501016
 Leave Link  202 at Sat Sep 10 13:18:29 2022, MaxMem=  209715200 cpu:       0.0
 (Enter /opt/gaussian/l301.exe)
 Standard basis: CC-pVDZ (5D, 7F)
 Ernie: Thresh=  0.10000D-02 Tol=  0.10000D-05 Strict=F.
 Ernie:  72 primitive shells out of 827 were deleted.
 There are   547 symmetry adapted basis functions of A   symmetry.
 Integral buffers will be    131072 words long.
 Raffenetti 2 integral format.
 Two-electron integral symmetry is turned on.
   547 basis functions,  1227 primitive gaussians,   579 cartesian basis functions
   115 alpha electrons      115 beta electrons
       nuclear repulsion energy      3020.7857111948 Hartrees.
 IExCor=  402 DFT=T Ex+Corr=B3LYP ExCW=0 ScaHFX=  0.200000
 ScaDFX=  0.800000  0.720000  1.000000  0.810000 ScalE2=  1.000000  1.000000
 IRadAn=      0 IRanWt=     -1 IRanGd=            0 ICorTp=0
 NAtoms=   51 NActive=   51 NUniq=   51 SFac= 1.00D+00 NAtFMM=   60 NAOKFM=F Big=F
 Leave Link  301 at Sat Sep 10 13:18:29 2022, MaxMem=  209715200 cpu:       0.3
 (Enter /opt/gaussian/l302.exe)
 NPDir=0 NMtPBC=     1 NCelOv=     1 NCel=       1 NClECP=     1 NCelD=      1
         NCelK=      1 NCelE2=     1 NClLst=     1 CellRange=     0.0.
 One-electron integrals computed using PRISM.
 NBasis=   547 RedAO= T  NBF=   547
 NBsUse=   547 1.00D-06 NBFU=   547
 Precomputing XC quadrature grid using
 IXCGrd= 2 IRadAn=           0 IRanWt=          -1 IRanGd=           0 AccXCQ= 0.00D+00.
 NRdTot=    3288 NPtTot=      420158 NUsed=      443850 NTot=      443882
 NSgBfM=   552   552   554   555   555 NAtAll=    51    51.
 Leave Link  302 at Sat Sep 10 13:18:30 2022, MaxMem=  209715200 cpu:       8.3
 (Enter /opt/gaussian/l303.exe)
 DipDrv:  MaxL=1.
 Leave Link  303 at Sat Sep 10 13:18:30 2022, MaxMem=  209715200 cpu:       1.2
 (Enter /opt/gaussian/l401.exe)
 Harris functional with IExCor=  402 diagonalized for initial guess.
 ExpMin= 1.22D-01 ExpMax= 1.28D+05 ExpMxC= 1.24D+03 IAcc=2 IRadAn=         4 AccDes= 0.00D+00
 HarFok:  IExCor=  402 AccDes= 0.00D+00 IRadAn=         4 IDoV= 1
 ScaDFX=  1.000000  1.000000  1.000000  1.000000
 FoFCou: FMM=F IPFlag=           0 FMFlag=      100000 FMFlg1=           0
         NFxFlg=           0 DoJE=T BraDBF=F KetDBF=T FulRan=T
         Omega=  0.000000  0.000000  1.000000  0.000000  0.000000 ICntrl=     500 IOpCl=  0
         NMat0=    1 NMatS0=    1 NMatT0=    0 NMatD0=    1 NMtDS0=    0 NMtDT0=    0
         I1Cent=           4 NGrid=           0.
 Petite list used in FoFCou.
 Harris En= -1789.69430393890    
 Initial guess orbital symmetries:
       Occupied  (A) (A) (A) (A) (A) (A) (A) (A) (A) (A) (A) (A)
                 (A) (A) (A) (A) (A) (A) (A) (A) (A) (A) (A) (A)
                 (A) (A) (A) (A) (A) (A) (A) (A) (A) (A) (A) (A)
                 (A) (A) (A) (A) (A) (A) (A) (A) (A) (A) (A) (A)
                 (A) (A) (A) (A) (A) (A) (A) (A) (A) (A) (A) (A)
                 (A) (A) (A) (A) (A) (A) (A) (A) (A) (A) (A) (A)
                 (A) (A) (A) (A) (A) (A) (A) (A) (A) (A) (A) (A)
                 (A) (A) (A) (A) (A) (A) (A) (A) (A) (A) (A) (A)
                 (A) (A) (A) (A) (A) (A) (A) (A) (A) (A) (A) (A)
                 (A) (A) (A) (A) (A) (A) (A)
       Virtual   (A) (A) (A) (A) (A) (A) (A) (A) (A) (A) (A) (A)
                 (A) (A) (A) (A) (A) (A) (A) (A) (A) (A) (A) (A)
                 (A) (A) (A) (A) (A) (A) (A) (A) (A) (A) (A) (A)
                 (A) (A) (A) (A) (A) (A) (A) (A) (A) (A) (A) (A)
                 (A) (A) (A) (A) (A) (A) (A) (A) (A) (A) (A) (A)
                 (A) (A) (A) (A) (A) (A) (A) (A) (A) (A) (A) (A)
                 (A) (A) (A) (A) (A) (A) (A) (A) (A) (A) (A) (A)
                 (A) (A) (A) (A) (A) (A) (A) (A) (A) (A) (A) (A)
                 (A) (A) (A) (A) (A) (A) (A) (A) (A) (A) (A) (A)
                 (A) (A) (A) (A) (A) (A) (A) (A) (A) (A) (A) (A)
                 (A) (A) (A) (A) (A) (A) (A) (A) (A) (A) (A) (A)
                 (A) (A) (A) (A) (A) (A) (A) (A) (A) (A) (A) (A)
                 (A) (A) (A) (A) (A) (A) (A) (A) (A) (A) (A) (A)
                 (A) (A) (A) (A) (A) (A) (A) (A) (A) (A) (A) (A)
                 (A) (A) (A) (A) (A) (A) (A) (A) (A) (A) (A) (A)
                 (A) (A) (A) (A) (A) (A) (A) (A) (A) (A) (A) (A)
                 (A) (A) (A) (A) (A) (A) (A) (A) (A) (A) (A) (A)
                 (A) (A) (A) (A) (A) (A) (A) (A) (A) (A) (A) (A)
                 (A) (A) (A) (A) (A) (A) (A) (A) (A) (A) (A) (A)
                 (A) (A) (A) (A) (A) (A) (A) (A) (A) (A) (A) (A)
                 (A) (A) (A) (A) (A) (A) (A) (A) (A) (A) (A) (A)
                 (A) (A) (A) (A) (A) (A) (A) (A) (A) (A) (A) (A)
                 (A) (A) (A) (A) (A) (A) (A) (A) (A) (A) (A) (A)
                 (A) (A) (A) (A) (A) (A) (A) (A) (A) (A) (A) (A)
                 (A) (A) (A) (A) (A) (A) (A) (A) (A) (A) (A) (A)
                 (A) (A) (A) (A) (A) (A) (A) (A) (A) (A) (A) (A)
                 (A) (A) (A) (A) (A) (A) (A) (A) (A) (A) (A) (A)
                 (A) (A) (A) (A) (A) (A) (A) (A) (A) (A) (A) (A)
                 (A) (A) (A) (A) (A) (A) (A) (A) (A) (A) (A) (A)
                 (A) (A) (A) (A) (A) (A) (A) (A) (A) (A) (A) (A)
                 (A) (A) (A) (A) (A) (A) (A) (A) (A) (A) (A) (A)
                 (A) (A) (A) (A) (A) (A) (A) (A) (A) (A) (A) (A)
                 (A) (A) (A) (A) (A) (A) (A) (A) (A) (A) (A) (A)
                 (A) (A) (A) (A) (A) (A) (A) (A) (A) (A) (A) (A)
                 (A) (A) (A) (A) (A) (A) (A) (A) (A) (A) (A) (A)
                 (A) (A) (A) (A) (A) (A) (A) (A) (A) (A) (A) (A)
 The electronic state of the initial guess is 1-A.
 Leave Link  401 at Sat Sep 10 13:18:34 2022, MaxMem=  209715200 cpu:      25.5
 (Enter /opt/gaussian/l502.exe)
 Closed shell SCF:
 Requested convergence on RMS density matrix=1.00D-08 within 128 cycles.
 Requested convergence on MAX density matrix=1.00D-06.
 Requested convergence on             energy=1.00D-06.
 No special actions if energy rises.
 Using DIIS extrapolation, IDIIS=  1040.
 Integral symmetry usage will be decided dynamically.
       443378 words used for storage of precomputed grid.
 IEnd=     1476253 IEndB=     1476253 NGot=   209715200 MDV=   208591408
 LenX=   208591408 LenY=   208255588
 Fock matrices will be formed incrementally for  20 cycles.
 Integral accuracy reduced to 1.0D-05 until final iterations.

 Cycle   1  Pass 0  IDiag  1:
 FoFCou: FMM=F IPFlag=           0 FMFlag=      100000 FMFlg1=           0
         NFxFlg=           0 DoJE=F BraDBF=F KetDBF=F FulRan=T
         Omega=  0.000000  0.000000  1.000000  0.000000  0.000000 ICntrl=       0 IOpCl=  0
         NMat0=    1 NMatS0=    1 NMatT0=    0 NMatD0=    1 NMtDS0=    0 NMtDT0=    0
         I1Cent=           0 NGrid=           0.
 Symmetry not used in FoFCou.
 E= -1789.39931319809    
 DIIS: error= 1.91D-02 at cycle   1 NSaved=   1.
 NSaved= 1 IEnMin= 1 EnMin= -1789.39931319809     IErMin= 1 ErrMin= 1.91D-02
 ErrMax= 1.91D-02 EMaxC= 1.00D-01 BMatC= 5.37D-01 BMatP= 5.37D-01
 IDIUse=3 WtCom= 8.09D-01 WtEn= 1.91D-01
 Coeff-Com:  0.100D+01
 Coeff-En:   0.100D+01
 Coeff:      0.100D+01
 Gap=     0.357 Goal=   None    Shift=    0.000
 GapD=    0.357 DampG=1.000 DampE=0.500 DampFc=0.5000 IDamp=-1.
 Damping current iteration by 5.00D-01
 RMSDP=3.97D-03 MaxDP=2.14D-01              OVMax= 2.96D-01

 Cycle   2  Pass 0  IDiag  1:
 RMSU=  1.38D-03    CP:  9.77D-01
 E= -1789.54140238863     Delta-E=       -0.142089190533 Rises=F Damp=T
 DIIS: error= 8.77D-03 at cycle   2 NSaved=   2.
 NSaved= 2 IEnMin= 2 EnMin= -1789.54140238863     IErMin= 2 ErrMin= 8.77D-03
 ErrMax= 8.77D-03 EMaxC= 1.00D-01 BMatC= 1.14D-01 BMatP= 5.37D-01
 IDIUse=3 WtCom= 9.12D-01 WtEn= 8.77D-02
 Coeff-Com:  0.247D+00 0.753D+00
 Coeff-En:   0.365D+00 0.635D+00
 Coeff:      0.258D+00 0.742D+00
 Gap=     0.214 Goal=   None    Shift=    0.000
 RMSDP=1.39D-03 MaxDP=7.40D-02 DE=-1.42D-01 OVMax= 3.36D-01

 Cycle   3  Pass 0  IDiag  1:
 RMSU=  9.42D-04    CP:  9.62D-01  8.30D-01
 E= -1789.88951064392     Delta-E=       -0.348108255293 Rises=F Damp=F
 DIIS: error= 7.88D-03 at cycle   3 NSaved=   3.
 NSaved= 3 IEnMin= 3 EnMin= -1789.88951064392     IErMin= 3 ErrMin= 7.88D-03
 ErrMax= 7.88D-03 EMaxC= 1.00D-01 BMatC= 1.06D-01 BMatP= 1.14D-01
 IDIUse=3 WtCom= 9.21D-01 WtEn= 7.88D-02
 Coeff-Com:  0.661D-01 0.479D+00 0.455D+00
 Coeff-En:   0.000D+00 0.000D+00 0.100D+01
 Coeff:      0.609D-01 0.441D+00 0.498D+00
 Gap=     0.183 Goal=   None    Shift=    0.000
 RMSDP=7.77D-04 MaxDP=5.98D-02 DE=-3.48D-01 OVMax= 7.91D-02

 Cycle   4  Pass 0  IDiag  1:
 RMSU=  3.79D-04    CP:  9.66D-01  9.10D-01  5.97D-01
 E= -1789.97535201966     Delta-E=       -0.085841375743 Rises=F Damp=F
 DIIS: error= 2.96D-03 at cycle   4 NSaved=   4.
 NSaved= 4 IEnMin= 4 EnMin= -1789.97535201966     IErMin= 4 ErrMin= 2.96D-03
 ErrMax= 2.96D-03 EMaxC= 1.00D-01 BMatC= 1.53D-02 BMatP= 1.06D-01
 IDIUse=3 WtCom= 9.70D-01 WtEn= 2.96D-02
 Coeff-Com:  0.123D-01 0.132D+00 0.299D+00 0.557D+00
 Coeff-En:   0.000D+00 0.000D+00 0.144D+00 0.856D+00
 Coeff:      0.119D-01 0.128D+00 0.294D+00 0.566D+00
 Gap=     0.178 Goal=   None    Shift=    0.000
 RMSDP=2.89D-04 MaxDP=1.67D-02 DE=-8.58D-02 OVMax= 2.97D-02

 Cycle   5  Pass 0  IDiag  1:
 RMSU=  1.27D-04    CP:  9.64D-01  8.87D-01  6.83D-01  6.46D-01
 E= -1789.98798527621     Delta-E=       -0.012633256547 Rises=F Damp=F
 DIIS: error= 1.16D-03 at cycle   5 NSaved=   5.
 NSaved= 5 IEnMin= 5 EnMin= -1789.98798527621     IErMin= 5 ErrMin= 1.16D-03
 ErrMax= 1.16D-03 EMaxC= 1.00D-01 BMatC= 1.61D-03 BMatP= 1.53D-02
 IDIUse=3 WtCom= 9.88D-01 WtEn= 1.16D-02
 Coeff-Com:  0.795D-03 0.294D-01 0.130D+00 0.348D+00 0.492D+00
 Coeff-En:   0.000D+00 0.000D+00 0.000D+00 0.711D-01 0.929D+00
 Coeff:      0.786D-03 0.291D-01 0.128D+00 0.345D+00 0.497D+00
 Gap=     0.176 Goal=   None    Shift=    0.000
 RMSDP=1.05D-04 MaxDP=4.86D-03 DE=-1.26D-02 OVMax= 1.40D-02

 Cycle   6  Pass 0  IDiag  1:
 RMSU=  3.94D-05    CP:  9.64D-01  8.91D-01  6.88D-01  7.02D-01  5.37D-01
 E= -1789.98956456176     Delta-E=       -0.001579285548 Rises=F Damp=F
 DIIS: error= 5.49D-04 at cycle   6 NSaved=   6.
 NSaved= 6 IEnMin= 6 EnMin= -1789.98956456176     IErMin= 6 ErrMin= 5.49D-04
 ErrMax= 5.49D-04 EMaxC= 1.00D-01 BMatC= 1.78D-04 BMatP= 1.61D-03
 IDIUse=3 WtCom= 9.95D-01 WtEn= 5.49D-03
 Coeff-Com: -0.748D-03-0.297D-04 0.378D-01 0.130D+00 0.299D+00 0.534D+00
 Coeff-En:   0.000D+00 0.000D+00 0.000D+00 0.000D+00 0.809D-01 0.919D+00
 Coeff:     -0.744D-03-0.295D-04 0.376D-01 0.130D+00 0.298D+00 0.536D+00
 Gap=     0.174 Goal=   None    Shift=    0.000
 RMSDP=3.21D-05 MaxDP=1.55D-03 DE=-1.58D-03 OVMax= 4.09D-03

 Cycle   7  Pass 0  IDiag  1:
 RMSU=  1.36D-05    CP:  9.64D-01  8.91D-01  6.89D-01  7.03D-01  6.04D-01
                    CP:  5.94D-01
 E= -1789.98974721254     Delta-E=       -0.000182650780 Rises=F Damp=F
 DIIS: error= 1.22D-04 at cycle   7 NSaved=   7.
 NSaved= 7 IEnMin= 7 EnMin= -1789.98974721254     IErMin= 7 ErrMin= 1.22D-04
 ErrMax= 1.22D-04 EMaxC= 1.00D-01 BMatC= 1.58D-05 BMatP= 1.78D-04
 IDIUse=3 WtCom= 9.99D-01 WtEn= 1.22D-03
 Coeff-Com: -0.325D-03-0.276D-02 0.970D-02 0.412D-01 0.123D+00 0.307D+00
 Coeff-Com:  0.522D+00
 Coeff-En:   0.000D+00 0.000D+00 0.000D+00 0.000D+00 0.000D+00 0.672D-02
 Coeff-En:   0.993D+00
 Coeff:     -0.325D-03-0.276D-02 0.968D-02 0.411D-01 0.123D+00 0.306D+00
 Coeff:      0.522D+00
 Gap=     0.175 Goal=   None    Shift=    0.000
 RMSDP=8.84D-06 MaxDP=4.23D-04 DE=-1.83D-04 OVMax= 9.02D-04

 Initial convergence to 1.0D-05 achieved.  Increase integral accuracy.
 Cycle   8  Pass 1  IDiag  1:
 E= -1789.98980387613     Delta-E=       -0.000056663593 Rises=F Damp=F
 DIIS: error= 1.90D-04 at cycle   1 NSaved=   1.
 NSaved= 1 IEnMin= 1 EnMin= -1789.98980387613     IErMin= 1 ErrMin= 1.90D-04
 ErrMax= 1.90D-04 EMaxC= 1.00D-01 BMatC= 1.22D-05 BMatP= 1.22D-05
 IDIUse=3 WtCom= 9.98D-01 WtEn= 1.90D-03
 Coeff-Com:  0.100D+01
 Coeff-En:   0.100D+01
 Coeff:      0.100D+01
 Gap=     0.175 Goal=   None    Shift=    0.000
 RMSDP=8.84D-06 MaxDP=4.23D-04 DE=-5.67D-05 OVMax= 9.19D-04

 Cycle   9  Pass 1  IDiag  1:
 RMSU=  8.93D-05    CP:  1.00D+00
 E= -1789.98981165810     Delta-E=       -0.000007781966 Rises=F Damp=F
 DIIS: error= 5.28D-05 at cycle   2 NSaved=   2.
 NSaved= 2 IEnMin= 2 EnMin= -1789.98981165810     IErMin= 2 ErrMin= 5.28D-05
 ErrMax= 5.28D-05 EMaxC= 1.00D-01 BMatC= 4.21D-06 BMatP= 1.22D-05
 IDIUse=1 WtCom= 1.00D+00 WtEn= 0.00D+00
 Coeff-Com:  0.304D+00 0.696D+00
 Coeff:      0.304D+00 0.696D+00
 Gap=     0.175 Goal=   None    Shift=    0.000
 RMSDP=7.74D-06 MaxDP=5.02D-04 DE=-7.78D-06 OVMax= 1.33D-03

 Cycle  10  Pass 1  IDiag  1:
 RMSU=  5.44D-06    CP:  1.00D+00  1.01D+00
 E= -1789.98981000840     Delta-E=        0.000001649694 Rises=F Damp=F
 DIIS: error= 5.63D-05 at cycle   3 NSaved=   3.
 NSaved= 3 IEnMin= 2 EnMin= -1789.98981165810     IErMin= 2 ErrMin= 5.28D-05
 ErrMax= 5.63D-05 EMaxC= 1.00D-01 BMatC= 5.81D-06 BMatP= 4.21D-06
 IDIUse=1 WtCom= 1.00D+00 WtEn= 0.00D+00
 Coeff-Com:  0.189D-02 0.540D+00 0.458D+00
 Coeff:      0.189D-02 0.540D+00 0.458D+00
 Gap=     0.175 Goal=   None    Shift=    0.000
 RMSDP=4.47D-06 MaxDP=2.82D-04 DE= 1.65D-06 OVMax= 8.04D-04

 Cycle  11  Pass 1  IDiag  1:
 RMSU=  8.38D-07    CP:  1.00D+00  1.01D+00  4.46D-01
 E= -1789.98981567438     Delta-E=       -0.000005665976 Rises=F Damp=F
 DIIS: error= 1.59D-05 at cycle   4 NSaved=   4.
 NSaved= 4 IEnMin= 4 EnMin= -1789.98981567438     IErMin= 4 ErrMin= 1.59D-05
 ErrMax= 1.59D-05 EMaxC= 1.00D-01 BMatC= 1.48D-07 BMatP= 4.21D-06
 IDIUse=1 WtCom= 1.00D+00 WtEn= 0.00D+00
 Coeff-Com: -0.374D-02 0.352D+00 0.308D+00 0.343D+00
 Coeff:     -0.374D-02 0.352D+00 0.308D+00 0.343D+00
 Gap=     0.175 Goal=   None    Shift=    0.000
 RMSDP=7.63D-07 MaxDP=6.77D-05 DE=-5.67D-06 OVMax= 1.03D-04

 Cycle  12  Pass 1  IDiag  1:
 RMSU=  2.01D-07    CP:  1.00D+00  1.01D+00  4.67D-01  4.19D-01
 E= -1789.98981581229     Delta-E=       -0.000000137913 Rises=F Damp=F
 DIIS: error= 1.73D-06 at cycle   5 NSaved=   5.
 NSaved= 5 IEnMin= 5 EnMin= -1789.98981581229     IErMin= 5 ErrMin= 1.73D-06
 ErrMax= 1.73D-06 EMaxC= 1.00D-01 BMatC= 2.79D-09 BMatP= 1.48D-07
 IDIUse=1 WtCom= 1.00D+00 WtEn= 0.00D+00
 Coeff-Com: -0.224D-02 0.182D+00 0.160D+00 0.201D+00 0.460D+00
 Coeff:     -0.224D-02 0.182D+00 0.160D+00 0.201D+00 0.460D+00
 Gap=     0.175 Goal=   None    Shift=    0.000
 RMSDP=1.15D-07 MaxDP=7.41D-06 DE=-1.38D-07 OVMax= 1.58D-05

 Cycle  13  Pass 1  IDiag  1:
 RMSU=  6.70D-08    CP:  1.00D+00  1.01D+00  4.65D-01  4.29D-01  7.78D-01
 E= -1789.98981581469     Delta-E=       -0.000000002399 Rises=F Damp=F
 DIIS: error= 7.66D-07 at cycle   6 NSaved=   6.
 NSaved= 6 IEnMin= 6 EnMin= -1789.98981581469     IErMin= 6 ErrMin= 7.66D-07
 ErrMax= 7.66D-07 EMaxC= 1.00D-01 BMatC= 2.68D-10 BMatP= 2.79D-09
 IDIUse=1 WtCom= 1.00D+00 WtEn= 0.00D+00
 Coeff-Com: -0.930D-03 0.699D-01 0.613D-01 0.822D-01 0.275D+00 0.513D+00
 Coeff:     -0.930D-03 0.699D-01 0.613D-01 0.822D-01 0.275D+00 0.513D+00
 Gap=     0.175 Goal=   None    Shift=    0.000
 RMSDP=3.73D-08 MaxDP=2.21D-06 DE=-2.40D-09 OVMax= 5.91D-06

 Cycle  14  Pass 1  IDiag  1:
 RMSU=  2.01D-08    CP:  1.00D+00  1.01D+00  4.65D-01  4.36D-01  8.02D-01
                    CP:  7.74D-01
 E= -1789.98981581495     Delta-E=       -0.000000000256 Rises=F Damp=F
 DIIS: error= 1.95D-07 at cycle   7 NSaved=   7.
 NSaved= 7 IEnMin= 7 EnMin= -1789.98981581495     IErMin= 7 ErrMin= 1.95D-07
 ErrMax= 1.95D-07 EMaxC= 1.00D-01 BMatC= 2.32D-11 BMatP= 2.68D-10
 IDIUse=1 WtCom= 1.00D+00 WtEn= 0.00D+00
 Coeff-Com: -0.177D-03 0.114D-01 0.999D-02 0.157D-01 0.798D-01 0.269D+00
 Coeff-Com:  0.614D+00
 Coeff:     -0.177D-03 0.114D-01 0.999D-02 0.157D-01 0.798D-01 0.269D+00
 Coeff:      0.614D+00
 Gap=     0.175 Goal=   None    Shift=    0.000
 RMSDP=1.27D-08 MaxDP=7.15D-07 DE=-2.56D-10 OVMax= 1.88D-06

 Cycle  15  Pass 1  IDiag  1:
 RMSU=  6.07D-09    CP:  1.00D+00  1.01D+00  4.65D-01  4.35D-01  8.13D-01
                    CP:  8.09D-01  7.17D-01
 E= -1789.98981581497     Delta-E=       -0.000000000022 Rises=F Damp=F
 DIIS: error= 5.20D-08 at cycle   8 NSaved=   8.
 NSaved= 8 IEnMin= 8 EnMin= -1789.98981581497     IErMin= 8 ErrMin= 5.20D-08
 ErrMax= 5.20D-08 EMaxC= 1.00D-01 BMatC= 5.15D-12 BMatP= 2.32D-11
 IDIUse=1 WtCom= 1.00D+00 WtEn= 0.00D+00
 Coeff-Com:  0.188D-04-0.256D-02-0.226D-02-0.151D-02 0.107D-01 0.958D-01
 Coeff-Com:  0.378D+00 0.522D+00
 Coeff:      0.188D-04-0.256D-02-0.226D-02-0.151D-02 0.107D-01 0.958D-01
 Coeff:      0.378D+00 0.522D+00
 Gap=     0.175 Goal=   None    Shift=    0.000
 RMSDP=5.03D-09 MaxDP=3.14D-07 DE=-2.18D-11 OVMax= 7.53D-07

 SCF Done:  E(RB3LYP) =  -1789.98981581     A.U. after   15 cycles
             Convg  =    0.5032D-08             -V/T =  2.0055
 KE= 1.780239869651D+03 PE=-1.022536859195D+04 EE= 3.634353195287D+03
 Leave Link  502 at Sat Sep 10 13:31:45 2022, MaxMem=  209715200 cpu:    5754.9
 (Enter /opt/gaussian/l601.exe)
 Copying SCF densities to generalized density rwf, IOpCl= 0 IROHF=0.

 **********************************************************************

            Population analysis using the SCF density.

 **********************************************************************

 Orbital symmetries:
       Occupied  (A) (A) (A) (A) (A) (A) (A) (A) (A) (A) (A) (A)
                 (A) (A) (A) (A) (A) (A) (A) (A) (A) (A) (A) (A)
                 (A) (A) (A) (A) (A) (A) (A) (A) (A) (A) (A) (A)
                 (A) (A) (A) (A) (A) (A) (A) (A) (A) (A) (A) (A)
                 (A) (A) (A) (A) (A) (A) (A) (A) (A) (A) (A) (A)
                 (A) (A) (A) (A) (A) (A) (A) (A) (A) (A) (A) (A)
                 (A) (A) (A) (A) (A) (A) (A) (A) (A) (A) (A) (A)
                 (A) (A) (A) (A) (A) (A) (A) (A) (A) (A) (A) (A)
                 (A) (A) (A) (A) (A) (A) (A) (A) (A) (A) (A) (A)
                 (A) (A) (A) (A) (A) (A) (A)
       Virtual   (A) (A) (A) (A) (A) (A) (A) (A) (A) (A) (A) (A)
                 (A) (A) (A) (A) (A) (A) (A) (A) (A) (A) (A) (A)
                 (A) (A) (A) (A) (A) (A) (A) (A) (A) (A) (A) (A)
                 (A) (A) (A) (A) (A) (A) (A) (A) (A) (A) (A) (A)
                 (A) (A) (A) (A) (A) (A) (A) (A) (A) (A) (A) (A)
                 (A) (A) (A) (A) (A) (A) (A) (A) (A) (A) (A) (A)
                 (A) (A) (A) (A) (A) (A) (A) (A) (A) (A) (A) (A)
                 (A) (A) (A) (A) (A) (A) (A) (A) (A) (A) (A) (A)
                 (A) (A) (A) (A) (A) (A) (A) (A) (A) (A) (A) (A)
                 (A) (A) (A) (A) (A) (A) (A) (A) (A) (A) (A) (A)
                 (A) (A) (A) (A) (A) (A) (A) (A) (A) (A) (A) (A)
                 (A) (A) (A) (A) (A) (A) (A) (A) (A) (A) (A) (A)
                 (A) (A) (A) (A) (A) (A) (A) (A) (A) (A) (A) (A)
                 (A) (A) (A) (A) (A) (A) (A) (A) (A) (A) (A) (A)
                 (A) (A) (A) (A) (A) (A) (A) (A) (A) (A) (A) (A)
                 (A) (A) (A) (A) (A) (A) (A) (A) (A) (A) (A) (A)
                 (A) (A) (A) (A) (A) (A) (A) (A) (A) (A) (A) (A)
                 (A) (A) (A) (A) (A) (A) (A) (A) (A) (A) (A) (A)
                 (A) (A) (A) (A) (A) (A) (A) (A) (A) (A) (A) (A)
                 (A) (A) (A) (A) (A) (A) (A) (A) (A) (A) (A) (A)
                 (A) (A) (A) (A) (A) (A) (A) (A) (A) (A) (A) (A)
                 (A) (A) (A) (A) (A) (A) (A) (A) (A) (A) (A) (A)
                 (A) (A) (A) (A) (A) (A) (A) (A) (A) (A) (A) (A)
                 (A) (A) (A) (A) (A) (A) (A) (A) (A) (A) (A) (A)
                 (A) (A) (A) (A) (A) (A) (A) (A) (A) (A) (A) (A)
                 (A) (A) (A) (A) (A) (A) (A) (A) (A) (A) (A) (A)
                 (A) (A) (A) (A) (A) (A) (A) (A) (A) (A) (A) (A)
                 (A) (A) (A) (A) (A) (A) (A) (A) (A) (A) (A) (A)
                 (A) (A) (A) (A) (A) (A) (A) (A) (A) (A) (A) (A)
                 (A) (A) (A) (A) (A) (A) (A) (A) (A) (A) (A) (A)
                 (A) (A) (A) (A) (A) (A) (A) (A) (A) (A) (A) (A)
                 (A) (A) (A) (A) (A) (A) (A) (A) (A) (A) (A) (A)
                 (A) (A) (A) (A) (A) (A) (A) (A) (A) (A) (A) (A)
                 (A) (A) (A) (A) (A) (A) (A) (A) (A) (A) (A) (A)
                 (A) (A) (A) (A) (A) (A) (A) (A) (A) (A) (A) (A)
                 (A) (A) (A) (A) (A) (A) (A) (A) (A) (A) (A) (A)
 The electronic state is 1-A.
 Alpha  occ. eigenvalues -- -101.55710 -19.12928 -14.41226 -14.41127 -14.39051
 Alpha  occ. eigenvalues --  -14.38944 -14.35042 -14.34723 -10.31037 -10.26966
 Alpha  occ. eigenvalues --  -10.26121 -10.25912 -10.24291 -10.23247 -10.23186
 Alpha  occ. eigenvalues --  -10.23123 -10.22241 -10.22200 -10.22045 -10.21719
 Alpha  occ. eigenvalues --  -10.21037 -10.20978 -10.20881 -10.20409 -10.20367
 Alpha  occ. eigenvalues --  -10.20130 -10.20006 -10.19821 -10.19802 -10.19752
 Alpha  occ. eigenvalues --  -10.19666 -10.19412  -9.47526  -7.23787  -7.22815
 Alpha  occ. eigenvalues --   -7.22774  -1.09394  -1.06142  -1.05336  -0.96928
 Alpha  occ. eigenvalues --   -0.92481  -0.90911  -0.86908  -0.86377  -0.85652
 Alpha  occ. eigenvalues --   -0.82524  -0.80889  -0.79618  -0.77957  -0.77008
 Alpha  occ. eigenvalues --   -0.76043  -0.75631  -0.75159  -0.73829  -0.71911
 Alpha  occ. eigenvalues --   -0.66068  -0.64843  -0.63548  -0.62952  -0.62333
 Alpha  occ. eigenvalues --   -0.61969  -0.60285  -0.60232  -0.58415  -0.56635
 Alpha  occ. eigenvalues --   -0.55222  -0.54331  -0.53071  -0.52677  -0.52382
 Alpha  occ. eigenvalues --   -0.52017  -0.49532  -0.48686  -0.47719  -0.47563
 Alpha  occ. eigenvalues --   -0.46784  -0.46650  -0.46181  -0.45647  -0.45010
 Alpha  occ. eigenvalues --   -0.44778  -0.44729  -0.44512  -0.44260  -0.43605
 Alpha  occ. eigenvalues --   -0.43305  -0.42772  -0.41775  -0.40865  -0.40666
 Alpha  occ. eigenvalues --   -0.39881  -0.38656  -0.37927  -0.37882  -0.37781
 Alpha  occ. eigenvalues --   -0.37526  -0.36648  -0.35658  -0.35479  -0.34643
 Alpha  occ. eigenvalues --   -0.33014  -0.32656  -0.31452  -0.31108  -0.29537
 Alpha  occ. eigenvalues --   -0.28214  -0.27633  -0.27214  -0.26625  -0.26480
 Alpha  occ. eigenvalues --   -0.26271  -0.26124  -0.24893  -0.23442  -0.21802
 Alpha virt. eigenvalues --   -0.04330  -0.04134  -0.03677  -0.03599  -0.01888
 Alpha virt. eigenvalues --    0.00276   0.00842   0.01374   0.01745   0.03555
 Alpha virt. eigenvalues --    0.04085   0.04700   0.05543   0.06097   0.06931
 Alpha virt. eigenvalues --    0.07245   0.07514   0.08245   0.08557   0.09570
 Alpha virt. eigenvalues --    0.10086   0.10676   0.10909   0.11907   0.12283
 Alpha virt. eigenvalues --    0.12831   0.13227   0.13748   0.14401   0.14745
 Alpha virt. eigenvalues --    0.15497   0.16065   0.16812   0.17592   0.17712
 Alpha virt. eigenvalues --    0.19401   0.20091   0.20313   0.20628   0.21311
 Alpha virt. eigenvalues --    0.23651   0.23931   0.24172   0.25167   0.25326
 Alpha virt. eigenvalues --    0.25823   0.26318   0.26983   0.27998   0.28335
 Alpha virt. eigenvalues --    0.29737   0.30057   0.30183   0.30870   0.31954
 Alpha virt. eigenvalues --    0.32361   0.33511   0.35055   0.36253   0.36810
 Alpha virt. eigenvalues --    0.37660   0.38554   0.39670   0.40200   0.40386
 Alpha virt. eigenvalues --    0.42384   0.42714   0.43499   0.43600   0.44523
 Alpha virt. eigenvalues --    0.45028   0.45270   0.45431   0.45805   0.46235
 Alpha virt. eigenvalues --    0.46461   0.46545   0.47163   0.47199   0.47881
 Alpha virt. eigenvalues --    0.48254   0.48399   0.48578   0.48990   0.49264
 Alpha virt. eigenvalues --    0.49313   0.50066   0.50229   0.50337   0.50699
 Alpha virt. eigenvalues --    0.50867   0.51285   0.51977   0.52244   0.52502
 Alpha virt. eigenvalues --    0.52872   0.53362   0.53563   0.53855   0.54620
 Alpha virt. eigenvalues --    0.54774   0.55021   0.55141   0.55407   0.56250
 Alpha virt. eigenvalues --    0.56391   0.56826   0.57373   0.58699   0.59420
 Alpha virt. eigenvalues --    0.59510   0.59703   0.60029   0.60264   0.61089
 Alpha virt. eigenvalues --    0.61482   0.61618   0.62526   0.63038   0.63566
 Alpha virt. eigenvalues --    0.63907   0.64388   0.64508   0.64908   0.65080
 Alpha virt. eigenvalues --    0.65681   0.65837   0.66131   0.67028   0.67058
 Alpha virt. eigenvalues --    0.67794   0.68033   0.68301   0.69570   0.70407
 Alpha virt. eigenvalues --    0.70459   0.71228   0.71436   0.72025   0.72308
 Alpha virt. eigenvalues --    0.72652   0.73124   0.73970   0.74167   0.74611
 Alpha virt. eigenvalues --    0.75087   0.75459   0.76454   0.77795   0.78072
 Alpha virt. eigenvalues --    0.79391   0.80183   0.81090   0.81402   0.81937
 Alpha virt. eigenvalues --    0.82584   0.83228   0.84150   0.84700   0.85135
 Alpha virt. eigenvalues --    0.85762   0.87025   0.87400   0.87931   0.88380
 Alpha virt. eigenvalues --    0.88651   0.89027   0.89467   0.89618   0.90388
 Alpha virt. eigenvalues --    0.90552   0.92003   0.92357   0.92659   0.93184
 Alpha virt. eigenvalues --    0.93576   0.93997   0.95179   0.95574   0.95886
 Alpha virt. eigenvalues --    0.96736   0.97836   0.98403   0.98934   0.99404
 Alpha virt. eigenvalues --    1.00441   1.00703   1.01002   1.01262   1.01929
 Alpha virt. eigenvalues --    1.02440   1.02585   1.02982   1.03466   1.03555
 Alpha virt. eigenvalues --    1.03973   1.04283   1.04992   1.05614   1.05920
 Alpha virt. eigenvalues --    1.06770   1.07052   1.07270   1.08691   1.09457
 Alpha virt. eigenvalues --    1.10252   1.10713   1.11488   1.12323   1.13665
 Alpha virt. eigenvalues --    1.13843   1.14428   1.16900   1.17398   1.18562
 Alpha virt. eigenvalues --    1.18896   1.19647   1.21892   1.22360   1.23245
 Alpha virt. eigenvalues --    1.23713   1.24602   1.25051   1.26219   1.26756
 Alpha virt. eigenvalues --    1.28280   1.29161   1.30155   1.31032   1.32324
 Alpha virt. eigenvalues --    1.33257   1.33987   1.34755   1.35848   1.37114
 Alpha virt. eigenvalues --    1.37688   1.38107   1.40335   1.40694   1.42402
 Alpha virt. eigenvalues --    1.43362   1.44090   1.45150   1.45944   1.46734
 Alpha virt. eigenvalues --    1.47173   1.47296   1.48452   1.48828   1.49115
 Alpha virt. eigenvalues --    1.49926   1.50417   1.50617   1.50962   1.51751
 Alpha virt. eigenvalues --    1.52356   1.52567   1.54357   1.55081   1.55625
 Alpha virt. eigenvalues --    1.55712   1.56413   1.57647   1.57931   1.58419
 Alpha virt. eigenvalues --    1.59042   1.59603   1.60197   1.60394   1.61010
 Alpha virt. eigenvalues --    1.61506   1.61760   1.62148   1.62419   1.63228
 Alpha virt. eigenvalues --    1.64026   1.64143   1.64844   1.65007   1.65429
 Alpha virt. eigenvalues --    1.65605   1.66224   1.66908   1.67169   1.68174
 Alpha virt. eigenvalues --    1.68886   1.69568   1.70256   1.70946   1.71248
 Alpha virt. eigenvalues --    1.71960   1.72932   1.73045   1.73698   1.73786
 Alpha virt. eigenvalues --    1.74484   1.74635   1.75480   1.76109   1.76857
 Alpha virt. eigenvalues --    1.77271   1.77392   1.78312   1.78749   1.79174
 Alpha virt. eigenvalues --    1.79471   1.79963   1.80377   1.80577   1.80984
 Alpha virt. eigenvalues --    1.82716   1.82872   1.83238   1.84198   1.84559
 Alpha virt. eigenvalues --    1.84903   1.85068   1.85786   1.85950   1.86744
 Alpha virt. eigenvalues --    1.87073   1.87587   1.88740   1.89392   1.89546
 Alpha virt. eigenvalues --    1.90328   1.90932   1.91458   1.92542   1.93160
 Alpha virt. eigenvalues --    1.94389   1.96107   1.96686   1.97362   1.97452
 Alpha virt. eigenvalues --    1.98006   1.98623   1.98984   2.00217   2.01453
 Alpha virt. eigenvalues --    2.02699   2.03226   2.03347   2.03617   2.04487
 Alpha virt. eigenvalues --    2.05990   2.06881   2.07883   2.08273   2.08615
 Alpha virt. eigenvalues --    2.10839   2.11370   2.12326   2.14732   2.15378
 Alpha virt. eigenvalues --    2.15879   2.16057   2.17838   2.18792   2.20103
 Alpha virt. eigenvalues --    2.21803   2.22994   2.24244   2.25218   2.26908
 Alpha virt. eigenvalues --    2.28517   2.29055   2.30179   2.30833   2.31973
 Alpha virt. eigenvalues --    2.33098   2.33466   2.34592   2.36334   2.37689
 Alpha virt. eigenvalues --    2.38045   2.39468   2.40151   2.40310   2.41436
 Alpha virt. eigenvalues --    2.42122   2.43780   2.44076   2.44439   2.44912
 Alpha virt. eigenvalues --    2.46499   2.48217   2.49805   2.49906   2.51158
 Alpha virt. eigenvalues --    2.51906   2.53068   2.55341   2.56958   2.57898
 Alpha virt. eigenvalues --    2.59159   2.60430   2.62528   2.63303   2.65867
 Alpha virt. eigenvalues --    2.65908   2.67786   2.68591   2.70106   2.70326
 Alpha virt. eigenvalues --    2.71326   2.72789   2.73679   2.74278   2.77228
 Alpha virt. eigenvalues --    2.77781   2.79109   2.80442   2.83109   2.84708
 Alpha virt. eigenvalues --    2.86757   2.87216   2.93445   2.94341   2.96310
 Alpha virt. eigenvalues --    2.97723   2.99160   3.07496   3.07638   3.09996
 Alpha virt. eigenvalues --    3.14708   3.29979   3.39572   3.40551   3.48880
 Alpha virt. eigenvalues --    3.52389   3.53742
          Condensed to atoms (all electrons):
 Mulliken atomic charges:
              1
     1  Cl  -0.078726
     2  C   -0.143180
     3  C    0.118538
     4  C    0.052348
     5  C    0.022675
     6  C   -0.087832
     7  C    0.118671
     8  C    0.152786
     9  N   -0.282581
    10  C    0.127722
    11  O   -0.236486
    12  C    0.122767
    13  N   -0.227943
    14  N   -0.060848
    15  N   -0.181767
    16  C    0.011194
    17  C    0.044818
    18  C    0.037895
    19  C    0.039559
    20  C    0.031646
    21  C    0.213488
    22  C    0.096373
    23  C    0.024817
    24  C   -0.002127
    25  C    0.063494
    26  C   -0.001719
    27  C    0.081063
    28  C   -0.060951
    29  C    0.089586
    30  N    0.003223
    31  N   -0.170716
    32  C    0.091115
    33  H   -0.015592
    34  H   -0.012677
    35  H   -0.013938
    36  H   -0.032260
    37  H    0.041853
    38  H    0.052868
    39  H    0.057480
    40  H    0.061890
    41  H   -0.022047
    42  H   -0.027037
    43  H   -0.025837
    44  H   -0.032213
    45  H   -0.027195
    46  H   -0.047805
    47  H   -0.036232
    48  H   -0.014852
    49  H   -0.003071
    50  H   -0.013451
    51  H    0.101214
 Sum of Mulliken atomic charges =   0.00000
 Mulliken charges with hydrogens summed into heavy atoms:
              1
     1  Cl  -0.078726
     2  C   -0.143180
     3  C    0.102946
     4  C    0.039670
     5  C    0.008737
     6  C   -0.087832
     7  C    0.086411
     8  C    0.247508
     9  N   -0.282581
    10  C    0.127722
    11  O   -0.236486
    12  C    0.242137
    13  N   -0.227943
    14  N   -0.060848
    15  N   -0.181767
    16  C    0.011194
    17  C    0.022771
    18  C    0.010858
    19  C    0.013722
    20  C   -0.000567
    21  C    0.213488
    22  C    0.096373
    23  C   -0.002378
    24  C   -0.049932
    25  C    0.063494
    26  C   -0.037951
    27  C    0.066212
    28  C   -0.060951
    29  C    0.086516
    30  N    0.104437
    31  N   -0.170716
    32  C    0.077664
 Sum of Mulliken charges with hydrogens summed into heavy atoms =   0.00000
 Electronic spatial extent (au):  <R**2>=          20157.2890
 Charge=              0.0000 electrons
 Dipole moment (field-independent basis, Debye):
    X=              3.2482    Y=              5.5886    Z=              2.3211  Tot=              6.8681
 Quadrupole moment (field-independent basis, Debye-Ang):
   XX=           -182.9513   YY=           -202.7772   ZZ=           -187.4383
   XY=             13.0917   XZ=            -13.8328   YZ=             -5.2218
 Traceless Quadrupole moment (field-independent basis, Debye-Ang):
   XX=              8.1043   YY=            -11.7216   ZZ=              3.6173
   XY=             13.0917   XZ=            -13.8328   YZ=             -5.2218
 Octapole moment (field-independent basis, Debye-Ang**2):
  XXX=            244.9020  YYY=            -24.4338  ZZZ=             28.6384  XYY=              1.7243
  XXY=            151.6766  XXZ=             70.7689  XZZ=             -8.8291  YZZ=             39.7605
  YYZ=             34.5541  XYZ=             56.1503
 Hexadecapole moment (field-independent basis, Debye-Ang**3):
 XXXX=         -15146.8035 YYYY=          -9081.5631 ZZZZ=          -1511.8066 XXXY=           1298.0816
 XXXZ=            -62.4461 YYYX=             99.2753 YYYZ=            -23.7553 ZZZX=           -110.7804
 ZZZY=            -63.8490 XXYY=          -4472.4908 XXZZ=          -3255.4032 YYZZ=          -1688.0240
 XXYZ=            -99.2524 YYXZ=           -221.7102 ZZXY=            -90.9009
 N-N= 3.020785711195D+03 E-N=-1.022536858108D+04  KE= 1.780239869651D+03
 No NMR shielding tensors so no spin-rotation constants.
 Leave Link  601 at Sat Sep 10 13:31:46 2022, MaxMem=  209715200 cpu:       4.4
 (Enter /opt/gaussian/l602.exe)
 Breneman (CHELPG) radii used.
 Read replacement radii for each type of atom:
 Rad(35) =   1.900000000000D+00
 Atom Element Radius
    1    17    2.00
    2     6    1.50
    3     6    1.50
    4     6    1.50
    5     6    1.50
    6     6    1.50
    7     6    1.50
    8     6    1.50
    9     7    1.70
   10     6    1.50
   11     8    1.70
   12     6    1.50
   13     7    1.70
   14     7    1.70
   15     7    1.70
   16     6    1.50
   17     6    1.50
   18     6    1.50
   19     6    1.50
   20     6    1.50
   21     6    1.50
   22     6    1.50
   23     6    1.50
   24     6    1.50
   25     6    1.50
   26     6    1.50
   27     6    1.50
   28     6    1.50
   29     6    1.50
   30     7    1.70
   31     7    1.70
   32     6    1.50
   33     1    1.45
   34     1    1.45
   35     1    1.45
   36     1    1.45
   37     1    1.45
   38     1    1.45
   39     1    1.45
   40     1    1.45
   41     1    1.45
   42     1    1.45
   43     1    1.45
   44     1    1.45
   45     1    1.45
   46     1    1.45
   47     1    1.45
   48     1    1.45
   49     1    1.45
   50     1    1.45
   51     1    1.45
 Generate Potential Derived Charges using the Breneman model, NDens= 1.
 Grid spacing= 0.300 Box extension= 2.800
 NStep X,Y,Z=   69     56     39   Total possible points=      150696
 Number of Points to Fit=   28323

 **********************************************************************

            Electrostatic Properties Using The SCF Density

 **********************************************************************

       Atomic Center    1 is at  -2.529420  6.010250 -0.369210
       Atomic Center    2 is at  -1.816919  4.508770  0.204830
       Atomic Center    3 is at  -1.798179  4.237720  1.575780
       Atomic Center    4 is at  -1.231769  3.038820  2.010190
       Atomic Center    5 is at  -0.691929  2.127600  1.095650
       Atomic Center    6 is at  -0.713459  2.407790 -0.276380
       Atomic Center    7 is at  -1.286289  3.609880 -0.719440
       Atomic Center    8 is at  -0.118239  1.465490 -1.317900
       Atomic Center    9 is at   0.242901  0.124010 -0.849470
       Atomic Center   10 is at  -0.721979 -0.859360 -0.663190
       Atomic Center   11 is at  -0.482909 -1.957950 -0.197850
       Atomic Center   12 is at  -2.157959 -0.483720 -1.085650
       Atomic Center   13 is at  -3.066009 -1.593260 -0.950450
       Atomic Center   14 is at  -3.554009 -2.194840 -2.079450
       Atomic Center   15 is at  -4.351549 -3.149991 -1.747330
       Atomic Center   16 is at  -4.411889 -3.208791 -0.368030
       Atomic Center   17 is at  -5.140489 -4.059101  0.482440
       Atomic Center   18 is at  -5.003139 -3.866311  1.849810
       Atomic Center   19 is at  -4.157219 -2.853850  2.370620
       Atomic Center   20 is at  -3.426729 -2.008070  1.545640
       Atomic Center   21 is at  -3.573879 -2.204710  0.162750
       Atomic Center   22 is at   1.627121 -0.145180 -0.570190
       Atomic Center   23 is at   2.438391  0.853810 -0.009430
       Atomic Center   24 is at   3.793821  0.622920  0.224140
       Atomic Center   25 is at   4.392511 -0.608760 -0.090660
       Atomic Center   26 is at   3.565561 -1.600970 -0.650670
       Atomic Center   27 is at   2.211121 -1.382280 -0.887910
       Atomic Center   28 is at   5.819941 -0.858110  0.152410
       Atomic Center   29 is at   6.850831  0.072001  0.261520
       Atomic Center   30 is at   7.987811 -0.636019  0.484920
       Atomic Center   31 is at   7.790151 -1.966999  0.535440
       Atomic Center   32 is at   6.482221 -2.107909  0.332560
       Atomic Center   33 is at  -2.221970  4.952540  2.281290
       Atomic Center   34 is at  -1.210209  2.811520  3.078150
       Atomic Center   35 is at  -0.250659  1.196120  1.453730
       Atomic Center   36 is at  -1.322159  3.849850 -1.784120
       Atomic Center   37 is at  -0.813429  1.384930 -2.167690
       Atomic Center   38 is at   0.795761  1.914750 -1.732010
       Atomic Center   39 is at  -2.519489  0.375460 -0.498560
       Atomic Center   40 is at  -2.188969 -0.203150 -2.147930
       Atomic Center   41 is at  -5.785209 -4.835331  0.067670
       Atomic Center   42 is at  -5.551189 -4.505751  2.544750
       Atomic Center   43 is at  -4.073139 -2.742100  3.453930
       Atomic Center   44 is at  -2.762339 -1.246490  1.954680
       Atomic Center   45 is at   2.013851  1.818830  0.270820
       Atomic Center   46 is at   4.388251  1.413420  0.687200
       Atomic Center   47 is at   3.994831 -2.564800 -0.931180
       Atomic Center   48 is at   1.605971 -2.175460 -1.320110
       Atomic Center   49 is at   6.859861  1.155071  0.175050
       Atomic Center   50 is at   6.045481 -3.104599  0.341890
       Atomic Center   51 is at   8.924361 -0.271819  0.602840
   28323 points will be used for fitting atomic charges
 Fitting point charges to electrostatic potential
 Charges from ESP fit, RMS=   0.00426 RRMS=   0.23984:
 Charge=   0.00000 Dipole=     3.2717     5.3839     2.3132 Tot=     6.7113
              1
     1  Cl  -0.117157
     2  C    0.063622
     3  C   -0.054673
     4  C   -0.157834
     5  C   -0.044765
     6  C    0.158446
     7  C   -0.143204
     8  C   -0.122214
     9  N   -0.345151
    10  C    0.591534
    11  O   -0.505266
    12  C    0.027295
    13  N    0.291304
    14  N   -0.227641
    15  N   -0.337005
    16  C    0.410409
    17  C   -0.260071
    18  C   -0.048062
    19  C   -0.111743
    20  C   -0.133131
    21  C   -0.076319
    22  C    0.210464
    23  C   -0.085269
    24  C   -0.149235
    25  C    0.073980
    26  C   -0.138015
    27  C   -0.136780
    28  C   -0.050872
    29  C   -0.159522
    30  N    0.066120
    31  N   -0.439343
    32  C    0.133765
    33  H    0.097532
    34  H    0.119338
    35  H    0.070066
    36  H    0.097480
    37  H    0.135392
    38  H    0.079181
    39  H   -0.040111
    40  H   -0.000748
    41  H    0.128482
    42  H    0.087050
    43  H    0.095201
    44  H    0.107813
    45  H    0.046763
    46  H    0.108039
    47  H    0.095451
    48  H    0.130573
    49  H    0.124421
    50  H    0.083816
    51  H    0.250596
 Charges from ESP fit with hydrogens summed into heavy atoms:
              1
     1  Cl  -0.117157
     2  C    0.063622
     3  C    0.042858
     4  C   -0.038496
     5  C    0.025301
     6  C    0.158446
     7  C   -0.045724
     8  C    0.092359
     9  N   -0.345151
    10  C    0.591534
    11  O   -0.505266
    12  C   -0.013564
    13  N    0.291304
    14  N   -0.227641
    15  N   -0.337005
    16  C    0.410409
    17  C   -0.131589
    18  C    0.038988
    19  C   -0.016542
    20  C   -0.025318
    21  C   -0.076319
    22  C    0.210464
    23  C   -0.038505
    24  C   -0.041197
    25  C    0.073980
    26  C   -0.042564
    27  C   -0.006206
    28  C   -0.050872
    29  C   -0.035101
    30  N    0.316716
    31  N   -0.439343
    32  C    0.217580
    33  H    0.000000
    34  H    0.000000
    35  H    0.000000
    36  H    0.000000
    37  H    0.000000
    38  H    0.000000
    39  H    0.000000
    40  H    0.000000
    41  H    0.000000
    42  H    0.000000
    43  H    0.000000
    44  H    0.000000
    45  H    0.000000
    46  H    0.000000
    47  H    0.000000
    48  H    0.000000
    49  H    0.000000
    50  H    0.000000
    51  H    0.000000
 -----------------------------------------------------------------

              Electrostatic Properties (Atomic Units)

 -----------------------------------------------------------------
    Center     Electric         -------- Electric Field --------
               Potential          X             Y             Z
 -----------------------------------------------------------------
    1 Atom    -64.397785
    2 Atom    -14.677216
    3 Atom    -14.726538
    4 Atom    -14.724775
    5 Atom    -14.729595
    6 Atom    -14.714593
    7 Atom    -14.724718
    8 Atom    -14.677987
    9 Atom    -18.311153
   10 Atom    -14.632480
   11 Atom    -22.360894
   12 Atom    -14.680672
   13 Atom    -18.293325
   14 Atom    -18.331054
   15 Atom    -18.369508
   16 Atom    -14.737612
   17 Atom    -14.748340
   18 Atom    -14.751719
   19 Atom    -14.746037
   20 Atom    -14.741742
   21 Atom    -14.714706
   22 Atom    -14.700683
   23 Atom    -14.742762
   24 Atom    -14.745572
   25 Atom    -14.735995
   26 Atom    -14.749365
   27 Atom    -14.749278
   28 Atom    -14.749241
   29 Atom    -14.712711
   30 Atom    -18.290244
   31 Atom    -18.365642
   32 Atom    -14.736777
   33 Atom     -1.066240
   34 Atom     -1.069792
   35 Atom     -1.070556
   36 Atom     -1.061162
   37 Atom     -1.061135
   38 Atom     -1.060707
   39 Atom     -1.056111
   40 Atom     -1.052445
   41 Atom     -1.089689
   42 Atom     -1.095529
   43 Atom     -1.091890
   44 Atom     -1.081047
   45 Atom     -1.078068
   46 Atom     -1.085609
   47 Atom     -1.091451
   48 Atom     -1.093099
   49 Atom     -1.051559
   50 Atom     -1.083535
   51 Atom     -0.974533
 -----------------------------------------------------------------
 Leave Link  602 at Sat Sep 10 13:32:01 2022, MaxMem=  209715200 cpu:     109.8
 (Enter /opt/gaussian/l9999.exe)
 1\1\GINC-LQCAPF-6\SP\RB3LYP\CC-pVDZ\C24H19Cl1N6O1\LQCAPF-6\10-Sep-2022
 \0\\#p b3lyp/cc-pvdz pop=(chelpg,readradii)\\Mol36.log\\0,1\Cl,0,-2.52
 942,6.01025,-0.36921\C,0,-1.81692,4.50877,0.20483\C,0,-1.79818,4.23772
 ,1.57578\C,0,-1.23177,3.03882,2.01019\C,0,-0.69193,2.1276,1.09565\C,0,
 -0.71346,2.40779,-0.27638\C,0,-1.28629,3.60988,-0.71944\C,0,-0.11824,1
 .46549,-1.3179\N,0,0.2429,0.12401,-0.84947\C,0,-0.72198,-0.85936,-0.66
 319\O,0,-0.48291,-1.95795,-0.19785\C,0,-2.15796,-0.48372,-1.08565\N,0,
 -3.06601,-1.59326,-0.95045\N,0,-3.55401,-2.19484,-2.07945\N,0,-4.35155
 ,-3.14999,-1.74733\C,0,-4.41189,-3.20879,-0.36803\C,0,-5.14049,-4.0591
 ,0.48244\C,0,-5.00314,-3.86631,1.84981\C,0,-4.15722,-2.85385,2.37062\C
 ,0,-3.42673,-2.00807,1.54564\C,0,-3.57388,-2.20471,0.16275\C,0,1.62712
 ,-0.14518,-0.57019\C,0,2.43839,0.85381,-0.00943\C,0,3.79382,0.62292,0.
 22414\C,0,4.39251,-0.60876,-0.09066\C,0,3.56556,-1.60097,-0.65067\C,0,
 2.21112,-1.38228,-0.88791\C,0,5.81994,-0.85811,0.15241\C,0,6.85083,0.0
 72,0.26152\N,0,7.98781,-0.63602,0.48492\N,0,7.79015,-1.967,0.53544\C,0
 ,6.48222,-2.10791,0.33256\H,0,-2.22197,4.95254,2.28129\H,0,-1.21021,2.
 81152,3.07815\H,0,-0.25066,1.19612,1.45373\H,0,-1.32216,3.84985,-1.784
 12\H,0,-0.81343,1.38493,-2.16769\H,0,0.79576,1.91475,-1.73201\H,0,-2.5
 1949,0.37546,-0.49856\H,0,-2.18897,-0.20315,-2.14793\H,0,-5.78521,-4.8
 3533,0.06767\H,0,-5.55119,-4.50575,2.54475\H,0,-4.07314,-2.7421,3.4539
 3\H,0,-2.76234,-1.24649,1.95468\H,0,2.01385,1.81883,0.27082\H,0,4.3882
 5,1.41342,0.6872\H,0,3.99483,-2.5648,-0.93118\H,0,1.60597,-2.17546,-1.
 32011\H,0,6.85986,1.15507,0.17505\H,0,6.04548,-3.1046,0.34189\H,0,8.92
 436,-0.27182,0.60284\\Version=EM64L-G09RevC.01\State=1-A\HF=-1789.9898
 158\RMSD=5.032e-09\Dipole=1.27793,2.1987122,0.9132002\Quadrupole=6.025
 3646,-8.7147603,2.6893957,9.7333891,-10.2843159,-3.8822943\PG=C01 [X(C
 24H19Cl1N6O1)]\\@


 ... SUBJECTS WHICH DISCLOSE THEIR FULL POWER, MEANING AND BEAUTY AS SOON
 AS THEY ARE PRESENTED TO THE MIND HAVE VERY LITTLE OF THOSE QUALITIES
 TO DISCLOSE.
                           -- CHARLES DUTTON (1882)
 Job cpu time:  0 days  1 hours 38 minutes 25.8 seconds.
 File lengths (MBytes):  RWF=    165 Int=      0 D2E=      0 Chk=     12 Scr=      1
 Normal termination of Gaussian 09 at Sat Sep 10 13:32:01 2022.
