 Entering Gaussian System, Link 0=g09
 Input=Mol41.gjf
 Output=Mol41.log
 Initial command:
 /opt/gaussian/l1.exe /home/scr/lqcapf-6/Gau-585013.inp -scrdir=/home/scr/lqcapf-6/
 Entering Link 1 = /opt/gaussian/l1.exe PID=    585015.
  
 Copyright (c) 1988,1990,1992,1993,1995,1998,2003,2009,2011,
            Gaussian, Inc.  All Rights Reserved.
  
 This is part of the Gaussian(R) 09 program.  It is based on
 the Gaussian(R) 03 system (copyright 2003, Gaussian, Inc.),
 the Gaussian(R) 98 system (copyright 1998, Gaussian, Inc.),
 the Gaussian(R) 94 system (copyright 1995, Gaussian, Inc.),
 the Gaussian 92(TM) system (copyright 1992, Gaussian, Inc.),
 the Gaussian 90(TM) system (copyright 1990, Gaussian, Inc.),
 the Gaussian 88(TM) system (copyright 1988, Gaussian, Inc.),
 the Gaussian 86(TM) system (copyright 1986, Carnegie Mellon
 University), and the Gaussian 82(TM) system (copyright 1983,
 Carnegie Mellon University). Gaussian is a federally registered
 trademark of Gaussian, Inc.
  
 This software contains proprietary and confidential information,
 including trade secrets, belonging to Gaussian, Inc.
  
 This software is provided under written license and may be
 used, copied, transmitted, or stored only in accord with that
 written license.
  
 The following legend is applicable only to US Government
 contracts under FAR:
  
                    RESTRICTED RIGHTS LEGEND
  
 Use, reproduction and disclosure by the US Government is
 subject to restrictions as set forth in subparagraphs (a)
 and (c) of the Commercial Computer Software - Restricted
 Rights clause in FAR 52.227-19.
  
 Gaussian, Inc.
 340 Quinnipiac St., Bldg. 40, Wallingford CT 06492
  
  
 ---------------------------------------------------------------
 Warning -- This program may not be used in any manner that
 competes with the business of Gaussian, Inc. or will provide
 assistance to any competitor of Gaussian, Inc.  The licensee
 of this program is prohibited from giving any competitor of
 Gaussian, Inc. access to this program.  By using this program,
 the user acknowledges that Gaussian, Inc. is engaged in the
 business of creating and licensing software in the field of
 computational chemistry and represents and warrants to the
 licensee that it is not a competitor of Gaussian, Inc. and that
 it will not use this program in any manner prohibited above.
 ---------------------------------------------------------------
  

 Cite this work as:
 Gaussian 09, Revision C.01,
 M. J. Frisch, G. W. Trucks, H. B. Schlegel, G. E. Scuseria, 
 M. A. Robb, J. R. Cheeseman, G. Scalmani, V. Barone, B. Mennucci, 
 G. A. Petersson, H. Nakatsuji, M. Caricato, X. Li, H. P. Hratchian, 
 A. F. Izmaylov, J. Bloino, G. Zheng, J. L. Sonnenberg, M. Hada, 
 M. Ehara, K. Toyota, R. Fukuda, J. Hasegawa, M. Ishida, T. Nakajima, 
 Y. Honda, O. Kitao, H. Nakai, T. Vreven, J. A. Montgomery, Jr., 
 J. E. Peralta, F. Ogliaro, M. Bearpark, J. J. Heyd, E. Brothers, 
 K. N. Kudin, V. N. Staroverov, T. Keith, R. Kobayashi, J. Normand, 
 K. Raghavachari, A. Rendell, J. C. Burant, S. S. Iyengar, J. Tomasi, 
 M. Cossi, N. Rega, J. M. Millam, M. Klene, J. E. Knox, J. B. Cross, 
 V. Bakken, C. Adamo, J. Jaramillo, R. Gomperts, R. E. Stratmann, 
 O. Yazyev, A. J. Austin, R. Cammi, C. Pomelli, J. W. Ochterski, 
 R. L. Martin, K. Morokuma, V. G. Zakrzewski, G. A. Voth, 
 P. Salvador, J. J. Dannenberg, S. Dapprich, A. D. Daniels, 
 O. Farkas, J. B. Foresman, J. V. Ortiz, J. Cioslowski, 
 and D. J. Fox, Gaussian, Inc., Wallingford CT, 2010.
 
 ******************************************
 Gaussian 09:  EM64L-G09RevC.01 23-Sep-2011
                10-Sep-2022 
 ******************************************
 %nprocshared=8
 Will use up to    8 processors via shared memory.
 %mem=1600MB
 ---------------------------------------
 #p b3lyp/cc-pvdz pop=(chelpg,readradii)
 ---------------------------------------
 1/38=1/1;
 2/12=2,17=6,18=5,40=1/2;
 3/5=16,11=2,16=1,25=1,30=1,74=-5/1,2,3;
 4//1;
 5/5=2,38=5/2;
 6/7=2,8=2,9=2,10=2,15=8,20=103,28=1/1,2;
 99/5=1,9=1/99;
 Leave Link    1 at Sat Sep 10 14:27:27 2022, MaxMem=  209715200 cpu:       0.2
 (Enter /opt/gaussian/l101.exe)
 ---------
 Mol41.log
 ---------
 Charge =  0 Multiplicity = 1
 Symbolic Z-Matrix:
 C                     4.27104  -1.04159   0.42302 
 C                     5.32152  -1.89803   0.02861 
 C                     4.48099   0.04913   1.28331 
 C                     6.6326   -1.68795   0.49198 
 C                     5.78012   0.23718   1.73688 
 C                     6.84409  -0.61728   1.34885 
 N                     3.17613  -1.57082  -0.20387 
 N                     4.80741  -2.8709   -0.80665 
 N                     3.54118  -2.66912  -0.9349 
 C                     1.78547  -1.18877  -0.16538 
 C                     1.52396   0.14873  -0.87961 
 N                     0.20789   0.43787  -1.14907 
 O                     2.44194   0.9049   -1.1682 
 C                    -0.09815   1.70316  -1.85164 
 C                    -1.99792   4.32516   0.16488 
 C                    -0.97177   5.0017    0.82428 
 C                    -1.72945   3.2637   -0.70253 
 C                     0.3488    4.59813   0.60052 
 C                    -0.40476   2.86166  -0.92047 
 C                     0.63569   3.53948  -0.26291 
 Cl                   -3.66909   4.81874   0.4275 
 C                    -2.5311   -1.0674    0.90833 
 C                    -3.07691  -2.01265   0.02088 
 C                    -1.45285  -0.26767   0.53113 
 C                    -2.50728  -2.13088  -1.26092 
 C                    -0.88799  -0.39951  -0.74493 
 C                    -1.4289   -1.33376  -1.63972 
 C                    -4.21223  -2.86731   0.39446 
 C                    -4.9099   -2.92253   1.5899 
 N                    -4.74083  -3.786    -0.49671 
 N                    -5.8711   -3.89047   1.40891 
 C                    -5.72659  -4.37788   0.13907 
 H                     3.67463   0.72748   1.5617 
 H                     7.44109  -2.35137   0.18114 
 H                     5.99301   1.07439   2.40555 
 H                     7.84746  -0.41928   1.73146 
 H                     1.22496  -2.00806  -0.63216 
 H                     1.4436   -1.11007   0.88009 
 H                     0.77966   1.93876  -2.46727 
 H                    -0.95479   1.50983  -2.51224 
 H                    -1.20403   5.8301    1.49409 
 H                    -2.55394   2.75709  -1.20669 
 H                     1.16179   5.12551   1.10477 
 H                     1.66617   3.22514  -0.43711 
 H                    -2.95339  -0.9458    1.90798 
 H                    -1.04418   0.4698    1.22421 
 H                    -2.9283   -2.8633   -1.94997 
 H                    -0.99108  -1.43572  -2.63531 
 H                    -4.81535  -2.38006   2.52492 
 H                    -6.55683  -4.18463   2.093 
 H                    -6.36726  -5.16033  -0.2621 
 
 NAtoms=     51 NQM=        0 NQMF=       0 NMMI=     51 NMMIF=      0
                NMic=       0 NMicF=      0.
                    Isotopes and Nuclear Properties:
 (Nuclear quadrupole moments (NQMom) in fm**2, nuclear magnetic moments (NMagM)
  in nuclear magnetons)

  Atom         1           2           3           4           5           6           7           8           9          10
 IAtWgt=          12          12          12          12          12          12          14          14          14          12
 AtmWgt=  12.0000000  12.0000000  12.0000000  12.0000000  12.0000000  12.0000000  14.0030740  14.0030740  14.0030740  12.0000000
 NucSpn=           0           0           0           0           0           0           2           2           2           0
 AtZEff=   0.0000000   0.0000000   0.0000000   0.0000000   0.0000000   0.0000000   0.0000000   0.0000000   0.0000000   0.0000000
 NQMom=    0.0000000   0.0000000   0.0000000   0.0000000   0.0000000   0.0000000   2.0440000   2.0440000   2.0440000   0.0000000
 NMagM=    0.0000000   0.0000000   0.0000000   0.0000000   0.0000000   0.0000000   0.4037610   0.4037610   0.4037610   0.0000000

  Atom        11          12          13          14          15          16          17          18          19          20
 IAtWgt=          12          14          16          12          12          12          12          12          12          12
 AtmWgt=  12.0000000  14.0030740  15.9949146  12.0000000  12.0000000  12.0000000  12.0000000  12.0000000  12.0000000  12.0000000
 NucSpn=           0           2           0           0           0           0           0           0           0           0
 AtZEff=   0.0000000   0.0000000   0.0000000   0.0000000   0.0000000   0.0000000   0.0000000   0.0000000   0.0000000   0.0000000
 NQMom=    0.0000000   2.0440000   0.0000000   0.0000000   0.0000000   0.0000000   0.0000000   0.0000000   0.0000000   0.0000000
 NMagM=    0.0000000   0.4037610   0.0000000   0.0000000   0.0000000   0.0000000   0.0000000   0.0000000   0.0000000   0.0000000

  Atom        21          22          23          24          25          26          27          28          29          30
 IAtWgt=          35          12          12          12          12          12          12          12          12          14
 AtmWgt=  34.9688527  12.0000000  12.0000000  12.0000000  12.0000000  12.0000000  12.0000000  12.0000000  12.0000000  14.0030740
 NucSpn=           3           0           0           0           0           0           0           0           0           2
 AtZEff=   0.0000000   0.0000000   0.0000000   0.0000000   0.0000000   0.0000000   0.0000000   0.0000000   0.0000000   0.0000000
 NQMom=   -8.1650000   0.0000000   0.0000000   0.0000000   0.0000000   0.0000000   0.0000000   0.0000000   0.0000000   2.0440000
 NMagM=    0.8218740   0.0000000   0.0000000   0.0000000   0.0000000   0.0000000   0.0000000   0.0000000   0.0000000   0.4037610

  Atom        31          32          33          34          35          36          37          38          39          40
 IAtWgt=          14          12           1           1           1           1           1           1           1           1
 AtmWgt=  14.0030740  12.0000000   1.0078250   1.0078250   1.0078250   1.0078250   1.0078250   1.0078250   1.0078250   1.0078250
 NucSpn=           2           0           1           1           1           1           1           1           1           1
 AtZEff=   0.0000000   0.0000000   0.0000000   0.0000000   0.0000000   0.0000000   0.0000000   0.0000000   0.0000000   0.0000000
 NQMom=    2.0440000   0.0000000   0.0000000   0.0000000   0.0000000   0.0000000   0.0000000   0.0000000   0.0000000   0.0000000
 NMagM=    0.4037610   0.0000000   2.7928460   2.7928460   2.7928460   2.7928460   2.7928460   2.7928460   2.7928460   2.7928460

  Atom        41          42          43          44          45          46          47          48          49          50
 IAtWgt=           1           1           1           1           1           1           1           1           1           1
 AtmWgt=   1.0078250   1.0078250   1.0078250   1.0078250   1.0078250   1.0078250   1.0078250   1.0078250   1.0078250   1.0078250
 NucSpn=           1           1           1           1           1           1           1           1           1           1
 AtZEff=   0.0000000   0.0000000   0.0000000   0.0000000   0.0000000   0.0000000   0.0000000   0.0000000   0.0000000   0.0000000
 NQMom=    0.0000000   0.0000000   0.0000000   0.0000000   0.0000000   0.0000000   0.0000000   0.0000000   0.0000000   0.0000000
 NMagM=    2.7928460   2.7928460   2.7928460   2.7928460   2.7928460   2.7928460   2.7928460   2.7928460   2.7928460   2.7928460

  Atom        51
 IAtWgt=           1
 AtmWgt=   1.0078250
 NucSpn=           1
 AtZEff=   0.0000000
 NQMom=    0.0000000
 NMagM=    2.7928460
 Leave Link  101 at Sat Sep 10 14:27:27 2022, MaxMem=  209715200 cpu:       0.7
 (Enter /opt/gaussian/l202.exe)
 Stoichiometry    C24H19ClN6O
 Framework group  C1[X(C24H19ClN6O)]
 Deg. of freedom   147
 Full point group                 C1      NOp   1
 Largest Abelian subgroup         C1      NOp   1
 Largest concise Abelian subgroup C1      NOp   1
                         Standard orientation:                         
 ---------------------------------------------------------------------
 Center     Atomic      Atomic             Coordinates (Angstroms)
 Number     Number       Type             X           Y           Z
 ---------------------------------------------------------------------
      1          6           0       -4.271041   -1.041591   -0.423021
      2          6           0       -5.321520   -1.898031   -0.028611
      3          6           0       -4.480991    0.049129   -1.283311
      4          6           0       -6.632600   -1.687951   -0.491981
      5          6           0       -5.780121    0.237179   -1.736881
      6          6           0       -6.844091   -0.617281   -1.348851
      7          7           0       -3.176130   -1.570821    0.203869
      8          7           0       -4.807410   -2.870901    0.806649
      9          7           0       -3.541180   -2.669121    0.934899
     10          6           0       -1.785471   -1.188771    0.165379
     11          6           0       -1.523961    0.148729    0.879609
     12          7           0       -0.207891    0.437870    1.149069
     13          8           0       -2.441941    0.904899    1.168199
     14          6           0        0.098149    1.703160    1.851639
     15          6           0        1.997919    4.325160   -0.164881
     16          6           0        0.971769    5.001700   -0.824281
     17          6           0        1.729449    3.263700    0.702529
     18          6           0       -0.348801    4.598130   -0.600521
     19          6           0        0.404759    2.861660    0.920469
     20          6           0       -0.635691    3.539479    0.262909
     21         17           0        3.669089    4.818740   -0.427501
     22          6           0        2.531099   -1.067400   -0.908331
     23          6           0        3.076910   -2.012650   -0.020881
     24          6           0        1.452849   -0.267670   -0.531131
     25          6           0        2.507280   -2.130880    1.260919
     26          6           0        0.887989   -0.399510    0.744929
     27          6           0        1.428899   -1.333760    1.639719
     28          6           0        4.212230   -2.867310   -0.394461
     29          6           0        4.909900   -2.922530   -1.589901
     30          7           0        4.740830   -3.786000    0.496709
     31          7           0        5.871100   -3.890470   -1.408911
     32          6           0        5.726590   -4.377880   -0.139071
     33          1           0       -3.674631    0.727479   -1.561701
     34          1           0       -7.441090   -2.351371   -0.181141
     35          1           0       -5.993011    1.074389   -2.405551
     36          1           0       -7.847461   -0.419281   -1.731461
     37          1           0       -1.224960   -2.008061    0.632159
     38          1           0       -1.443601   -1.110071   -0.880091
     39          1           0       -0.779661    1.938759    2.467269
     40          1           0        0.954789    1.509830    2.512239
     41          1           0        1.204029    5.830100   -1.494091
     42          1           0        2.553939    2.757090    1.206689
     43          1           0       -1.161791    5.125509   -1.104771
     44          1           0       -1.666171    3.225139    0.437109
     45          1           0        2.953389   -0.945800   -1.907981
     46          1           0        1.044179    0.469800   -1.224211
     47          1           0        2.928300   -2.863300    1.949969
     48          1           0        0.991080   -1.435720    2.635309
     49          1           0        4.815350   -2.380060   -2.524921
     50          1           0        6.556830   -4.184630   -2.093001
     51          1           0        6.367260   -5.160330    0.262099
 ---------------------------------------------------------------------
 Rotational constants (GHZ):      0.1280959      0.0786636      0.0530749
 Leave Link  202 at Sat Sep 10 14:27:27 2022, MaxMem=  209715200 cpu:       0.0
 (Enter /opt/gaussian/l301.exe)
 Standard basis: CC-pVDZ (5D, 7F)
 Ernie: Thresh=  0.10000D-02 Tol=  0.10000D-05 Strict=F.
 Ernie:  72 primitive shells out of 827 were deleted.
 There are   547 symmetry adapted basis functions of A   symmetry.
 Integral buffers will be    131072 words long.
 Raffenetti 2 integral format.
 Two-electron integral symmetry is turned on.
   547 basis functions,  1227 primitive gaussians,   579 cartesian basis functions
   115 alpha electrons      115 beta electrons
       nuclear repulsion energy      3044.6873708853 Hartrees.
 IExCor=  402 DFT=T Ex+Corr=B3LYP ExCW=0 ScaHFX=  0.200000
 ScaDFX=  0.800000  0.720000  1.000000  0.810000 ScalE2=  1.000000  1.000000
 IRadAn=      0 IRanWt=     -1 IRanGd=            0 ICorTp=0
 NAtoms=   51 NActive=   51 NUniq=   51 SFac= 1.00D+00 NAtFMM=   60 NAOKFM=F Big=F
 Leave Link  301 at Sat Sep 10 14:27:28 2022, MaxMem=  209715200 cpu:       0.3
 (Enter /opt/gaussian/l302.exe)
 NPDir=0 NMtPBC=     1 NCelOv=     1 NCel=       1 NClECP=     1 NCelD=      1
         NCelK=      1 NCelE2=     1 NClLst=     1 CellRange=     0.0.
 One-electron integrals computed using PRISM.
 NBasis=   547 RedAO= T  NBF=   547
 NBsUse=   547 1.00D-06 NBFU=   547
 Precomputing XC quadrature grid using
 IXCGrd= 2 IRadAn=           0 IRanWt=          -1 IRanGd=           0 AccXCQ= 0.00D+00.
 NRdTot=    3286 NPtTot=      419428 NUsed=      443106 NTot=      443138
 NSgBfM=   556   556   556   556   556 NAtAll=    51    51.
 Leave Link  302 at Sat Sep 10 14:27:29 2022, MaxMem=  209715200 cpu:       8.6
 (Enter /opt/gaussian/l303.exe)
 DipDrv:  MaxL=1.
 Leave Link  303 at Sat Sep 10 14:27:29 2022, MaxMem=  209715200 cpu:       1.2
 (Enter /opt/gaussian/l401.exe)
 Harris functional with IExCor=  402 diagonalized for initial guess.
 ExpMin= 1.22D-01 ExpMax= 1.28D+05 ExpMxC= 1.24D+03 IAcc=2 IRadAn=         4 AccDes= 0.00D+00
 HarFok:  IExCor=  402 AccDes= 0.00D+00 IRadAn=         4 IDoV= 1
 ScaDFX=  1.000000  1.000000  1.000000  1.000000
 FoFCou: FMM=F IPFlag=           0 FMFlag=      100000 FMFlg1=           0
         NFxFlg=           0 DoJE=T BraDBF=F KetDBF=T FulRan=T
         Omega=  0.000000  0.000000  1.000000  0.000000  0.000000 ICntrl=     500 IOpCl=  0
         NMat0=    1 NMatS0=    1 NMatT0=    0 NMatD0=    1 NMtDS0=    0 NMtDT0=    0
         I1Cent=           4 NGrid=           0.
 Petite list used in FoFCou.
 Harris En= -1789.72014883050    
 Initial guess orbital symmetries:
       Occupied  (A) (A) (A) (A) (A) (A) (A) (A) (A) (A) (A) (A)
                 (A) (A) (A) (A) (A) (A) (A) (A) (A) (A) (A) (A)
                 (A) (A) (A) (A) (A) (A) (A) (A) (A) (A) (A) (A)
                 (A) (A) (A) (A) (A) (A) (A) (A) (A) (A) (A) (A)
                 (A) (A) (A) (A) (A) (A) (A) (A) (A) (A) (A) (A)
                 (A) (A) (A) (A) (A) (A) (A) (A) (A) (A) (A) (A)
                 (A) (A) (A) (A) (A) (A) (A) (A) (A) (A) (A) (A)
                 (A) (A) (A) (A) (A) (A) (A) (A) (A) (A) (A) (A)
                 (A) (A) (A) (A) (A) (A) (A) (A) (A) (A) (A) (A)
                 (A) (A) (A) (A) (A) (A) (A)
       Virtual   (A) (A) (A) (A) (A) (A) (A) (A) (A) (A) (A) (A)
                 (A) (A) (A) (A) (A) (A) (A) (A) (A) (A) (A) (A)
                 (A) (A) (A) (A) (A) (A) (A) (A) (A) (A) (A) (A)
                 (A) (A) (A) (A) (A) (A) (A) (A) (A) (A) (A) (A)
                 (A) (A) (A) (A) (A) (A) (A) (A) (A) (A) (A) (A)
                 (A) (A) (A) (A) (A) (A) (A) (A) (A) (A) (A) (A)
                 (A) (A) (A) (A) (A) (A) (A) (A) (A) (A) (A) (A)
                 (A) (A) (A) (A) (A) (A) (A) (A) (A) (A) (A) (A)
                 (A) (A) (A) (A) (A) (A) (A) (A) (A) (A) (A) (A)
                 (A) (A) (A) (A) (A) (A) (A) (A) (A) (A) (A) (A)
                 (A) (A) (A) (A) (A) (A) (A) (A) (A) (A) (A) (A)
                 (A) (A) (A) (A) (A) (A) (A) (A) (A) (A) (A) (A)
                 (A) (A) (A) (A) (A) (A) (A) (A) (A) (A) (A) (A)
                 (A) (A) (A) (A) (A) (A) (A) (A) (A) (A) (A) (A)
                 (A) (A) (A) (A) (A) (A) (A) (A) (A) (A) (A) (A)
                 (A) (A) (A) (A) (A) (A) (A) (A) (A) (A) (A) (A)
                 (A) (A) (A) (A) (A) (A) (A) (A) (A) (A) (A) (A)
                 (A) (A) (A) (A) (A) (A) (A) (A) (A) (A) (A) (A)
                 (A) (A) (A) (A) (A) (A) (A) (A) (A) (A) (A) (A)
                 (A) (A) (A) (A) (A) (A) (A) (A) (A) (A) (A) (A)
                 (A) (A) (A) (A) (A) (A) (A) (A) (A) (A) (A) (A)
                 (A) (A) (A) (A) (A) (A) (A) (A) (A) (A) (A) (A)
                 (A) (A) (A) (A) (A) (A) (A) (A) (A) (A) (A) (A)
                 (A) (A) (A) (A) (A) (A) (A) (A) (A) (A) (A) (A)
                 (A) (A) (A) (A) (A) (A) (A) (A) (A) (A) (A) (A)
                 (A) (A) (A) (A) (A) (A) (A) (A) (A) (A) (A) (A)
                 (A) (A) (A) (A) (A) (A) (A) (A) (A) (A) (A) (A)
                 (A) (A) (A) (A) (A) (A) (A) (A) (A) (A) (A) (A)
                 (A) (A) (A) (A) (A) (A) (A) (A) (A) (A) (A) (A)
                 (A) (A) (A) (A) (A) (A) (A) (A) (A) (A) (A) (A)
                 (A) (A) (A) (A) (A) (A) (A) (A) (A) (A) (A) (A)
                 (A) (A) (A) (A) (A) (A) (A) (A) (A) (A) (A) (A)
                 (A) (A) (A) (A) (A) (A) (A) (A) (A) (A) (A) (A)
                 (A) (A) (A) (A) (A) (A) (A) (A) (A) (A) (A) (A)
                 (A) (A) (A) (A) (A) (A) (A) (A) (A) (A) (A) (A)
                 (A) (A) (A) (A) (A) (A) (A) (A) (A) (A) (A) (A)
 The electronic state of the initial guess is 1-A.
 Leave Link  401 at Sat Sep 10 14:27:32 2022, MaxMem=  209715200 cpu:      25.9
 (Enter /opt/gaussian/l502.exe)
 Closed shell SCF:
 Requested convergence on RMS density matrix=1.00D-08 within 128 cycles.
 Requested convergence on MAX density matrix=1.00D-06.
 Requested convergence on             energy=1.00D-06.
 No special actions if energy rises.
 Using DIIS extrapolation, IDIIS=  1040.
 Integral symmetry usage will be decided dynamically.
       442634 words used for storage of precomputed grid.
 IEnd=     1475509 IEndB=     1475509 NGot=   209715200 MDV=   208592152
 LenX=   208592152 LenY=   208256332
 Fock matrices will be formed incrementally for  20 cycles.
 Integral accuracy reduced to 1.0D-05 until final iterations.

 Cycle   1  Pass 0  IDiag  1:
 FoFCou: FMM=F IPFlag=           0 FMFlag=      100000 FMFlg1=           0
         NFxFlg=           0 DoJE=F BraDBF=F KetDBF=F FulRan=T
         Omega=  0.000000  0.000000  1.000000  0.000000  0.000000 ICntrl=       0 IOpCl=  0
         NMat0=    1 NMatS0=    1 NMatT0=    0 NMatD0=    1 NMtDS0=    0 NMtDT0=    0
         I1Cent=           0 NGrid=           0.
 Symmetry not used in FoFCou.
 E= -1789.43488444497    
 DIIS: error= 1.84D-02 at cycle   1 NSaved=   1.
 NSaved= 1 IEnMin= 1 EnMin= -1789.43488444497     IErMin= 1 ErrMin= 1.84D-02
 ErrMax= 1.84D-02 EMaxC= 1.00D-01 BMatC= 5.35D-01 BMatP= 5.35D-01
 IDIUse=3 WtCom= 8.16D-01 WtEn= 1.84D-01
 Coeff-Com:  0.100D+01
 Coeff-En:   0.100D+01
 Coeff:      0.100D+01
 Gap=     0.341 Goal=   None    Shift=    0.000
 GapD=    0.341 DampG=1.000 DampE=0.500 DampFc=0.5000 IDamp=-1.
 Damping current iteration by 5.00D-01
 RMSDP=4.00D-03 MaxDP=2.09D-01              OVMax= 2.88D-01

 Cycle   2  Pass 0  IDiag  1:
 RMSU=  1.40D-03    CP:  9.79D-01
 E= -1789.58281287827     Delta-E=       -0.147928433296 Rises=F Damp=T
 DIIS: error= 9.79D-03 at cycle   2 NSaved=   2.
 NSaved= 2 IEnMin= 2 EnMin= -1789.58281287827     IErMin= 2 ErrMin= 9.79D-03
 ErrMax= 9.79D-03 EMaxC= 1.00D-01 BMatC= 1.08D-01 BMatP= 5.35D-01
 IDIUse=3 WtCom= 9.02D-01 WtEn= 9.79D-02
 Coeff-Com:  0.239D+00 0.761D+00
 Coeff-En:   0.355D+00 0.645D+00
 Coeff:      0.250D+00 0.750D+00
 Gap=     0.227 Goal=   None    Shift=    0.000
 RMSDP=1.38D-03 MaxDP=6.98D-02 DE=-1.48D-01 OVMax= 3.30D-01

 Cycle   3  Pass 0  IDiag  1:
 RMSU=  9.26D-04    CP:  9.62D-01  8.13D-01
 E= -1789.91909753838     Delta-E=       -0.336284660112 Rises=F Damp=F
 DIIS: error= 9.63D-03 at cycle   3 NSaved=   3.
 NSaved= 3 IEnMin= 3 EnMin= -1789.91909753838     IErMin= 3 ErrMin= 9.63D-03
 ErrMax= 9.63D-03 EMaxC= 1.00D-01 BMatC= 1.06D-01 BMatP= 1.08D-01
 IDIUse=3 WtCom= 9.04D-01 WtEn= 9.63D-02
 Coeff-Com:  0.638D-01 0.487D+00 0.450D+00
 Coeff-En:   0.000D+00 0.000D+00 0.100D+01
 Coeff:      0.576D-01 0.440D+00 0.503D+00
 Gap=     0.182 Goal=   None    Shift=    0.000
 RMSDP=8.04D-04 MaxDP=5.79D-02 DE=-3.36D-01 OVMax= 1.03D-01

 Cycle   4  Pass 0  IDiag  1:
 RMSU=  3.97D-04    CP:  9.67D-01  8.95D-01  5.81D-01
 E= -1790.00160473224     Delta-E=       -0.082507193862 Rises=F Damp=F
 DIIS: error= 3.55D-03 at cycle   4 NSaved=   4.
 NSaved= 4 IEnMin= 4 EnMin= -1790.00160473224     IErMin= 4 ErrMin= 3.55D-03
 ErrMax= 3.55D-03 EMaxC= 1.00D-01 BMatC= 1.92D-02 BMatP= 1.06D-01
 IDIUse=3 WtCom= 9.64D-01 WtEn= 3.55D-02
 Coeff-Com:  0.132D-01 0.135D+00 0.316D+00 0.535D+00
 Coeff-En:   0.000D+00 0.000D+00 0.185D+00 0.815D+00
 Coeff:      0.127D-01 0.131D+00 0.312D+00 0.545D+00
 Gap=     0.182 Goal=   None    Shift=    0.000
 RMSDP=3.12D-04 MaxDP=1.85D-02 DE=-8.25D-02 OVMax= 3.90D-02

 Cycle   5  Pass 0  IDiag  1:
 RMSU=  1.24D-04    CP:  9.66D-01  8.69D-01  6.87D-01  6.25D-01
 E= -1790.01778148867     Delta-E=       -0.016176756426 Rises=F Damp=F
 DIIS: error= 1.34D-03 at cycle   5 NSaved=   5.
 NSaved= 5 IEnMin= 5 EnMin= -1790.01778148867     IErMin= 5 ErrMin= 1.34D-03
 ErrMax= 1.34D-03 EMaxC= 1.00D-01 BMatC= 1.74D-03 BMatP= 1.92D-02
 IDIUse=3 WtCom= 9.87D-01 WtEn= 1.34D-02
 Coeff-Com:  0.121D-02 0.289D-01 0.141D+00 0.339D+00 0.491D+00
 Coeff-En:   0.000D+00 0.000D+00 0.000D+00 0.489D-01 0.951D+00
 Coeff:      0.119D-02 0.285D-01 0.139D+00 0.335D+00 0.497D+00
 Gap=     0.180 Goal=   None    Shift=    0.000
 RMSDP=1.05D-04 MaxDP=4.25D-03 DE=-1.62D-02 OVMax= 1.24D-02

 Cycle   6  Pass 0  IDiag  1:
 RMSU=  3.87D-05    CP:  9.65D-01  8.71D-01  6.91D-01  6.84D-01  5.27D-01
 E= -1790.01944322887     Delta-E=       -0.001661740206 Rises=F Damp=F
 DIIS: error= 5.18D-04 at cycle   6 NSaved=   6.
 NSaved= 6 IEnMin= 6 EnMin= -1790.01944322887     IErMin= 6 ErrMin= 5.18D-04
 ErrMax= 5.18D-04 EMaxC= 1.00D-01 BMatC= 1.92D-04 BMatP= 1.74D-03
 IDIUse=3 WtCom= 9.95D-01 WtEn= 5.18D-03
 Coeff-Com: -0.636D-03-0.171D-03 0.423D-01 0.127D+00 0.301D+00 0.530D+00
 Coeff-En:   0.000D+00 0.000D+00 0.000D+00 0.000D+00 0.855D-01 0.915D+00
 Coeff:     -0.633D-03-0.170D-03 0.420D-01 0.127D+00 0.300D+00 0.532D+00
 Gap=     0.180 Goal=   None    Shift=    0.000
 RMSDP=3.25D-05 MaxDP=1.51D-03 DE=-1.66D-03 OVMax= 3.85D-03

 Cycle   7  Pass 0  IDiag  1:
 RMSU=  1.34D-05    CP:  9.65D-01  8.72D-01  6.92D-01  6.81D-01  5.91D-01
                    CP:  5.66D-01
 E= -1790.01963721929     Delta-E=       -0.000193990415 Rises=F Damp=F
 DIIS: error= 1.60D-04 at cycle   7 NSaved=   7.
 NSaved= 7 IEnMin= 7 EnMin= -1790.01963721929     IErMin= 7 ErrMin= 1.60D-04
 ErrMax= 1.60D-04 EMaxC= 1.00D-01 BMatC= 1.82D-05 BMatP= 1.92D-04
 IDIUse=3 WtCom= 9.98D-01 WtEn= 1.60D-03
 Coeff-Com: -0.358D-03-0.295D-02 0.110D-01 0.405D-01 0.127D+00 0.311D+00
 Coeff-Com:  0.515D+00
 Coeff-En:   0.000D+00 0.000D+00 0.000D+00 0.000D+00 0.000D+00 0.119D-01
 Coeff-En:   0.988D+00
 Coeff:     -0.357D-03-0.295D-02 0.110D-01 0.404D-01 0.126D+00 0.310D+00
 Coeff:      0.515D+00
 Gap=     0.180 Goal=   None    Shift=    0.000
 RMSDP=9.08D-06 MaxDP=5.97D-04 DE=-1.94D-04 OVMax= 7.90D-04

 Initial convergence to 1.0D-05 achieved.  Increase integral accuracy.
 Cycle   8  Pass 1  IDiag  1:
 E= -1790.01957325703     Delta-E=        0.000063962259 Rises=F Damp=F
 DIIS: error= 2.65D-04 at cycle   1 NSaved=   1.
 NSaved= 1 IEnMin= 1 EnMin= -1790.01957325703     IErMin= 1 ErrMin= 2.65D-04
 ErrMax= 2.65D-04 EMaxC= 1.00D-01 BMatC= 1.43D-05 BMatP= 1.43D-05
 IDIUse=3 WtCom= 9.97D-01 WtEn= 2.65D-03
 Coeff-Com:  0.100D+01
 Coeff-En:   0.100D+01
 Coeff:      0.100D+01
 Gap=     0.180 Goal=   None    Shift=    0.000
 RMSDP=9.08D-06 MaxDP=5.97D-04 DE= 6.40D-05 OVMax= 7.35D-04

 Cycle   9  Pass 1  IDiag  1:
 RMSU=  1.02D-04    CP:  1.00D+00
 E= -1790.01958009204     Delta-E=       -0.000006835015 Rises=F Damp=F
 DIIS: error= 1.00D-04 at cycle   2 NSaved=   2.
 NSaved= 2 IEnMin= 2 EnMin= -1790.01958009204     IErMin= 2 ErrMin= 1.00D-04
 ErrMax= 1.00D-04 EMaxC= 1.00D-01 BMatC= 7.65D-06 BMatP= 1.43D-05
 IDIUse=3 WtCom= 9.99D-01 WtEn= 1.00D-03
 Coeff-Com:  0.384D+00 0.616D+00
 Coeff-En:   0.147D+00 0.853D+00
 Coeff:      0.384D+00 0.616D+00
 Gap=     0.180 Goal=   None    Shift=    0.000
 RMSDP=9.55D-06 MaxDP=7.14D-04 DE=-6.84D-06 OVMax= 1.03D-03

 Cycle  10  Pass 1  IDiag  1:
 RMSU=  6.74D-06    CP:  1.00D+00  1.00D+00
 E= -1790.01957973055     Delta-E=        0.000000361490 Rises=F Damp=F
 DIIS: error= 9.68D-05 at cycle   3 NSaved=   3.
 NSaved= 3 IEnMin= 2 EnMin= -1790.01958009204     IErMin= 3 ErrMin= 9.68D-05
 ErrMax= 9.68D-05 EMaxC= 1.00D-01 BMatC= 8.07D-06 BMatP= 7.65D-06
 IDIUse=1 WtCom= 1.00D+00 WtEn= 0.00D+00
 Coeff-Com:  0.589D-02 0.505D+00 0.489D+00
 Coeff:      0.589D-02 0.505D+00 0.489D+00
 Gap=     0.180 Goal=   None    Shift=    0.000
 RMSDP=5.08D-06 MaxDP=3.76D-04 DE= 3.61D-07 OVMax= 5.81D-04

 Cycle  11  Pass 1  IDiag  1:
 RMSU=  9.86D-07    CP:  1.00D+00  1.01D+00  4.96D-01
 E= -1790.01958662841     Delta-E=       -0.000006897852 Rises=F Damp=F
 DIIS: error= 1.12D-05 at cycle   4 NSaved=   4.
 NSaved= 4 IEnMin= 4 EnMin= -1790.01958662841     IErMin= 4 ErrMin= 1.12D-05
 ErrMax= 1.12D-05 EMaxC= 1.00D-01 BMatC= 2.32D-07 BMatP= 7.65D-06
 IDIUse=1 WtCom= 1.00D+00 WtEn= 0.00D+00
 Coeff-Com: -0.357D-02 0.323D+00 0.326D+00 0.355D+00
 Coeff:     -0.357D-02 0.323D+00 0.326D+00 0.355D+00
 Gap=     0.180 Goal=   None    Shift=    0.000
 RMSDP=8.70D-07 MaxDP=6.06D-05 DE=-6.90D-06 OVMax= 1.25D-04

 Cycle  12  Pass 1  IDiag  1:
 RMSU=  2.35D-07    CP:  1.00D+00  1.01D+00  5.07D-01  4.28D-01
 E= -1790.01958685685     Delta-E=       -0.000000228448 Rises=F Damp=F
 DIIS: error= 1.45D-06 at cycle   5 NSaved=   5.
 NSaved= 5 IEnMin= 5 EnMin= -1790.01958685685     IErMin= 5 ErrMin= 1.45D-06
 ErrMax= 1.45D-06 EMaxC= 1.00D-01 BMatC= 2.65D-09 BMatP= 2.32D-07
 IDIUse=1 WtCom= 1.00D+00 WtEn= 0.00D+00
 Coeff-Com: -0.213D-02 0.163D+00 0.165D+00 0.194D+00 0.481D+00
 Coeff:     -0.213D-02 0.163D+00 0.165D+00 0.194D+00 0.481D+00
 Gap=     0.180 Goal=   None    Shift=    0.000
 RMSDP=1.29D-07 MaxDP=9.07D-06 DE=-2.28D-07 OVMax= 1.38D-05

 Cycle  13  Pass 1  IDiag  1:
 RMSU=  7.48D-08    CP:  1.00D+00  1.01D+00  5.06D-01  4.37D-01  7.85D-01
 E= -1790.01958685937     Delta-E=       -0.000000002515 Rises=F Damp=F
 DIIS: error= 6.91D-07 at cycle   6 NSaved=   6.
 NSaved= 6 IEnMin= 6 EnMin= -1790.01958685937     IErMin= 6 ErrMin= 6.91D-07
 ErrMax= 6.91D-07 EMaxC= 1.00D-01 BMatC= 2.68D-10 BMatP= 2.65D-09
 IDIUse=1 WtCom= 1.00D+00 WtEn= 0.00D+00
 Coeff-Com: -0.882D-03 0.624D-01 0.632D-01 0.775D-01 0.279D+00 0.519D+00
 Coeff:     -0.882D-03 0.624D-01 0.632D-01 0.775D-01 0.279D+00 0.519D+00
 Gap=     0.180 Goal=   None    Shift=    0.000
 RMSDP=3.80D-08 MaxDP=1.56D-06 DE=-2.51D-09 OVMax= 3.78D-06

 Cycle  14  Pass 1  IDiag  1:
 RMSU=  2.04D-08    CP:  1.00D+00  1.01D+00  5.06D-01  4.37D-01  8.21D-01
                    CP:  7.99D-01
 E= -1790.01958685960     Delta-E=       -0.000000000234 Rises=F Damp=F
 DIIS: error= 3.56D-07 at cycle   7 NSaved=   7.
 NSaved= 7 IEnMin= 7 EnMin= -1790.01958685960     IErMin= 7 ErrMin= 3.56D-07
 ErrMax= 3.56D-07 EMaxC= 1.00D-01 BMatC= 2.76D-11 BMatP= 2.68D-10
 IDIUse=1 WtCom= 1.00D+00 WtEn= 0.00D+00
 Coeff-Com: -0.179D-03 0.109D-01 0.111D-01 0.150D-01 0.836D-01 0.283D+00
 Coeff-Com:  0.597D+00
 Coeff:     -0.179D-03 0.109D-01 0.111D-01 0.150D-01 0.836D-01 0.283D+00
 Coeff:      0.597D+00
 Gap=     0.180 Goal=   None    Shift=    0.000
 RMSDP=1.41D-08 MaxDP=7.34D-07 DE=-2.34D-10 OVMax= 1.53D-06

 Cycle  15  Pass 1  IDiag  1:
 RMSU=  7.33D-09    CP:  1.00D+00  1.01D+00  5.06D-01  4.38D-01  8.27D-01
                    CP:  8.28D-01  6.98D-01
 E= -1790.01958685968     Delta-E=       -0.000000000078 Rises=F Damp=F
 DIIS: error= 1.69D-07 at cycle   8 NSaved=   8.
 NSaved= 8 IEnMin= 8 EnMin= -1790.01958685968     IErMin= 8 ErrMin= 1.69D-07
 ErrMax= 1.69D-07 EMaxC= 1.00D-01 BMatC= 6.60D-12 BMatP= 2.76D-11
 IDIUse=1 WtCom= 1.00D+00 WtEn= 0.00D+00
 Coeff-Com:  0.126D-04-0.197D-02-0.201D-02-0.151D-02 0.121D-01 0.102D+00
 Coeff-Com:  0.381D+00 0.510D+00
 Coeff:      0.126D-04-0.197D-02-0.201D-02-0.151D-02 0.121D-01 0.102D+00
 Coeff:      0.381D+00 0.510D+00
 Gap=     0.180 Goal=   None    Shift=    0.000
 RMSDP=6.02D-09 MaxDP=2.75D-07 DE=-7.82D-11 OVMax= 9.08D-07

 SCF Done:  E(RB3LYP) =  -1790.01958686     A.U. after   15 cycles
             Convg  =    0.6025D-08             -V/T =  2.0055
 KE= 1.780236700045D+03 PE=-1.027431455442D+04 EE= 3.659370896627D+03
 Leave Link  502 at Sat Sep 10 14:40:36 2022, MaxMem=  209715200 cpu:    5740.8
 (Enter /opt/gaussian/l601.exe)
 Copying SCF densities to generalized density rwf, IOpCl= 0 IROHF=0.

 **********************************************************************

            Population analysis using the SCF density.

 **********************************************************************

 Orbital symmetries:
       Occupied  (A) (A) (A) (A) (A) (A) (A) (A) (A) (A) (A) (A)
                 (A) (A) (A) (A) (A) (A) (A) (A) (A) (A) (A) (A)
                 (A) (A) (A) (A) (A) (A) (A) (A) (A) (A) (A) (A)
                 (A) (A) (A) (A) (A) (A) (A) (A) (A) (A) (A) (A)
                 (A) (A) (A) (A) (A) (A) (A) (A) (A) (A) (A) (A)
                 (A) (A) (A) (A) (A) (A) (A) (A) (A) (A) (A) (A)
                 (A) (A) (A) (A) (A) (A) (A) (A) (A) (A) (A) (A)
                 (A) (A) (A) (A) (A) (A) (A) (A) (A) (A) (A) (A)
                 (A) (A) (A) (A) (A) (A) (A) (A) (A) (A) (A) (A)
                 (A) (A) (A) (A) (A) (A) (A)
       Virtual   (A) (A) (A) (A) (A) (A) (A) (A) (A) (A) (A) (A)
                 (A) (A) (A) (A) (A) (A) (A) (A) (A) (A) (A) (A)
                 (A) (A) (A) (A) (A) (A) (A) (A) (A) (A) (A) (A)
                 (A) (A) (A) (A) (A) (A) (A) (A) (A) (A) (A) (A)
                 (A) (A) (A) (A) (A) (A) (A) (A) (A) (A) (A) (A)
                 (A) (A) (A) (A) (A) (A) (A) (A) (A) (A) (A) (A)
                 (A) (A) (A) (A) (A) (A) (A) (A) (A) (A) (A) (A)
                 (A) (A) (A) (A) (A) (A) (A) (A) (A) (A) (A) (A)
                 (A) (A) (A) (A) (A) (A) (A) (A) (A) (A) (A) (A)
                 (A) (A) (A) (A) (A) (A) (A) (A) (A) (A) (A) (A)
                 (A) (A) (A) (A) (A) (A) (A) (A) (A) (A) (A) (A)
                 (A) (A) (A) (A) (A) (A) (A) (A) (A) (A) (A) (A)
                 (A) (A) (A) (A) (A) (A) (A) (A) (A) (A) (A) (A)
                 (A) (A) (A) (A) (A) (A) (A) (A) (A) (A) (A) (A)
                 (A) (A) (A) (A) (A) (A) (A) (A) (A) (A) (A) (A)
                 (A) (A) (A) (A) (A) (A) (A) (A) (A) (A) (A) (A)
                 (A) (A) (A) (A) (A) (A) (A) (A) (A) (A) (A) (A)
                 (A) (A) (A) (A) (A) (A) (A) (A) (A) (A) (A) (A)
                 (A) (A) (A) (A) (A) (A) (A) (A) (A) (A) (A) (A)
                 (A) (A) (A) (A) (A) (A) (A) (A) (A) (A) (A) (A)
                 (A) (A) (A) (A) (A) (A) (A) (A) (A) (A) (A) (A)
                 (A) (A) (A) (A) (A) (A) (A) (A) (A) (A) (A) (A)
                 (A) (A) (A) (A) (A) (A) (A) (A) (A) (A) (A) (A)
                 (A) (A) (A) (A) (A) (A) (A) (A) (A) (A) (A) (A)
                 (A) (A) (A) (A) (A) (A) (A) (A) (A) (A) (A) (A)
                 (A) (A) (A) (A) (A) (A) (A) (A) (A) (A) (A) (A)
                 (A) (A) (A) (A) (A) (A) (A) (A) (A) (A) (A) (A)
                 (A) (A) (A) (A) (A) (A) (A) (A) (A) (A) (A) (A)
                 (A) (A) (A) (A) (A) (A) (A) (A) (A) (A) (A) (A)
                 (A) (A) (A) (A) (A) (A) (A) (A) (A) (A) (A) (A)
                 (A) (A) (A) (A) (A) (A) (A) (A) (A) (A) (A) (A)
                 (A) (A) (A) (A) (A) (A) (A) (A) (A) (A) (A) (A)
                 (A) (A) (A) (A) (A) (A) (A) (A) (A) (A) (A) (A)
                 (A) (A) (A) (A) (A) (A) (A) (A) (A) (A) (A) (A)
                 (A) (A) (A) (A) (A) (A) (A) (A) (A) (A) (A) (A)
                 (A) (A) (A) (A) (A) (A) (A) (A) (A) (A) (A) (A)
 The electronic state is 1-A.
 Alpha  occ. eigenvalues -- -101.54552 -19.12138 -14.40826 -14.40596 -14.38404
 Alpha  occ. eigenvalues --  -14.37505 -14.34216 -14.32530 -10.30128 -10.25780
 Alpha  occ. eigenvalues --  -10.25471 -10.25007 -10.24035 -10.23683 -10.23493
 Alpha  occ. eigenvalues --  -10.22619 -10.22222 -10.21528 -10.21211 -10.20879
 Alpha  occ. eigenvalues --  -10.20763 -10.20733 -10.20729 -10.20683 -10.20614
 Alpha  occ. eigenvalues --  -10.20574 -10.20009 -10.19873 -10.19815 -10.19564
 Alpha  occ. eigenvalues --  -10.19406 -10.19021  -9.46365  -7.22620  -7.21656
 Alpha  occ. eigenvalues --   -7.21620  -1.08826  -1.05181  -1.03326  -0.95708
 Alpha  occ. eigenvalues --   -0.91833  -0.89496  -0.89398  -0.86552  -0.85913
 Alpha  occ. eigenvalues --   -0.84241  -0.79255  -0.78305  -0.77099  -0.76370
 Alpha  occ. eigenvalues --   -0.76235  -0.74529  -0.74202  -0.73632  -0.69948
 Alpha  occ. eigenvalues --   -0.65726  -0.64367  -0.63984  -0.62092  -0.61774
 Alpha  occ. eigenvalues --   -0.61700  -0.60728  -0.59259  -0.58399  -0.57376
 Alpha  occ. eigenvalues --   -0.56447  -0.53965  -0.52306  -0.52083  -0.51712
 Alpha  occ. eigenvalues --   -0.49769  -0.48810  -0.48239  -0.47967  -0.47012
 Alpha  occ. eigenvalues --   -0.46362  -0.46154  -0.45517  -0.45207  -0.45084
 Alpha  occ. eigenvalues --   -0.44946  -0.44257  -0.43897  -0.43531  -0.43286
 Alpha  occ. eigenvalues --   -0.42906  -0.42763  -0.41275  -0.40360  -0.39745
 Alpha  occ. eigenvalues --   -0.38816  -0.38412  -0.37674  -0.37233  -0.36585
 Alpha  occ. eigenvalues --   -0.36195  -0.35972  -0.35885  -0.35099  -0.33423
 Alpha  occ. eigenvalues --   -0.32468  -0.31626  -0.31465  -0.30604  -0.28783
 Alpha  occ. eigenvalues --   -0.28423  -0.27531  -0.27032  -0.26492  -0.26063
 Alpha  occ. eigenvalues --   -0.25966  -0.24984  -0.24446  -0.23067  -0.22485
 Alpha virt. eigenvalues --   -0.04465  -0.03699  -0.02829  -0.02473  -0.01988
 Alpha virt. eigenvalues --    0.00522   0.01216   0.01477   0.02751   0.03150
 Alpha virt. eigenvalues --    0.04078   0.04686   0.05870   0.06504   0.07147
 Alpha virt. eigenvalues --    0.07804   0.08471   0.09003   0.09030   0.09948
 Alpha virt. eigenvalues --    0.10505   0.11533   0.11831   0.12500   0.13001
 Alpha virt. eigenvalues --    0.13254   0.13373   0.14336   0.14653   0.15283
 Alpha virt. eigenvalues --    0.15526   0.16160   0.16597   0.16650   0.18516
 Alpha virt. eigenvalues --    0.20100   0.20401   0.20516   0.20658   0.21906
 Alpha virt. eigenvalues --    0.23333   0.24710   0.24871   0.25170   0.25368
 Alpha virt. eigenvalues --    0.25463   0.27269   0.27648   0.27866   0.28299
 Alpha virt. eigenvalues --    0.30145   0.30591   0.30791   0.31175   0.31934
 Alpha virt. eigenvalues --    0.32696   0.34082   0.35544   0.36172   0.37029
 Alpha virt. eigenvalues --    0.37556   0.37911   0.38501   0.40008   0.40413
 Alpha virt. eigenvalues --    0.41339   0.42352   0.42848   0.43983   0.44142
 Alpha virt. eigenvalues --    0.44441   0.45054   0.45709   0.45931   0.46168
 Alpha virt. eigenvalues --    0.46511   0.46677   0.46945   0.47114   0.47588
 Alpha virt. eigenvalues --    0.47974   0.48169   0.48335   0.48834   0.49177
 Alpha virt. eigenvalues --    0.49746   0.49787   0.49984   0.50304   0.50741
 Alpha virt. eigenvalues --    0.50810   0.51281   0.51380   0.51583   0.52009
 Alpha virt. eigenvalues --    0.52266   0.52828   0.53263   0.53894   0.54539
 Alpha virt. eigenvalues --    0.54835   0.55136   0.55710   0.55823   0.56445
 Alpha virt. eigenvalues --    0.56461   0.56752   0.57290   0.57810   0.58228
 Alpha virt. eigenvalues --    0.58963   0.59645   0.60148   0.60659   0.61088
 Alpha virt. eigenvalues --    0.61344   0.62582   0.63021   0.63149   0.64273
 Alpha virt. eigenvalues --    0.64505   0.64854   0.64889   0.65074   0.65615
 Alpha virt. eigenvalues --    0.65822   0.66139   0.66670   0.67295   0.67645
 Alpha virt. eigenvalues --    0.67875   0.68249   0.69159   0.69748   0.70186
 Alpha virt. eigenvalues --    0.70486   0.71274   0.71774   0.72043   0.72239
 Alpha virt. eigenvalues --    0.72930   0.73358   0.73901   0.74091   0.74972
 Alpha virt. eigenvalues --    0.75892   0.76480   0.77261   0.78048   0.78601
 Alpha virt. eigenvalues --    0.79305   0.81279   0.81694   0.82887   0.83209
 Alpha virt. eigenvalues --    0.83883   0.84131   0.84570   0.85396   0.85901
 Alpha virt. eigenvalues --    0.86095   0.86674   0.87076   0.88064   0.88189
 Alpha virt. eigenvalues --    0.88695   0.89296   0.89343   0.89984   0.90752
 Alpha virt. eigenvalues --    0.90958   0.91691   0.92319   0.92397   0.92903
 Alpha virt. eigenvalues --    0.93313   0.93659   0.95293   0.95361   0.96248
 Alpha virt. eigenvalues --    0.97178   0.98326   0.98708   0.99354   0.99462
 Alpha virt. eigenvalues --    1.00172   1.00521   1.00814   1.01050   1.01388
 Alpha virt. eigenvalues --    1.02100   1.02494   1.03092   1.03943   1.04285
 Alpha virt. eigenvalues --    1.04880   1.05309   1.05637   1.06295   1.06371
 Alpha virt. eigenvalues --    1.06729   1.06877   1.08281   1.08618   1.09134
 Alpha virt. eigenvalues --    1.09698   1.10395   1.11417   1.12577   1.13197
 Alpha virt. eigenvalues --    1.14481   1.16283   1.16374   1.17919   1.19079
 Alpha virt. eigenvalues --    1.19145   1.19383   1.20225   1.21248   1.22198
 Alpha virt. eigenvalues --    1.23650   1.24481   1.24723   1.26068   1.26555
 Alpha virt. eigenvalues --    1.28382   1.29326   1.29741   1.30437   1.31402
 Alpha virt. eigenvalues --    1.32605   1.32979   1.35075   1.37380   1.38698
 Alpha virt. eigenvalues --    1.40323   1.40541   1.41487   1.41833   1.43293
 Alpha virt. eigenvalues --    1.43434   1.43965   1.44165   1.45715   1.46658
 Alpha virt. eigenvalues --    1.47237   1.47644   1.48479   1.48696   1.49638
 Alpha virt. eigenvalues --    1.50225   1.50713   1.51017   1.52036   1.52700
 Alpha virt. eigenvalues --    1.53234   1.54535   1.55329   1.55863   1.56216
 Alpha virt. eigenvalues --    1.56566   1.57507   1.57852   1.58664   1.58796
 Alpha virt. eigenvalues --    1.59837   1.59862   1.60875   1.61242   1.61660
 Alpha virt. eigenvalues --    1.62147   1.62289   1.62589   1.62932   1.63211
 Alpha virt. eigenvalues --    1.63672   1.64409   1.64786   1.65315   1.65525
 Alpha virt. eigenvalues --    1.66933   1.67041   1.67101   1.68238   1.68593
 Alpha virt. eigenvalues --    1.69096   1.69588   1.70403   1.70832   1.71536
 Alpha virt. eigenvalues --    1.71758   1.72228   1.72634   1.73075   1.73490
 Alpha virt. eigenvalues --    1.74429   1.74749   1.75018   1.76105   1.76490
 Alpha virt. eigenvalues --    1.77177   1.77343   1.77684   1.78412   1.78621
 Alpha virt. eigenvalues --    1.80009   1.80342   1.80897   1.81627   1.82032
 Alpha virt. eigenvalues --    1.82265   1.82789   1.83059   1.83933   1.84632
 Alpha virt. eigenvalues --    1.85157   1.85505   1.86099   1.86851   1.87558
 Alpha virt. eigenvalues --    1.87944   1.88134   1.88333   1.89429   1.90396
 Alpha virt. eigenvalues --    1.90579   1.91943   1.93115   1.93497   1.94442
 Alpha virt. eigenvalues --    1.95817   1.96400   1.96612   1.97243   1.97682
 Alpha virt. eigenvalues --    1.98424   1.99000   1.99262   2.00084   2.00783
 Alpha virt. eigenvalues --    2.02740   2.03083   2.03957   2.04013   2.05823
 Alpha virt. eigenvalues --    2.06958   2.07879   2.08455   2.09767   2.11482
 Alpha virt. eigenvalues --    2.11596   2.12784   2.13858   2.15028   2.15772
 Alpha virt. eigenvalues --    2.16318   2.17516   2.18443   2.19097   2.19874
 Alpha virt. eigenvalues --    2.20242   2.21591   2.22203   2.24033   2.26187
 Alpha virt. eigenvalues --    2.27271   2.29466   2.30882   2.32059   2.32886
 Alpha virt. eigenvalues --    2.33629   2.34980   2.36386   2.37787   2.39256
 Alpha virt. eigenvalues --    2.39678   2.40335   2.40698   2.41116   2.41703
 Alpha virt. eigenvalues --    2.41912   2.43164   2.43243   2.44716   2.45710
 Alpha virt. eigenvalues --    2.48496   2.48983   2.50297   2.51120   2.52238
 Alpha virt. eigenvalues --    2.52698   2.54533   2.55545   2.57677   2.58751
 Alpha virt. eigenvalues --    2.59962   2.61445   2.62878   2.63363   2.66605
 Alpha virt. eigenvalues --    2.67190   2.69151   2.69597   2.70384   2.71049
 Alpha virt. eigenvalues --    2.71928   2.73317   2.74036   2.74362   2.75677
 Alpha virt. eigenvalues --    2.76906   2.77710   2.78031   2.79666   2.80510
 Alpha virt. eigenvalues --    2.82415   2.86546   2.90292   2.94314   2.95295
 Alpha virt. eigenvalues --    2.97988   3.02095   3.06285   3.07459   3.10087
 Alpha virt. eigenvalues --    3.14727   3.36056   3.40303   3.41220   3.49966
 Alpha virt. eigenvalues --    3.53115   3.54164
          Condensed to atoms (all electrons):
 Mulliken atomic charges:
              1
     1  C    0.211342
     2  C    0.010199
     3  C    0.034509
     4  C    0.043594
     5  C    0.037753
     6  C    0.036954
     7  N   -0.230069
     8  N   -0.183833
     9  N   -0.060903
    10  C    0.152829
    11  C    0.136496
    12  N   -0.247119
    13  O   -0.267582
    14  C    0.193453
    15  C   -0.140943
    16  C    0.114292
    17  C    0.122639
    18  C    0.045133
    19  C   -0.085241
    20  C    0.032542
    21  Cl  -0.094091
    22  C   -0.004676
    23  C    0.016162
    24  C    0.092230
    25  C    0.053932
    26  C   -0.028227
    27  C    0.092640
    28  C    0.097832
    29  C    0.003394
    30  N   -0.217943
    31  N   -0.043501
    32  C    0.140360
    33  H   -0.032465
    34  H   -0.023992
    35  H   -0.027777
    36  H   -0.028994
    37  H    0.060439
    38  H    0.050441
    39  H    0.043237
    40  H    0.009199
    41  H   -0.021543
    42  H   -0.029270
    43  H   -0.018256
    44  H   -0.015455
    45  H   -0.044052
    46  H   -0.033373
    47  H   -0.025302
    48  H   -0.032479
    49  H    0.000494
    50  H    0.096311
    51  H    0.008683
 Sum of Mulliken atomic charges =   0.00000
 Mulliken charges with hydrogens summed into heavy atoms:
              1
     1  C    0.211342
     2  C    0.010199
     3  C    0.002044
     4  C    0.019602
     5  C    0.009975
     6  C    0.007960
     7  N   -0.230069
     8  N   -0.183833
     9  N   -0.060903
    10  C    0.263708
    11  C    0.136496
    12  N   -0.247119
    13  O   -0.267582
    14  C    0.245889
    15  C   -0.140943
    16  C    0.092748
    17  C    0.093369
    18  C    0.026877
    19  C   -0.085241
    20  C    0.017087
    21  Cl  -0.094091
    22  C   -0.048728
    23  C    0.016162
    24  C    0.058857
    25  C    0.028630
    26  C   -0.028227
    27  C    0.060162
    28  C    0.097832
    29  C    0.003887
    30  N   -0.217943
    31  N    0.052810
    32  C    0.149043
 Sum of Mulliken charges with hydrogens summed into heavy atoms =   0.00000
 Electronic spatial extent (au):  <R**2>=          19026.8832
 Charge=              0.0000 electrons
 Dipole moment (field-independent basis, Debye):
    X=              6.6009    Y=             -0.2848    Z=             -5.0346  Tot=              8.3066
 Quadrupole moment (field-independent basis, Debye-Ang):
   XX=           -169.6134   YY=           -192.2107   ZZ=           -180.6477
   XY=            -40.2543   XZ=             -4.7970   YZ=              9.8741
 Traceless Quadrupole moment (field-independent basis, Debye-Ang):
   XX=             11.2105   YY=            -11.3868   ZZ=              0.1762
   XY=            -40.2543   XZ=             -4.7970   YZ=              9.8741
 Octapole moment (field-independent basis, Debye-Ang**2):
  XXX=            244.5347  YYY=            -14.0282  ZZZ=             -3.5985  XYY=            124.3603
  XXY=           -152.4582  XXZ=           -170.4822  XZZ=             57.5014  YZZ=             -4.9326
  YYZ=            -74.7101  XYZ=             63.1430
 Hexadecapole moment (field-independent basis, Debye-Ang**3):
 XXXX=         -13127.1133 YYYY=          -8892.9088 ZZZZ=          -1285.2644 XXXY=          -1504.8445
 XXXZ=           -423.5514 YYYX=           -909.3206 YYYZ=             48.6789 ZZZX=           -155.7822
 ZZZY=             43.6499 XXYY=          -3528.9009 XXZZ=          -2628.3486 YYZZ=          -1668.0308
 XXYZ=            463.6751 YYXZ=           -191.3006 ZZXY=           -183.9900
 N-N= 3.044687370885D+03 E-N=-1.027431455457D+04  KE= 1.780236700045D+03
 No NMR shielding tensors so no spin-rotation constants.
 Leave Link  601 at Sat Sep 10 14:40:37 2022, MaxMem=  209715200 cpu:       3.9
 (Enter /opt/gaussian/l602.exe)
 Breneman (CHELPG) radii used.
 Read replacement radii for each type of atom:
 Rad(35) =   1.900000000000D+00
 Atom Element Radius
    1     6    1.50
    2     6    1.50
    3     6    1.50
    4     6    1.50
    5     6    1.50
    6     6    1.50
    7     7    1.70
    8     7    1.70
    9     7    1.70
   10     6    1.50
   11     6    1.50
   12     7    1.70
   13     8    1.70
   14     6    1.50
   15     6    1.50
   16     6    1.50
   17     6    1.50
   18     6    1.50
   19     6    1.50
   20     6    1.50
   21    17    2.00
   22     6    1.50
   23     6    1.50
   24     6    1.50
   25     6    1.50
   26     6    1.50
   27     6    1.50
   28     6    1.50
   29     6    1.50
   30     7    1.70
   31     7    1.70
   32     6    1.50
   33     1    1.45
   34     1    1.45
   35     1    1.45
   36     1    1.45
   37     1    1.45
   38     1    1.45
   39     1    1.45
   40     1    1.45
   41     1    1.45
   42     1    1.45
   43     1    1.45
   44     1    1.45
   45     1    1.45
   46     1    1.45
   47     1    1.45
   48     1    1.45
   49     1    1.45
   50     1    1.45
   51     1    1.45
 Generate Potential Derived Charges using the Breneman model, NDens= 1.
 Grid spacing= 0.300 Box extension= 2.800
 NStep X,Y,Z=   68     57     37   Total possible points=      143412
 Number of Points to Fit=   28985

 **********************************************************************

            Electrostatic Properties Using The SCF Density

 **********************************************************************

       Atomic Center    1 is at  -4.271041 -1.041591 -0.423021
       Atomic Center    2 is at  -5.321520 -1.898031 -0.028611
       Atomic Center    3 is at  -4.480991  0.049129 -1.283311
       Atomic Center    4 is at  -6.632600 -1.687951 -0.491981
       Atomic Center    5 is at  -5.780121  0.237179 -1.736881
       Atomic Center    6 is at  -6.844091 -0.617281 -1.348851
       Atomic Center    7 is at  -3.176130 -1.570821  0.203869
       Atomic Center    8 is at  -4.807410 -2.870901  0.806649
       Atomic Center    9 is at  -3.541180 -2.669121  0.934899
       Atomic Center   10 is at  -1.785471 -1.188771  0.165379
       Atomic Center   11 is at  -1.523961  0.148729  0.879609
       Atomic Center   12 is at  -0.207891  0.437870  1.149069
       Atomic Center   13 is at  -2.441941  0.904899  1.168199
       Atomic Center   14 is at   0.098149  1.703160  1.851639
       Atomic Center   15 is at   1.997919  4.325160 -0.164881
       Atomic Center   16 is at   0.971769  5.001700 -0.824281
       Atomic Center   17 is at   1.729449  3.263700  0.702529
       Atomic Center   18 is at  -0.348801  4.598130 -0.600521
       Atomic Center   19 is at   0.404759  2.861660  0.920469
       Atomic Center   20 is at  -0.635691  3.539479  0.262909
       Atomic Center   21 is at   3.669089  4.818740 -0.427501
       Atomic Center   22 is at   2.531099 -1.067400 -0.908331
       Atomic Center   23 is at   3.076910 -2.012650 -0.020881
       Atomic Center   24 is at   1.452849 -0.267670 -0.531131
       Atomic Center   25 is at   2.507280 -2.130880  1.260919
       Atomic Center   26 is at   0.887989 -0.399510  0.744929
       Atomic Center   27 is at   1.428899 -1.333760  1.639719
       Atomic Center   28 is at   4.212230 -2.867310 -0.394461
       Atomic Center   29 is at   4.909900 -2.922530 -1.589901
       Atomic Center   30 is at   4.740830 -3.786000  0.496709
       Atomic Center   31 is at   5.871100 -3.890470 -1.408911
       Atomic Center   32 is at   5.726590 -4.377880 -0.139071
       Atomic Center   33 is at  -3.674631  0.727479 -1.561701
       Atomic Center   34 is at  -7.441090 -2.351371 -0.181141
       Atomic Center   35 is at  -5.993011  1.074389 -2.405551
       Atomic Center   36 is at  -7.847461 -0.419281 -1.731461
       Atomic Center   37 is at  -1.224960 -2.008061  0.632159
       Atomic Center   38 is at  -1.443601 -1.110071 -0.880091
       Atomic Center   39 is at  -0.779661  1.938759  2.467269
       Atomic Center   40 is at   0.954789  1.509830  2.512239
       Atomic Center   41 is at   1.204029  5.830100 -1.494091
       Atomic Center   42 is at   2.553939  2.757090  1.206689
       Atomic Center   43 is at  -1.161791  5.125509 -1.104771
       Atomic Center   44 is at  -1.666171  3.225139  0.437109
       Atomic Center   45 is at   2.953389 -0.945800 -1.907981
       Atomic Center   46 is at   1.044179  0.469800 -1.224211
       Atomic Center   47 is at   2.928300 -2.863300  1.949969
       Atomic Center   48 is at   0.991080 -1.435720  2.635309
       Atomic Center   49 is at   4.815350 -2.380060 -2.524921
       Atomic Center   50 is at   6.556830 -4.184630 -2.093001
       Atomic Center   51 is at   6.367260 -5.160330  0.262099
   28985 points will be used for fitting atomic charges
 Fitting point charges to electrostatic potential
 Charges from ESP fit, RMS=   0.00411 RRMS=   0.22584:
 Charge=   0.00000 Dipole=     6.3255    -0.3934    -4.9991 Tot=     8.0720
              1
     1  C   -0.105221
     2  C    0.435395
     3  C   -0.128196
     4  C   -0.283355
     5  C   -0.104157
     6  C   -0.048138
     7  N    0.323076
     8  N   -0.361594
     9  N   -0.203361
    10  C   -0.064723
    11  C    0.532381
    12  N   -0.263535
    13  O   -0.498886
    14  C    0.030429
    15  C    0.089069
    16  C   -0.093331
    17  C   -0.109831
    18  C   -0.070019
    19  C    0.096465
    20  C   -0.165538
    21  Cl  -0.135828
    22  C   -0.191727
    23  C   -0.022816
    24  C   -0.055738
    25  C   -0.009464
    26  C    0.215811
    27  C   -0.146042
    28  C    0.304757
    29  C   -0.239466
    30  N   -0.472755
    31  N   -0.225452
    32  C    0.203566
    33  H    0.108242
    34  H    0.136126
    35  H    0.090170
    36  H    0.085910
    37  H   -0.013618
    38  H    0.028954
    39  H    0.053199
    40  H    0.034799
    41  H    0.095000
    42  H    0.066744
    43  H    0.095045
    44  H    0.122780
    45  H    0.109189
    46  H    0.058045
    47  H    0.058111
    48  H    0.102907
    49  H    0.162527
    50  H    0.296949
    51  H    0.077145
 Charges from ESP fit with hydrogens summed into heavy atoms:
              1
     1  C   -0.105221
     2  C    0.435395
     3  C   -0.019954
     4  C   -0.147229
     5  C   -0.013988
     6  C    0.037772
     7  N    0.323076
     8  N   -0.361594
     9  N   -0.203361
    10  C   -0.049388
    11  C    0.532381
    12  N   -0.263535
    13  O   -0.498886
    14  C    0.118427
    15  C    0.089069
    16  C    0.001669
    17  C   -0.043087
    18  C    0.025025
    19  C    0.096465
    20  C   -0.042758
    21  Cl  -0.135828
    22  C   -0.082538
    23  C   -0.022816
    24  C    0.002308
    25  C    0.048648
    26  C    0.215811
    27  C   -0.043135
    28  C    0.304757
    29  C   -0.076939
    30  N   -0.472755
    31  N    0.071498
    32  C    0.280711
    33  H    0.000000
    34  H    0.000000
    35  H    0.000000
    36  H    0.000000
    37  H    0.000000
    38  H    0.000000
    39  H    0.000000
    40  H    0.000000
    41  H    0.000000
    42  H    0.000000
    43  H    0.000000
    44  H    0.000000
    45  H    0.000000
    46  H    0.000000
    47  H    0.000000
    48  H    0.000000
    49  H    0.000000
    50  H    0.000000
    51  H    0.000000
 -----------------------------------------------------------------

              Electrostatic Properties (Atomic Units)

 -----------------------------------------------------------------
    Center     Electric         -------- Electric Field --------
               Potential          X             Y             Z
 -----------------------------------------------------------------
    1 Atom    -14.719731
    2 Atom    -14.742262
    3 Atom    -14.746772
    4 Atom    -14.752466
    5 Atom    -14.750426
    6 Atom    -14.755611
    7 Atom    -18.298666
    8 Atom    -18.374551
    9 Atom    -18.336488
   10 Atom    -14.689582
   11 Atom    -14.641676
   12 Atom    -18.327173
   13 Atom    -22.368160
   14 Atom    -14.702607
   15 Atom    -14.692188
   16 Atom    -14.739390
   17 Atom    -14.740179
   18 Atom    -14.740600
   19 Atom    -14.734668
   20 Atom    -14.749080
   21 Atom    -64.409298
   22 Atom    -14.739555
   23 Atom    -14.731343
   24 Atom    -14.738881
   25 Atom    -14.747220
   26 Atom    -14.703891
   27 Atom    -14.740896
   28 Atom    -14.722380
   29 Atom    -14.709148
   30 Atom    -18.388507
   31 Atom    -18.294716
   32 Atom    -14.685549
   33 Atom     -1.086874
   34 Atom     -1.093505
   35 Atom     -1.095899
   36 Atom     -1.099093
   37 Atom     -1.065897
   38 Atom     -1.064032
   39 Atom     -1.089494
   40 Atom     -1.086423
   41 Atom     -1.078413
   42 Atom     -1.078039
   43 Atom     -1.084208
   44 Atom     -1.092036
   45 Atom     -1.079643
   46 Atom     -1.077468
   47 Atom     -1.093177
   48 Atom     -1.079545
   49 Atom     -1.047210
   50 Atom     -0.956683
   51 Atom     -1.051146
 -----------------------------------------------------------------
 Leave Link  602 at Sat Sep 10 14:40:52 2022, MaxMem=  209715200 cpu:     107.9
 (Enter /opt/gaussian/l9999.exe)
 1\1\GINC-LQCAPF-6\SP\RB3LYP\CC-pVDZ\C24H19Cl1N6O1\LQCAPF-6\10-Sep-2022
 \0\\#p b3lyp/cc-pvdz pop=(chelpg,readradii)\\Mol41.log\\0,1\C,0,4.2710
 4,-1.04159,0.42302\C,0,5.32152,-1.89803,0.02861\C,0,4.48099,0.04913,1.
 28331\C,0,6.6326,-1.68795,0.49198\C,0,5.78012,0.23718,1.73688\C,0,6.84
 409,-0.61728,1.34885\N,0,3.17613,-1.57082,-0.20387\N,0,4.80741,-2.8709
 ,-0.80665\N,0,3.54118,-2.66912,-0.9349\C,0,1.78547,-1.18877,-0.16538\C
 ,0,1.52396,0.14873,-0.87961\N,0,0.20789,0.43787,-1.14907\O,0,2.44194,0
 .9049,-1.1682\C,0,-0.09815,1.70316,-1.85164\C,0,-1.99792,4.32516,0.164
 88\C,0,-0.97177,5.0017,0.82428\C,0,-1.72945,3.2637,-0.70253\C,0,0.3488
 ,4.59813,0.60052\C,0,-0.40476,2.86166,-0.92047\C,0,0.63569,3.53948,-0.
 26291\Cl,0,-3.66909,4.81874,0.4275\C,0,-2.5311,-1.0674,0.90833\C,0,-3.
 07691,-2.01265,0.02088\C,0,-1.45285,-0.26767,0.53113\C,0,-2.50728,-2.1
 3088,-1.26092\C,0,-0.88799,-0.39951,-0.74493\C,0,-1.4289,-1.33376,-1.6
 3972\C,0,-4.21223,-2.86731,0.39446\C,0,-4.9099,-2.92253,1.5899\N,0,-4.
 74083,-3.786,-0.49671\N,0,-5.8711,-3.89047,1.40891\C,0,-5.72659,-4.377
 88,0.13907\H,0,3.67463,0.72748,1.5617\H,0,7.44109,-2.35137,0.18114\H,0
 ,5.99301,1.07439,2.40555\H,0,7.84746,-0.41928,1.73146\H,0,1.22496,-2.0
 0806,-0.63216\H,0,1.4436,-1.11007,0.88009\H,0,0.77966,1.93876,-2.46727
 \H,0,-0.95479,1.50983,-2.51224\H,0,-1.20403,5.8301,1.49409\H,0,-2.5539
 4,2.75709,-1.20669\H,0,1.16179,5.12551,1.10477\H,0,1.66617,3.22514,-0.
 43711\H,0,-2.95339,-0.9458,1.90798\H,0,-1.04418,0.4698,1.22421\H,0,-2.
 9283,-2.8633,-1.94997\H,0,-0.99108,-1.43572,-2.63531\H,0,-4.81535,-2.3
 8006,2.52492\H,0,-6.55683,-4.18463,2.093\H,0,-6.36726,-5.16033,-0.2621
 \\Version=EM64L-G09RevC.01\State=1-A\HF=-1790.0195869\RMSD=6.025e-09\D
 ipole=-2.5969856,-0.1120605,1.9807742\Quadrupole=8.3347516,-8.4657848,
 0.1310332,29.9281211,-3.5664707,-7.3411322\PG=C01 [X(C24H19Cl1N6O1)]\\
 @


 KNOWLEDGE IS EXPERIMENT'S DAUGHTER.
 -- LEONARDO DA VINCI, IN "PENSIERI" CA. 1492
 Job cpu time:  0 days  1 hours 38 minutes 10.1 seconds.
 File lengths (MBytes):  RWF=    165 Int=      0 D2E=      0 Chk=     12 Scr=      1
 Normal termination of Gaussian 09 at Sat Sep 10 14:40:52 2022.
