 Entering Gaussian System, Link 0=g09
 Input=Mol07.gjf
 Output=Mol07.log
 Initial command:
 /opt/gaussian/l1.exe /home/scr/lqcapf-6/Gau-31095.inp -scrdir=/home/scr/lqcapf-6/
 Entering Link 1 = /opt/gaussian/l1.exe PID=     31097.
  
 Copyright (c) 1988,1990,1992,1993,1995,1998,2003,2009,2011,
            Gaussian, Inc.  All Rights Reserved.
  
 This is part of the Gaussian(R) 09 program.  It is based on
 the Gaussian(R) 03 system (copyright 2003, Gaussian, Inc.),
 the Gaussian(R) 98 system (copyright 1998, Gaussian, Inc.),
 the Gaussian(R) 94 system (copyright 1995, Gaussian, Inc.),
 the Gaussian 92(TM) system (copyright 1992, Gaussian, Inc.),
 the Gaussian 90(TM) system (copyright 1990, Gaussian, Inc.),
 the Gaussian 88(TM) system (copyright 1988, Gaussian, Inc.),
 the Gaussian 86(TM) system (copyright 1986, Carnegie Mellon
 University), and the Gaussian 82(TM) system (copyright 1983,
 Carnegie Mellon University). Gaussian is a federally registered
 trademark of Gaussian, Inc.
  
 This software contains proprietary and confidential information,
 including trade secrets, belonging to Gaussian, Inc.
  
 This software is provided under written license and may be
 used, copied, transmitted, or stored only in accord with that
 written license.
  
 The following legend is applicable only to US Government
 contracts under FAR:
  
                    RESTRICTED RIGHTS LEGEND
  
 Use, reproduction and disclosure by the US Government is
 subject to restrictions as set forth in subparagraphs (a)
 and (c) of the Commercial Computer Software - Restricted
 Rights clause in FAR 52.227-19.
  
 Gaussian, Inc.
 340 Quinnipiac St., Bldg. 40, Wallingford CT 06492
  
  
 ---------------------------------------------------------------
 Warning -- This program may not be used in any manner that
 competes with the business of Gaussian, Inc. or will provide
 assistance to any competitor of Gaussian, Inc.  The licensee
 of this program is prohibited from giving any competitor of
 Gaussian, Inc. access to this program.  By using this program,
 the user acknowledges that Gaussian, Inc. is engaged in the
 business of creating and licensing software in the field of
 computational chemistry and represents and warrants to the
 licensee that it is not a competitor of Gaussian, Inc. and that
 it will not use this program in any manner prohibited above.
 ---------------------------------------------------------------
  

 Cite this work as:
 Gaussian 09, Revision C.01,
 M. J. Frisch, G. W. Trucks, H. B. Schlegel, G. E. Scuseria, 
 M. A. Robb, J. R. Cheeseman, G. Scalmani, V. Barone, B. Mennucci, 
 G. A. Petersson, H. Nakatsuji, M. Caricato, X. Li, H. P. Hratchian, 
 A. F. Izmaylov, J. Bloino, G. Zheng, J. L. Sonnenberg, M. Hada, 
 M. Ehara, K. Toyota, R. Fukuda, J. Hasegawa, M. Ishida, T. Nakajima, 
 Y. Honda, O. Kitao, H. Nakai, T. Vreven, J. A. Montgomery, Jr., 
 J. E. Peralta, F. Ogliaro, M. Bearpark, J. J. Heyd, E. Brothers, 
 K. N. Kudin, V. N. Staroverov, T. Keith, R. Kobayashi, J. Normand, 
 K. Raghavachari, A. Rendell, J. C. Burant, S. S. Iyengar, J. Tomasi, 
 M. Cossi, N. Rega, J. M. Millam, M. Klene, J. E. Knox, J. B. Cross, 
 V. Bakken, C. Adamo, J. Jaramillo, R. Gomperts, R. E. Stratmann, 
 O. Yazyev, A. J. Austin, R. Cammi, C. Pomelli, J. W. Ochterski, 
 R. L. Martin, K. Morokuma, V. G. Zakrzewski, G. A. Voth, 
 P. Salvador, J. J. Dannenberg, S. Dapprich, A. D. Daniels, 
 O. Farkas, J. B. Foresman, J. V. Ortiz, J. Cioslowski, 
 and D. J. Fox, Gaussian, Inc., Wallingford CT, 2010.
 
 ******************************************
 Gaussian 09:  EM64L-G09RevC.01 23-Sep-2011
                30-Aug-2022 
 ******************************************
 %nprocshared=8
 Will use up to    8 processors via shared memory.
 %mem=1600MB
 -------------------------
 #p opt freq b3lyp/cc-pvdz
 -------------------------
 1/14=-1,18=20,19=15,26=3,38=1/1,3;
 2/9=110,12=2,17=6,18=5,40=1/2;
 3/5=16,11=2,16=1,25=1,30=1,71=1,74=-5/1,2,3;
 4//1;
 5/5=2,38=5/2;
 6/7=2,8=2,9=2,10=2,28=1/1;
 7//1,2,3,16;
 1/14=-1,18=20,19=15/3(2);
 2/9=110/2;
 99//99;
 2/9=110/2;
 3/5=16,11=2,16=1,25=1,30=1,71=1,74=-5/1,2,3;
 4/5=5,16=3/1;
 5/5=2,38=5/2;
 7//1,2,3,16;
 1/14=-1,18=20,19=15/3(-5);
 2/9=110/2;
 6/7=2,8=2,9=2,10=2,19=2,28=1/1;
 99/9=1/99;
 Leave Link    1 at Tue Aug 30 20:42:58 2022, MaxMem=  209715200 cpu:       0.2
 (Enter /opt/gaussian/l101.exe)
 ---------
 Mol07.log
 ---------
 Charge =  0 Multiplicity = 1
 Symbolic Z-Matrix:
 O                    -3.35118  -2.42821   0.2033 
 C                    -2.23671  -1.91099   0.17091 
 C                    -1.13473  -2.56024   0.99614 
 N                     0.07987  -2.82576   0.26376 
 N                     0.02349  -3.40763  -0.96412 
 N                     1.20147  -3.60341  -1.39786 
 C                     2.10614  -3.16287  -0.44689 
 C                     1.38407  -2.66155   0.62943 
 C                     2.0225   -2.13896   1.75857 
 C                     3.3967   -2.14447   1.74531 
 C                     4.13528  -2.65243   0.65245 
 C                     3.50096  -3.16557  -0.45211 
 N                    -1.99027  -0.77643  -0.53081 
 C                    -3.0874   -0.23553  -1.35993 
 C                    -3.97989   0.73022  -0.62103 
 C                    -5.03567   0.35588   0.12431 
 S                    -5.8685    1.75242   0.86684 
 C                    -4.68772   2.84818   0.08789 
 C                    -3.78778   2.16692  -0.63743 
 C                    -0.79144  -0.00111  -0.42324 
 C                    -0.58573   0.82452   0.67325 
 C                     0.56215   1.59878   0.75962 
 C                     1.51926   1.57463  -0.25216 
 C                     1.28974   0.75462  -1.35837 
 C                     0.14948  -0.02491  -1.44469 
 C                     2.7554    2.39719  -0.1564 
 C                     2.69603   3.73445   0.23467 
 C                     3.84929   4.49916   0.32388 
 C                     5.08252   3.93962   0.02296 
 C                     5.15416   2.60989  -0.36636 
 C                     4.00104   1.84494  -0.45472 
 H                    -1.55617  -3.48062   1.36802 
 H                    -0.88616  -1.92647   1.83472 
 H                     1.47707  -1.74775   2.59348 
 H                     3.92943  -1.75169   2.58939 
 H                     5.20627  -2.63661   0.69773 
 H                     4.04064  -3.55927  -1.2897 
 H                    -2.63291   0.2539   -2.2094 
 H                    -3.66161  -1.07289  -1.71924 
 H                    -5.37884  -0.63726   0.30701 
 H                    -4.76564   3.90228   0.22942 
 H                    -2.99778   2.6409   -1.18459 
 H                    -1.32571   0.86784   1.44924 
 H                     0.71805   2.21471   1.62386 
 H                     2.00316   0.73267  -2.15861 
 H                    -0.00896  -0.66316  -2.29161 
 H                     1.74476   4.18237   0.44971 
 H                     3.78351   5.52861   0.61957 
 H                     5.97488   4.53139   0.09061 
 H                     6.10467   2.16725  -0.5948 
 H                     4.06883   0.81098  -0.7339 
 
 NAtoms=     51 NQM=        0 NQMF=       0 NMMI=     51 NMMIF=      0
                NMic=       0 NMicF=      0.
                    Isotopes and Nuclear Properties:
 (Nuclear quadrupole moments (NQMom) in fm**2, nuclear magnetic moments (NMagM)
  in nuclear magnetons)

  Atom         1           2           3           4           5           6           7           8           9          10
 IAtWgt=          16          12          12          14          14          14          12          12          12          12
 AtmWgt=  15.9949146  12.0000000  12.0000000  14.0030740  14.0030740  14.0030740  12.0000000  12.0000000  12.0000000  12.0000000
 NucSpn=           0           0           0           2           2           2           0           0           0           0
 AtZEff=   0.0000000   0.0000000   0.0000000   0.0000000   0.0000000   0.0000000   0.0000000   0.0000000   0.0000000   0.0000000
 NQMom=    0.0000000   0.0000000   0.0000000   2.0440000   2.0440000   2.0440000   0.0000000   0.0000000   0.0000000   0.0000000
 NMagM=    0.0000000   0.0000000   0.0000000   0.4037610   0.4037610   0.4037610   0.0000000   0.0000000   0.0000000   0.0000000

  Atom        11          12          13          14          15          16          17          18          19          20
 IAtWgt=          12          12          14          12          12          12          32          12          12          12
 AtmWgt=  12.0000000  12.0000000  14.0030740  12.0000000  12.0000000  12.0000000  31.9720718  12.0000000  12.0000000  12.0000000
 NucSpn=           0           0           2           0           0           0           0           0           0           0
 AtZEff=   0.0000000   0.0000000   0.0000000   0.0000000   0.0000000   0.0000000   0.0000000   0.0000000   0.0000000   0.0000000
 NQMom=    0.0000000   0.0000000   2.0440000   0.0000000   0.0000000   0.0000000   0.0000000   0.0000000   0.0000000   0.0000000
 NMagM=    0.0000000   0.0000000   0.4037610   0.0000000   0.0000000   0.0000000   0.0000000   0.0000000   0.0000000   0.0000000

  Atom        21          22          23          24          25          26          27          28          29          30
 IAtWgt=          12          12          12          12          12          12          12          12          12          12
 AtmWgt=  12.0000000  12.0000000  12.0000000  12.0000000  12.0000000  12.0000000  12.0000000  12.0000000  12.0000000  12.0000000
 NucSpn=           0           0           0           0           0           0           0           0           0           0
 AtZEff=   0.0000000   0.0000000   0.0000000   0.0000000   0.0000000   0.0000000   0.0000000   0.0000000   0.0000000   0.0000000
 NQMom=    0.0000000   0.0000000   0.0000000   0.0000000   0.0000000   0.0000000   0.0000000   0.0000000   0.0000000   0.0000000
 NMagM=    0.0000000   0.0000000   0.0000000   0.0000000   0.0000000   0.0000000   0.0000000   0.0000000   0.0000000   0.0000000

  Atom        31          32          33          34          35          36          37          38          39          40
 IAtWgt=          12           1           1           1           1           1           1           1           1           1
 AtmWgt=  12.0000000   1.0078250   1.0078250   1.0078250   1.0078250   1.0078250   1.0078250   1.0078250   1.0078250   1.0078250
 NucSpn=           0           1           1           1           1           1           1           1           1           1
 AtZEff=   0.0000000   0.0000000   0.0000000   0.0000000   0.0000000   0.0000000   0.0000000   0.0000000   0.0000000   0.0000000
 NQMom=    0.0000000   0.0000000   0.0000000   0.0000000   0.0000000   0.0000000   0.0000000   0.0000000   0.0000000   0.0000000
 NMagM=    0.0000000   2.7928460   2.7928460   2.7928460   2.7928460   2.7928460   2.7928460   2.7928460   2.7928460   2.7928460

  Atom        41          42          43          44          45          46          47          48          49          50
 IAtWgt=           1           1           1           1           1           1           1           1           1           1
 AtmWgt=   1.0078250   1.0078250   1.0078250   1.0078250   1.0078250   1.0078250   1.0078250   1.0078250   1.0078250   1.0078250
 NucSpn=           1           1           1           1           1           1           1           1           1           1
 AtZEff=   0.0000000   0.0000000   0.0000000   0.0000000   0.0000000   0.0000000   0.0000000   0.0000000   0.0000000   0.0000000
 NQMom=    0.0000000   0.0000000   0.0000000   0.0000000   0.0000000   0.0000000   0.0000000   0.0000000   0.0000000   0.0000000
 NMagM=    2.7928460   2.7928460   2.7928460   2.7928460   2.7928460   2.7928460   2.7928460   2.7928460   2.7928460   2.7928460

  Atom        51
 IAtWgt=           1
 AtmWgt=   1.0078250
 NucSpn=           1
 AtZEff=   0.0000000
 NQMom=    0.0000000
 NMagM=    2.7928460
 Leave Link  101 at Tue Aug 30 20:42:58 2022, MaxMem=  209715200 cpu:       0.9
 (Enter /opt/gaussian/l103.exe)

 GradGradGradGradGradGradGradGradGradGradGradGradGradGradGradGradGradGrad
 Berny optimization.
 Initialization pass.
                           ----------------------------
                           !    Initial Parameters    !
                           ! (Angstroms and Degrees)  !
 --------------------------                            --------------------------
 ! Name  Definition              Value          Derivative Info.                !
 --------------------------------------------------------------------------------
 ! R1    R(1,2)                  1.2291         estimate D2E/DX2                !
 ! R2    R(2,3)                  1.5221         estimate D2E/DX2                !
 ! R3    R(2,13)                 1.3566         estimate D2E/DX2                !
 ! R4    R(3,4)                  1.443          estimate D2E/DX2                !
 ! R5    R(3,32)                 1.0784         estimate D2E/DX2                !
 ! R6    R(3,33)                 1.0801         estimate D2E/DX2                !
 ! R7    R(4,5)                  1.3599         estimate D2E/DX2                !
 ! R8    R(4,8)                  1.3644         estimate D2E/DX2                !
 ! R9    R(5,6)                  1.2705         estimate D2E/DX2                !
 ! R10   R(6,7)                  1.3845         estimate D2E/DX2                !
 ! R11   R(7,8)                  1.3897         estimate D2E/DX2                !
 ! R12   R(7,12)                 1.3948         estimate D2E/DX2                !
 ! R13   R(8,9)                  1.3984         estimate D2E/DX2                !
 ! R14   R(9,10)                 1.3743         estimate D2E/DX2                !
 ! R15   R(9,34)                 1.0713         estimate D2E/DX2                !
 ! R16   R(10,11)                1.4135         estimate D2E/DX2                !
 ! R17   R(10,35)                1.0726         estimate D2E/DX2                !
 ! R18   R(11,12)                1.3732         estimate D2E/DX2                !
 ! R19   R(11,36)                1.0721         estimate D2E/DX2                !
 ! R20   R(12,37)                1.0714         estimate D2E/DX2                !
 ! R21   R(13,14)                1.4777         estimate D2E/DX2                !
 ! R22   R(13,20)                1.4317         estimate D2E/DX2                !
 ! R23   R(14,15)                1.5084         estimate D2E/DX2                !
 ! R24   R(14,38)                1.0806         estimate D2E/DX2                !
 ! R25   R(14,39)                1.077          estimate D2E/DX2                !
 ! R26   R(15,16)                1.3455         estimate D2E/DX2                !
 ! R27   R(15,19)                1.4496         estimate D2E/DX2                !
 ! R28   R(16,17)                1.7875         estimate D2E/DX2                !
 ! R29   R(16,40)                1.0665         estimate D2E/DX2                !
 ! R30   R(17,18)                1.7893         estimate D2E/DX2                !
 ! R31   R(18,19)                1.3417         estimate D2E/DX2                !
 ! R32   R(18,41)                1.0664         estimate D2E/DX2                !
 ! R33   R(19,42)                1.0715         estimate D2E/DX2                !
 ! R34   R(20,21)                1.3879         estimate D2E/DX2                !
 ! R35   R(20,25)                1.389          estimate D2E/DX2                !
 ! R36   R(21,22)                1.3873         estimate D2E/DX2                !
 ! R37   R(21,43)                1.0731         estimate D2E/DX2                !
 ! R38   R(22,23)                1.393          estimate D2E/DX2                !
 ! R39   R(22,44)                1.0727         estimate D2E/DX2                !
 ! R40   R(23,24)                1.396          estimate D2E/DX2                !
 ! R41   R(23,26)                1.4879         estimate D2E/DX2                !
 ! R42   R(24,25)                1.3839         estimate D2E/DX2                !
 ! R43   R(24,45)                1.0723         estimate D2E/DX2                !
 ! R44   R(25,46)                1.0723         estimate D2E/DX2                !
 ! R45   R(26,27)                1.3945         estimate D2E/DX2                !
 ! R46   R(26,31)                1.3948         estimate D2E/DX2                !
 ! R47   R(27,28)                1.3866         estimate D2E/DX2                !
 ! R48   R(27,47)                1.0732         estimate D2E/DX2                !
 ! R49   R(28,29)                1.3873         estimate D2E/DX2                !
 ! R50   R(28,48)                1.0731         estimate D2E/DX2                !
 ! R51   R(29,30)                1.3874         estimate D2E/DX2                !
 ! R52   R(29,49)                1.0729         estimate D2E/DX2                !
 ! R53   R(30,31)                1.3866         estimate D2E/DX2                !
 ! R54   R(30,50)                1.0731         estimate D2E/DX2                !
 ! R55   R(31,51)                1.0731         estimate D2E/DX2                !
 ! A1    A(1,2,3)              117.5603         estimate D2E/DX2                !
 ! A2    A(1,2,13)             122.0256         estimate D2E/DX2                !
 ! A3    A(3,2,13)             120.3742         estimate D2E/DX2                !
 ! A4    A(2,3,4)              114.3753         estimate D2E/DX2                !
 ! A5    A(2,3,32)             105.5489         estimate D2E/DX2                !
 ! A6    A(2,3,33)             109.7092         estimate D2E/DX2                !
 ! A7    A(4,3,32)             110.2993         estimate D2E/DX2                !
 ! A8    A(4,3,33)             107.9574         estimate D2E/DX2                !
 ! A9    A(32,3,33)            108.8431         estimate D2E/DX2                !
 ! A10   A(3,4,5)              120.1391         estimate D2E/DX2                !
 ! A11   A(3,4,8)              130.2724         estimate D2E/DX2                !
 ! A12   A(5,4,8)              109.4572         estimate D2E/DX2                !
 ! A13   A(4,5,6)              109.6177         estimate D2E/DX2                !
 ! A14   A(5,6,7)              108.8036         estimate D2E/DX2                !
 ! A15   A(6,7,8)              107.8941         estimate D2E/DX2                !
 ! A16   A(6,7,12)             130.5592         estimate D2E/DX2                !
 ! A17   A(8,7,12)             121.5466         estimate D2E/DX2                !
 ! A18   A(4,8,7)              104.2219         estimate D2E/DX2                !
 ! A19   A(4,8,9)              134.2469         estimate D2E/DX2                !
 ! A20   A(7,8,9)              121.5311         estimate D2E/DX2                !
 ! A21   A(8,9,10)             116.5651         estimate D2E/DX2                !
 ! A22   A(8,9,34)             122.2292         estimate D2E/DX2                !
 ! A23   A(10,9,34)            121.2049         estimate D2E/DX2                !
 ! A24   A(9,10,11)            122.1005         estimate D2E/DX2                !
 ! A25   A(9,10,35)            119.1808         estimate D2E/DX2                !
 ! A26   A(11,10,35)           118.7187         estimate D2E/DX2                !
 ! A27   A(10,11,12)           120.9864         estimate D2E/DX2                !
 ! A28   A(10,11,36)           118.9503         estimate D2E/DX2                !
 ! A29   A(12,11,36)           120.0627         estimate D2E/DX2                !
 ! A30   A(7,12,11)            117.27           estimate D2E/DX2                !
 ! A31   A(7,12,37)            120.4886         estimate D2E/DX2                !
 ! A32   A(11,12,37)           122.2409         estimate D2E/DX2                !
 ! A33   A(2,13,14)            117.4822         estimate D2E/DX2                !
 ! A34   A(2,13,20)            124.481          estimate D2E/DX2                !
 ! A35   A(14,13,20)           117.7491         estimate D2E/DX2                !
 ! A36   A(13,14,15)           113.5032         estimate D2E/DX2                !
 ! A37   A(13,14,38)           107.1328         estimate D2E/DX2                !
 ! A38   A(13,14,39)           107.3631         estimate D2E/DX2                !
 ! A39   A(15,14,38)           110.1182         estimate D2E/DX2                !
 ! A40   A(15,14,39)           110.2278         estimate D2E/DX2                !
 ! A41   A(38,14,39)           108.3073         estimate D2E/DX2                !
 ! A42   A(14,15,16)           123.8846         estimate D2E/DX2                !
 ! A43   A(14,15,19)           123.4091         estimate D2E/DX2                !
 ! A44   A(16,15,19)           112.7063         estimate D2E/DX2                !
 ! A45   A(15,16,17)           112.2308         estimate D2E/DX2                !
 ! A46   A(15,16,40)           127.3336         estimate D2E/DX2                !
 ! A47   A(17,16,40)           120.4268         estimate D2E/DX2                !
 ! A48   A(16,17,18)            89.4355         estimate D2E/DX2                !
 ! A49   A(17,18,19)           111.5324         estimate D2E/DX2                !
 ! A50   A(17,18,41)           119.9553         estimate D2E/DX2                !
 ! A51   A(19,18,41)           128.511          estimate D2E/DX2                !
 ! A52   A(15,19,18)           114.0947         estimate D2E/DX2                !
 ! A53   A(15,19,42)           122.8133         estimate D2E/DX2                !
 ! A54   A(18,19,42)           123.0917         estimate D2E/DX2                !
 ! A55   A(13,20,21)           120.3712         estimate D2E/DX2                !
 ! A56   A(13,20,25)           120.178          estimate D2E/DX2                !
 ! A57   A(21,20,25)           119.3917         estimate D2E/DX2                !
 ! A58   A(20,21,22)           120.2538         estimate D2E/DX2                !
 ! A59   A(20,21,43)           119.544          estimate D2E/DX2                !
 ! A60   A(22,21,43)           120.1991         estimate D2E/DX2                !
 ! A61   A(21,22,23)           120.906          estimate D2E/DX2                !
 ! A62   A(21,22,44)           119.3994         estimate D2E/DX2                !
 ! A63   A(23,22,44)           119.6905         estimate D2E/DX2                !
 ! A64   A(22,23,24)           118.2155         estimate D2E/DX2                !
 ! A65   A(22,23,26)           120.965          estimate D2E/DX2                !
 ! A66   A(24,23,26)           120.8193         estimate D2E/DX2                !
 ! A67   A(23,24,25)           121.0477         estimate D2E/DX2                !
 ! A68   A(23,24,45)           119.6041         estimate D2E/DX2                !
 ! A69   A(25,24,45)           119.3464         estimate D2E/DX2                !
 ! A70   A(20,25,24)           120.1734         estimate D2E/DX2                !
 ! A71   A(20,25,46)           119.4032         estimate D2E/DX2                !
 ! A72   A(24,25,46)           120.4168         estimate D2E/DX2                !
 ! A73   A(23,26,27)           120.8512         estimate D2E/DX2                !
 ! A74   A(23,26,31)           120.6163         estimate D2E/DX2                !
 ! A75   A(27,26,31)           118.5325         estimate D2E/DX2                !
 ! A76   A(26,27,28)           120.7619         estimate D2E/DX2                !
 ! A77   A(26,27,47)           119.6136         estimate D2E/DX2                !
 ! A78   A(28,27,47)           119.6127         estimate D2E/DX2                !
 ! A79   A(27,28,29)           120.196          estimate D2E/DX2                !
 ! A80   A(27,28,48)           119.7228         estimate D2E/DX2                !
 ! A81   A(29,28,48)           120.0796         estimate D2E/DX2                !
 ! A82   A(28,29,30)           119.5608         estimate D2E/DX2                !
 ! A83   A(28,29,49)           120.2147         estimate D2E/DX2                !
 ! A84   A(30,29,49)           120.2245         estimate D2E/DX2                !
 ! A85   A(29,30,31)           120.244          estimate D2E/DX2                !
 ! A86   A(29,30,50)           120.0533         estimate D2E/DX2                !
 ! A87   A(31,30,50)           119.7016         estimate D2E/DX2                !
 ! A88   A(26,31,30)           120.7047         estimate D2E/DX2                !
 ! A89   A(26,31,51)           119.5724         estimate D2E/DX2                !
 ! A90   A(30,31,51)           119.7082         estimate D2E/DX2                !
 ! D1    D(1,2,3,4)            129.0061         estimate D2E/DX2                !
 ! D2    D(1,2,3,32)             7.5787         estimate D2E/DX2                !
 ! D3    D(1,2,3,33)          -109.5368         estimate D2E/DX2                !
 ! D4    D(13,2,3,4)           -53.2449         estimate D2E/DX2                !
 ! D5    D(13,2,3,32)         -174.6722         estimate D2E/DX2                !
 ! D6    D(13,2,3,33)           68.2123         estimate D2E/DX2                !
 ! D7    D(1,2,13,14)           -5.1427         estimate D2E/DX2                !
 ! D8    D(1,2,13,20)          168.5426         estimate D2E/DX2                !
 ! D9    D(3,2,13,14)          177.2111         estimate D2E/DX2                !
 ! D10   D(3,2,13,20)           -9.1036         estimate D2E/DX2                !
 ! D11   D(2,3,4,5)            -46.298          estimate D2E/DX2                !
 ! D12   D(2,3,4,8)            138.3385         estimate D2E/DX2                !
 ! D13   D(32,3,4,5)            72.4777         estimate D2E/DX2                !
 ! D14   D(32,3,4,8)          -102.8857         estimate D2E/DX2                !
 ! D15   D(33,3,4,5)          -168.7138         estimate D2E/DX2                !
 ! D16   D(33,3,4,8)            15.9227         estimate D2E/DX2                !
 ! D17   D(3,4,5,6)           -177.0371         estimate D2E/DX2                !
 ! D18   D(8,4,5,6)             -0.7875         estimate D2E/DX2                !
 ! D19   D(3,4,8,7)            176.2926         estimate D2E/DX2                !
 ! D20   D(3,4,8,9)             -3.8201         estimate D2E/DX2                !
 ! D21   D(5,4,8,7)              0.5444         estimate D2E/DX2                !
 ! D22   D(5,4,8,9)           -179.5683         estimate D2E/DX2                !
 ! D23   D(4,5,6,7)              0.6766         estimate D2E/DX2                !
 ! D24   D(5,6,7,8)             -0.3293         estimate D2E/DX2                !
 ! D25   D(5,6,7,12)           179.7635         estimate D2E/DX2                !
 ! D26   D(6,7,8,4)             -0.1455         estimate D2E/DX2                !
 ! D27   D(6,7,8,9)            179.9492         estimate D2E/DX2                !
 ! D28   D(12,7,8,4)           179.7718         estimate D2E/DX2                !
 ! D29   D(12,7,8,9)            -0.1335         estimate D2E/DX2                !
 ! D30   D(6,7,12,11)          179.9419         estimate D2E/DX2                !
 ! D31   D(6,7,12,37)           -0.3049         estimate D2E/DX2                !
 ! D32   D(8,7,12,11)            0.0454         estimate D2E/DX2                !
 ! D33   D(8,7,12,37)          179.7987         estimate D2E/DX2                !
 ! D34   D(4,8,9,10)          -179.7059         estimate D2E/DX2                !
 ! D35   D(4,8,9,34)            -0.0076         estimate D2E/DX2                !
 ! D36   D(7,8,9,10)             0.166          estimate D2E/DX2                !
 ! D37   D(7,8,9,34)           179.8642         estimate D2E/DX2                !
 ! D38   D(8,9,10,11)           -0.1206         estimate D2E/DX2                !
 ! D39   D(8,9,10,35)          179.8836         estimate D2E/DX2                !
 ! D40   D(34,9,10,11)        -179.8222         estimate D2E/DX2                !
 ! D41   D(34,9,10,35)           0.182          estimate D2E/DX2                !
 ! D42   D(9,10,11,12)           0.0405         estimate D2E/DX2                !
 ! D43   D(9,10,11,36)        -179.6814         estimate D2E/DX2                !
 ! D44   D(35,10,11,12)       -179.9636         estimate D2E/DX2                !
 ! D45   D(35,10,11,36)          0.3145         estimate D2E/DX2                !
 ! D46   D(10,11,12,7)           0.0006         estimate D2E/DX2                !
 ! D47   D(10,11,12,37)       -179.748          estimate D2E/DX2                !
 ! D48   D(36,11,12,7)         179.7194         estimate D2E/DX2                !
 ! D49   D(36,11,12,37)         -0.0292         estimate D2E/DX2                !
 ! D50   D(2,13,14,15)          89.3347         estimate D2E/DX2                !
 ! D51   D(2,13,14,38)        -148.8926         estimate D2E/DX2                !
 ! D52   D(2,13,14,39)         -32.7389         estimate D2E/DX2                !
 ! D53   D(20,13,14,15)        -84.7851         estimate D2E/DX2                !
 ! D54   D(20,13,14,38)         36.9875         estimate D2E/DX2                !
 ! D55   D(20,13,14,39)        153.1412         estimate D2E/DX2                !
 ! D56   D(2,13,20,21)         -76.1324         estimate D2E/DX2                !
 ! D57   D(2,13,20,25)         106.6802         estimate D2E/DX2                !
 ! D58   D(14,13,20,21)         97.5374         estimate D2E/DX2                !
 ! D59   D(14,13,20,25)        -79.65           estimate D2E/DX2                !
 ! D60   D(13,14,15,16)        -86.0526         estimate D2E/DX2                !
 ! D61   D(13,14,15,19)         93.8312         estimate D2E/DX2                !
 ! D62   D(38,14,15,16)        153.854          estimate D2E/DX2                !
 ! D63   D(38,14,15,19)        -26.2621         estimate D2E/DX2                !
 ! D64   D(39,14,15,16)         34.4154         estimate D2E/DX2                !
 ! D65   D(39,14,15,19)       -145.7007         estimate D2E/DX2                !
 ! D66   D(14,15,16,17)        179.6946         estimate D2E/DX2                !
 ! D67   D(14,15,16,40)          0.7822         estimate D2E/DX2                !
 ! D68   D(19,15,16,17)         -0.2003         estimate D2E/DX2                !
 ! D69   D(19,15,16,40)       -179.1127         estimate D2E/DX2                !
 ! D70   D(14,15,19,18)       -179.7883         estimate D2E/DX2                !
 ! D71   D(14,15,19,42)          0.4284         estimate D2E/DX2                !
 ! D72   D(16,15,19,18)          0.1072         estimate D2E/DX2                !
 ! D73   D(16,15,19,42)       -179.6761         estimate D2E/DX2                !
 ! D74   D(15,16,17,18)          0.1858         estimate D2E/DX2                !
 ! D75   D(40,16,17,18)        179.1829         estimate D2E/DX2                !
 ! D76   D(16,17,18,19)         -0.1232         estimate D2E/DX2                !
 ! D77   D(16,17,18,41)        179.4961         estimate D2E/DX2                !
 ! D78   D(17,18,19,15)          0.0379         estimate D2E/DX2                !
 ! D79   D(17,18,19,42)        179.8205         estimate D2E/DX2                !
 ! D80   D(41,18,19,15)       -179.5407         estimate D2E/DX2                !
 ! D81   D(41,18,19,42)          0.2419         estimate D2E/DX2                !
 ! D82   D(13,20,21,22)       -178.4654         estimate D2E/DX2                !
 ! D83   D(13,20,21,43)          0.8935         estimate D2E/DX2                !
 ! D84   D(25,20,21,22)         -1.2559         estimate D2E/DX2                !
 ! D85   D(25,20,21,43)        178.1029         estimate D2E/DX2                !
 ! D86   D(13,20,25,24)        178.1075         estimate D2E/DX2                !
 ! D87   D(13,20,25,46)         -2.823          estimate D2E/DX2                !
 ! D88   D(21,20,25,24)          0.8926         estimate D2E/DX2                !
 ! D89   D(21,20,25,46)        179.9621         estimate D2E/DX2                !
 ! D90   D(20,21,22,23)          0.6764         estimate D2E/DX2                !
 ! D91   D(20,21,22,44)       -178.5859         estimate D2E/DX2                !
 ! D92   D(43,21,22,23)       -178.6782         estimate D2E/DX2                !
 ! D93   D(43,21,22,44)          2.0596         estimate D2E/DX2                !
 ! D94   D(21,22,23,24)          0.2697         estimate D2E/DX2                !
 ! D95   D(21,22,23,26)       -179.5643         estimate D2E/DX2                !
 ! D96   D(44,22,23,24)        179.5298         estimate D2E/DX2                !
 ! D97   D(44,22,23,26)         -0.3041         estimate D2E/DX2                !
 ! D98   D(22,23,24,25)         -0.6363         estimate D2E/DX2                !
 ! D99   D(22,23,24,45)        178.8768         estimate D2E/DX2                !
 ! D100  D(26,23,24,25)        179.1979         estimate D2E/DX2                !
 ! D101  D(26,23,24,45)         -1.289          estimate D2E/DX2                !
 ! D102  D(22,23,26,27)        -45.7784         estimate D2E/DX2                !
 ! D103  D(22,23,26,31)        134.1255         estimate D2E/DX2                !
 ! D104  D(24,23,26,27)        134.392          estimate D2E/DX2                !
 ! D105  D(24,23,26,31)        -45.7042         estimate D2E/DX2                !
 ! D106  D(23,24,25,20)          0.0577         estimate D2E/DX2                !
 ! D107  D(23,24,25,46)       -179.0024         estimate D2E/DX2                !
 ! D108  D(45,24,25,20)       -179.4567         estimate D2E/DX2                !
 ! D109  D(45,24,25,46)          1.4833         estimate D2E/DX2                !
 ! D110  D(23,26,27,28)        179.9703         estimate D2E/DX2                !
 ! D111  D(23,26,27,47)         -1.2858         estimate D2E/DX2                !
 ! D112  D(31,26,27,28)          0.0645         estimate D2E/DX2                !
 ! D113  D(31,26,27,47)        178.8084         estimate D2E/DX2                !
 ! D114  D(23,26,31,30)        179.9866         estimate D2E/DX2                !
 ! D115  D(23,26,31,51)         -1.4106         estimate D2E/DX2                !
 ! D116  D(27,26,31,30)         -0.1074         estimate D2E/DX2                !
 ! D117  D(27,26,31,51)        178.4955         estimate D2E/DX2                !
 ! D118  D(26,27,28,29)          0.0213         estimate D2E/DX2                !
 ! D119  D(26,27,28,48)        179.5514         estimate D2E/DX2                !
 ! D120  D(47,27,28,29)       -178.7226         estimate D2E/DX2                !
 ! D121  D(47,27,28,48)          0.8075         estimate D2E/DX2                !
 ! D122  D(27,28,29,30)         -0.0654         estimate D2E/DX2                !
 ! D123  D(27,28,29,49)        179.9176         estimate D2E/DX2                !
 ! D124  D(48,28,29,30)       -179.5938         estimate D2E/DX2                !
 ! D125  D(48,28,29,49)          0.3892         estimate D2E/DX2                !
 ! D126  D(28,29,30,31)          0.0227         estimate D2E/DX2                !
 ! D127  D(28,29,30,50)       -179.6019         estimate D2E/DX2                !
 ! D128  D(49,29,30,31)       -179.9603         estimate D2E/DX2                !
 ! D129  D(49,29,30,50)          0.4151         estimate D2E/DX2                !
 ! D130  D(29,30,31,26)          0.0648         estimate D2E/DX2                !
 ! D131  D(29,30,31,51)       -178.5362         estimate D2E/DX2                !
 ! D132  D(50,30,31,26)        179.6907         estimate D2E/DX2                !
 ! D133  D(50,30,31,51)          1.0897         estimate D2E/DX2                !
 --------------------------------------------------------------------------------
 Trust Radius=3.00D-01 FncErr=1.00D-07 GrdErr=1.00D-06
 Number of steps in this run=    288 maximum allowed number of steps=    306.
 GradGradGradGradGradGradGradGradGradGradGradGradGradGradGradGradGradGrad

 Leave Link  103 at Tue Aug 30 20:42:58 2022, MaxMem=  209715200 cpu:       0.1
 (Enter /opt/gaussian/l202.exe)
 Stoichiometry    C25H20N4OS
 Framework group  C1[X(C25H20N4OS)]
 Deg. of freedom   147
 Full point group                 C1      NOp   1
 Largest Abelian subgroup         C1      NOp   1
 Largest concise Abelian subgroup C1      NOp   1
                         Standard orientation:                         
 ---------------------------------------------------------------------
 Center     Atomic      Atomic             Coordinates (Angstroms)
 Number     Number       Type             X           Y           Z
 ---------------------------------------------------------------------
      1          8           0       -3.351181   -2.428207    0.203300
      2          6           0       -2.236711   -1.910988    0.170910
      3          6           0       -1.134731   -2.560238    0.996140
      4          7           0        0.079869   -2.825759    0.263760
      5          7           0        0.023488   -3.407629   -0.964120
      6          7           0        1.201468   -3.603410   -1.397860
      7          6           0        2.106138   -3.162871   -0.446890
      8          6           0        1.384069   -2.661550    0.629430
      9          6           0        2.022499   -2.138961    1.758570
     10          6           0        3.396699   -2.144472    1.745310
     11          6           0        4.135279   -2.652432    0.652450
     12          6           0        3.500958   -3.165572   -0.452110
     13          7           0       -1.990270   -0.776428   -0.530810
     14          6           0       -3.087400   -0.235527   -1.359930
     15          6           0       -3.979889    0.730224   -0.621030
     16          6           0       -5.035669    0.355884    0.124310
     17         16           0       -5.868498    1.752425    0.866840
     18          6           0       -4.687717    2.848184    0.087890
     19          6           0       -3.787778    2.166923   -0.637430
     20          6           0       -0.791439   -0.001109   -0.423240
     21          6           0       -0.585729    0.824521    0.673250
     22          6           0        0.562152    1.598780    0.759620
     23          6           0        1.519262    1.574630   -0.252160
     24          6           0        1.289741    0.754620   -1.358370
     25          6           0        0.149481   -0.024909   -1.444690
     26          6           0        2.755402    2.397189   -0.156400
     27          6           0        2.696033    3.734449    0.234670
     28          6           0        3.849294    4.499158    0.323880
     29          6           0        5.082523    3.939617    0.022960
     30          6           0        5.154162    2.609887   -0.366360
     31          6           0        4.001042    1.844938   -0.454720
     32          1           0       -1.556172   -3.480618    1.368020
     33          1           0       -0.886161   -1.926469    1.834720
     34          1           0        1.477069   -1.747750    2.593480
     35          1           0        3.929429   -1.751692    2.589390
     36          1           0        5.206269   -2.636613    0.697730
     37          1           0        4.040638   -3.559272   -1.289700
     38          1           0       -2.632909    0.253903   -2.209400
     39          1           0       -3.661610   -1.072887   -1.719240
     40          1           0       -5.378840   -0.637255    0.307010
     41          1           0       -4.765637    3.902284    0.229420
     42          1           0       -2.997778    2.640903   -1.184590
     43          1           0       -1.325709    0.867842    1.449240
     44          1           0        0.718052    2.214710    1.623860
     45          1           0        2.003161    0.732669   -2.158610
     46          1           0       -0.008960   -0.663159   -2.291610
     47          1           0        1.744763    4.182370    0.449710
     48          1           0        3.783514    5.528608    0.619570
     49          1           0        5.974884    4.531387    0.090610
     50          1           0        6.104672    2.167247   -0.594800
     51          1           0        4.068831    0.810978   -0.733900
 ---------------------------------------------------------------------
 Rotational constants (GHZ):      0.1811491      0.1029043      0.0715327
 Leave Link  202 at Tue Aug 30 20:42:58 2022, MaxMem=  209715200 cpu:       0.0
 (Enter /opt/gaussian/l301.exe)
 Standard basis: CC-pVDZ (5D, 7F)
 Ernie: Thresh=  0.10000D-02 Tol=  0.10000D-05 Strict=F.
 Ernie:  70 primitive shells out of 810 were deleted.
 There are   538 symmetry adapted basis functions of A   symmetry.
 Integral buffers will be    131072 words long.
 Raffenetti 2 integral format.
 Two-electron integral symmetry is turned on.
   538 basis functions,  1201 primitive gaussians,   569 cartesian basis functions
   111 alpha electrons      111 beta electrons
       nuclear repulsion energy      3050.4252550967 Hartrees.
 IExCor=  402 DFT=T Ex+Corr=B3LYP ExCW=0 ScaHFX=  0.200000
 ScaDFX=  0.800000  0.720000  1.000000  0.810000 ScalE2=  1.000000  1.000000
 IRadAn=      0 IRanWt=     -1 IRanGd=            0 ICorTp=0
 NAtoms=   51 NActive=   51 NUniq=   51 SFac= 1.00D+00 NAtFMM=   60 NAOKFM=F Big=F
 Leave Link  301 at Tue Aug 30 20:42:58 2022, MaxMem=  209715200 cpu:       0.3
 (Enter /opt/gaussian/l302.exe)
 NPDir=0 NMtPBC=     1 NCelOv=     1 NCel=       1 NClECP=     1 NCelD=      1
         NCelK=      1 NCelE2=     1 NClLst=     1 CellRange=     0.0.
 One-electron integrals computed using PRISM.
 NBasis=   538 RedAO= T  NBF=   538
 NBsUse=   538 1.00D-06 NBFU=   538
 Precomputing XC quadrature grid using
 IXCGrd= 2 IRadAn=           0 IRanWt=          -1 IRanGd=           0 AccXCQ= 0.00D+00.
 NRdTot=    3267 NPtTot=      416922 NUsed=      440467 NTot=      440499
 NSgBfM=   557   557   558   558   558 NAtAll=    51    51.
 Leave Link  302 at Tue Aug 30 20:42:59 2022, MaxMem=  209715200 cpu:       8.1
 (Enter /opt/gaussian/l303.exe)
 DipDrv:  MaxL=1.
 Leave Link  303 at Tue Aug 30 20:42:59 2022, MaxMem=  209715200 cpu:       1.2
 (Enter /opt/gaussian/l401.exe)
 Harris functional with IExCor=  402 diagonalized for initial guess.
 ExpMin= 1.22D-01 ExpMax= 1.11D+05 ExpMxC= 1.07D+03 IAcc=2 IRadAn=         4 AccDes= 0.00D+00
 HarFok:  IExCor=  402 AccDes= 0.00D+00 IRadAn=         4 IDoV= 1
 ScaDFX=  1.000000  1.000000  1.000000  1.000000
 FoFCou: FMM=F IPFlag=           0 FMFlag=      100000 FMFlg1=           0
         NFxFlg=           0 DoJE=T BraDBF=F KetDBF=T FulRan=T
         Omega=  0.000000  0.000000  1.000000  0.000000  0.000000 ICntrl=     500 IOpCl=  0
         NMat0=    1 NMatS0=    1 NMatT0=    0 NMatD0=    1 NMtDS0=    0 NMtDT0=    0
         I1Cent=           4 NGrid=           0.
 Petite list used in FoFCou.
 Harris En= -1657.01295465321    
 Initial guess orbital symmetries:
       Occupied  (A) (A) (A) (A) (A) (A) (A) (A) (A) (A) (A) (A)
                 (A) (A) (A) (A) (A) (A) (A) (A) (A) (A) (A) (A)
                 (A) (A) (A) (A) (A) (A) (A) (A) (A) (A) (A) (A)
                 (A) (A) (A) (A) (A) (A) (A) (A) (A) (A) (A) (A)
                 (A) (A) (A) (A) (A) (A) (A) (A) (A) (A) (A) (A)
                 (A) (A) (A) (A) (A) (A) (A) (A) (A) (A) (A) (A)
                 (A) (A) (A) (A) (A) (A) (A) (A) (A) (A) (A) (A)
                 (A) (A) (A) (A) (A) (A) (A) (A) (A) (A) (A) (A)
                 (A) (A) (A) (A) (A) (A) (A) (A) (A) (A) (A) (A)
                 (A) (A) (A)
       Virtual   (A) (A) (A) (A) (A) (A) (A) (A) (A) (A) (A) (A)
                 (A) (A) (A) (A) (A) (A) (A) (A) (A) (A) (A) (A)
                 (A) (A) (A) (A) (A) (A) (A) (A) (A) (A) (A) (A)
                 (A) (A) (A) (A) (A) (A) (A) (A) (A) (A) (A) (A)
                 (A) (A) (A) (A) (A) (A) (A) (A) (A) (A) (A) (A)
                 (A) (A) (A) (A) (A) (A) (A) (A) (A) (A) (A) (A)
                 (A) (A) (A) (A) (A) (A) (A) (A) (A) (A) (A) (A)
                 (A) (A) (A) (A) (A) (A) (A) (A) (A) (A) (A) (A)
                 (A) (A) (A) (A) (A) (A) (A) (A) (A) (A) (A) (A)
                 (A) (A) (A) (A) (A) (A) (A) (A) (A) (A) (A) (A)
                 (A) (A) (A) (A) (A) (A) (A) (A) (A) (A) (A) (A)
                 (A) (A) (A) (A) (A) (A) (A) (A) (A) (A) (A) (A)
                 (A) (A) (A) (A) (A) (A) (A) (A) (A) (A) (A) (A)
                 (A) (A) (A) (A) (A) (A) (A) (A) (A) (A) (A) (A)
                 (A) (A) (A) (A) (A) (A) (A) (A) (A) (A) (A) (A)
                 (A) (A) (A) (A) (A) (A) (A) (A) (A) (A) (A) (A)
                 (A) (A) (A) (A) (A) (A) (A) (A) (A) (A) (A) (A)
                 (A) (A) (A) (A) (A) (A) (A) (A) (A) (A) (A) (A)
                 (A) (A) (A) (A) (A) (A) (A) (A) (A) (A) (A) (A)
                 (A) (A) (A) (A) (A) (A) (A) (A) (A) (A) (A) (A)
                 (A) (A) (A) (A) (A) (A) (A) (A) (A) (A) (A) (A)
                 (A) (A) (A) (A) (A) (A) (A) (A) (A) (A) (A) (A)
                 (A) (A) (A) (A) (A) (A) (A) (A) (A) (A) (A) (A)
                 (A) (A) (A) (A) (A) (A) (A) (A) (A) (A) (A) (A)
                 (A) (A) (A) (A) (A) (A) (A) (A) (A) (A) (A) (A)
                 (A) (A) (A) (A) (A) (A) (A) (A) (A) (A) (A) (A)
                 (A) (A) (A) (A) (A) (A) (A) (A) (A) (A) (A) (A)
                 (A) (A) (A) (A) (A) (A) (A) (A) (A) (A) (A) (A)
                 (A) (A) (A) (A) (A) (A) (A) (A) (A) (A) (A) (A)
                 (A) (A) (A) (A) (A) (A) (A) (A) (A) (A) (A) (A)
                 (A) (A) (A) (A) (A) (A) (A) (A) (A) (A) (A) (A)
                 (A) (A) (A) (A) (A) (A) (A) (A) (A) (A) (A) (A)
                 (A) (A) (A) (A) (A) (A) (A) (A) (A) (A) (A) (A)
                 (A) (A) (A) (A) (A) (A) (A) (A) (A) (A) (A) (A)
                 (A) (A) (A) (A) (A) (A) (A) (A) (A) (A) (A) (A)
                 (A) (A) (A) (A) (A) (A) (A)
 The electronic state of the initial guess is 1-A.
 Leave Link  401 at Tue Aug 30 20:43:02 2022, MaxMem=  209715200 cpu:      27.8
 (Enter /opt/gaussian/l502.exe)
 Closed shell SCF:
 Requested convergence on RMS density matrix=1.00D-08 within 128 cycles.
 Requested convergence on MAX density matrix=1.00D-06.
 Requested convergence on             energy=1.00D-06.
 No special actions if energy rises.
 Using DIIS extrapolation, IDIIS=  1040.
 Integral symmetry usage will be decided dynamically.
       439995 words used for storage of precomputed grid.
 IEnd=     1438278 IEndB=     1438278 NGot=   209715200 MDV=   208617893
 LenX=   208617893 LenY=   208293563
 Fock matrices will be formed incrementally for  20 cycles.
 Integral accuracy reduced to 1.0D-05 until final iterations.

 Cycle   1  Pass 0  IDiag  1:
 FoFCou: FMM=F IPFlag=           0 FMFlag=      100000 FMFlg1=           0
         NFxFlg=           0 DoJE=F BraDBF=F KetDBF=F FulRan=T
         Omega=  0.000000  0.000000  1.000000  0.000000  0.000000 ICntrl=       0 IOpCl=  0
         NMat0=    1 NMatS0=    1 NMatT0=    0 NMatD0=    1 NMtDS0=    0 NMtDT0=    0
         I1Cent=           0 NGrid=           0.
 Symmetry not used in FoFCou.
 E= -1656.45481849612    
 DIIS: error= 3.87D-02 at cycle   1 NSaved=   1.
 NSaved= 1 IEnMin= 1 EnMin= -1656.45481849612     IErMin= 1 ErrMin= 3.87D-02
 ErrMax= 3.87D-02 EMaxC= 1.00D-01 BMatC= 6.47D-01 BMatP= 6.47D-01
 IDIUse=3 WtCom= 6.13D-01 WtEn= 3.87D-01
 Coeff-Com:  0.100D+01
 Coeff-En:   0.100D+01
 Coeff:      0.100D+01
 Gap=     0.313 Goal=   None    Shift=    0.000
 GapD=    0.313 DampG=1.000 DampE=0.500 DampFc=0.5000 IDamp=-1.
 Damping current iteration by 5.00D-01
 RMSDP=4.36D-03 MaxDP=2.09D-01              OVMax= 3.32D-01

 Cycle   2  Pass 0  IDiag  1:
 RMSU=  1.52D-03    CP:  9.74D-01
 E= -1656.63164978307     Delta-E=       -0.176831286952 Rises=F Damp=T
 DIIS: error= 9.87D-03 at cycle   2 NSaved=   2.
 NSaved= 2 IEnMin= 2 EnMin= -1656.63164978307     IErMin= 2 ErrMin= 9.87D-03
 ErrMax= 9.87D-03 EMaxC= 1.00D-01 BMatC= 1.29D-01 BMatP= 6.47D-01
 IDIUse=3 WtCom= 9.01D-01 WtEn= 9.87D-02
 Coeff-Com:  0.246D+00 0.754D+00
 Coeff-En:   0.367D+00 0.633D+00
 Coeff:      0.258D+00 0.742D+00
 Gap=     0.242 Goal=   None    Shift=    0.000
 RMSDP=1.56D-03 MaxDP=6.98D-02 DE=-1.77D-01 OVMax= 2.88D-01

 Cycle   3  Pass 0  IDiag  1:
 RMSU=  1.04D-03    CP:  9.57D-01  7.79D-01
 E= -1657.07374348235     Delta-E=       -0.442093699276 Rises=F Damp=F
 DIIS: error= 1.21D-02 at cycle   3 NSaved=   3.
 NSaved= 3 IEnMin= 3 EnMin= -1657.07374348235     IErMin= 2 ErrMin= 9.87D-03
 ErrMax= 1.21D-02 EMaxC= 1.00D-01 BMatC= 1.12D-01 BMatP= 1.29D-01
 IDIUse=3 WtCom= 8.79D-01 WtEn= 1.21D-01
 Coeff-Com:  0.801D-01 0.472D+00 0.448D+00
 Coeff-En:   0.000D+00 0.000D+00 0.100D+01
 Coeff:      0.704D-01 0.414D+00 0.515D+00
 Gap=     0.198 Goal=   None    Shift=    0.000
 RMSDP=8.93D-04 MaxDP=6.09D-02 DE=-4.42D-01 OVMax= 1.12D-01

 Cycle   4  Pass 0  IDiag  1:
 RMSU=  4.68D-04    CP:  9.62D-01  8.63D-01  6.12D-01
 E= -1657.14857234577     Delta-E=       -0.074828863417 Rises=F Damp=F
 DIIS: error= 5.84D-03 at cycle   4 NSaved=   4.
 NSaved= 4 IEnMin= 4 EnMin= -1657.14857234577     IErMin= 4 ErrMin= 5.84D-03
 ErrMax= 5.84D-03 EMaxC= 1.00D-01 BMatC= 3.26D-02 BMatP= 1.12D-01
 IDIUse=3 WtCom= 9.42D-01 WtEn= 5.84D-02
 Coeff-Com:  0.241D-01 0.149D+00 0.352D+00 0.475D+00
 Coeff-En:   0.000D+00 0.000D+00 0.263D+00 0.737D+00
 Coeff:      0.226D-01 0.140D+00 0.347D+00 0.491D+00
 Gap=     0.190 Goal=   None    Shift=    0.000
 RMSDP=4.14D-04 MaxDP=2.37D-02 DE=-7.48D-02 OVMax= 4.44D-02

 Cycle   5  Pass 0  IDiag  1:
 RMSU=  1.63D-04    CP:  9.61D-01  8.37D-01  6.98D-01  5.24D-01
 E= -1657.17511297775     Delta-E=       -0.026540631983 Rises=F Damp=F
 DIIS: error= 2.14D-03 at cycle   5 NSaved=   5.
 NSaved= 5 IEnMin= 5 EnMin= -1657.17511297775     IErMin= 5 ErrMin= 2.14D-03
 ErrMax= 2.14D-03 EMaxC= 1.00D-01 BMatC= 3.24D-03 BMatP= 3.26D-02
 IDIUse=3 WtCom= 9.79D-01 WtEn= 2.14D-02
 Coeff-Com:  0.564D-02 0.252D-01 0.161D+00 0.331D+00 0.478D+00
 Coeff-En:   0.000D+00 0.000D+00 0.000D+00 0.909D-01 0.909D+00
 Coeff:      0.552D-02 0.247D-01 0.157D+00 0.325D+00 0.487D+00
 Gap=     0.188 Goal=   None    Shift=    0.000
 RMSDP=1.39D-04 MaxDP=8.04D-03 DE=-2.65D-02 OVMax= 1.94D-02

 Cycle   6  Pass 0  IDiag  1:
 RMSU=  4.29D-05    CP:  9.60D-01  8.35D-01  7.13D-01  6.15D-01  5.35D-01
 E= -1657.17848510205     Delta-E=       -0.003372124303 Rises=F Damp=F
 DIIS: error= 5.20D-04 at cycle   6 NSaved=   6.
 NSaved= 6 IEnMin= 6 EnMin= -1657.17848510205     IErMin= 6 ErrMin= 5.20D-04
 ErrMax= 5.20D-04 EMaxC= 1.00D-01 BMatC= 2.29D-04 BMatP= 3.24D-03
 IDIUse=3 WtCom= 9.95D-01 WtEn= 5.20D-03
 Coeff-Com:  0.717D-03-0.589D-02 0.436D-01 0.120D+00 0.275D+00 0.566D+00
 Coeff-En:   0.000D+00 0.000D+00 0.000D+00 0.000D+00 0.107D-01 0.989D+00
 Coeff:      0.714D-03-0.586D-02 0.434D-01 0.119D+00 0.274D+00 0.569D+00
 Gap=     0.188 Goal=   None    Shift=    0.000
 RMSDP=3.28D-05 MaxDP=2.22D-03 DE=-3.37D-03 OVMax= 3.88D-03

 Cycle   7  Pass 0  IDiag  1:
 RMSU=  1.53D-05    CP:  9.60D-01  8.35D-01  7.16D-01  6.11D-01  5.81D-01
                    CP:  6.43D-01
 E= -1657.17870303715     Delta-E=       -0.000217935101 Rises=F Damp=F
 DIIS: error= 1.53D-04 at cycle   7 NSaved=   7.
 NSaved= 7 IEnMin= 7 EnMin= -1657.17870303715     IErMin= 7 ErrMin= 1.53D-04
 ErrMax= 1.53D-04 EMaxC= 1.00D-01 BMatC= 2.63D-05 BMatP= 2.29D-04
 IDIUse=3 WtCom= 9.98D-01 WtEn= 1.53D-03
 Coeff-Com:  0.135D-03-0.525D-02 0.116D-01 0.395D-01 0.114D+00 0.330D+00
 Coeff-Com:  0.509D+00
 Coeff-En:   0.000D+00 0.000D+00 0.000D+00 0.000D+00 0.000D+00 0.375D-01
 Coeff-En:   0.962D+00
 Coeff:      0.135D-03-0.524D-02 0.115D-01 0.394D-01 0.114D+00 0.330D+00
 Coeff:      0.510D+00
 Gap=     0.187 Goal=   None    Shift=    0.000
 RMSDP=1.08D-05 MaxDP=7.35D-04 DE=-2.18D-04 OVMax= 1.12D-03

 Cycle   8  Pass 0  IDiag  1:
 RMSU=  4.08D-06    CP:  9.60D-01  8.35D-01  7.15D-01  6.13D-01  5.88D-01
                    CP:  6.97D-01  6.29D-01
 E= -1657.17873279012     Delta-E=       -0.000029752967 Rises=F Damp=F
 DIIS: error= 3.88D-05 at cycle   8 NSaved=   8.
 NSaved= 8 IEnMin= 8 EnMin= -1657.17873279012     IErMin= 8 ErrMin= 3.88D-05
 ErrMax= 3.88D-05 EMaxC= 1.00D-01 BMatC= 1.54D-06 BMatP= 2.63D-05
 IDIUse=1 WtCom= 1.00D+00 WtEn= 0.00D+00
 Coeff-Com:  0.138D-03-0.237D-02 0.328D-02 0.120D-01 0.401D-01 0.130D+00
 Coeff-Com:  0.263D+00 0.554D+00
 Coeff:      0.138D-03-0.237D-02 0.328D-02 0.120D-01 0.401D-01 0.130D+00
 Coeff:      0.263D+00 0.554D+00
 Gap=     0.187 Goal=   None    Shift=    0.000
 RMSDP=3.45D-06 MaxDP=2.11D-04 DE=-2.98D-05 OVMax= 3.63D-04

 Initial convergence to 1.0D-05 achieved.  Increase integral accuracy.
 Cycle   9  Pass 1  IDiag  1:
 E= -1657.17889971516     Delta-E=       -0.000166925039 Rises=F Damp=F
 DIIS: error= 2.41D-04 at cycle   1 NSaved=   1.
 NSaved= 1 IEnMin= 1 EnMin= -1657.17889971516     IErMin= 1 ErrMin= 2.41D-04
 ErrMax= 2.41D-04 EMaxC= 1.00D-01 BMatC= 1.27D-05 BMatP= 1.27D-05
 IDIUse=3 WtCom= 9.98D-01 WtEn= 2.41D-03
 Coeff-Com:  0.100D+01
 Coeff-En:   0.100D+01
 Coeff:      0.100D+01
 Gap=     0.187 Goal=   None    Shift=    0.000
 RMSDP=3.45D-06 MaxDP=2.11D-04 DE=-1.67D-04 OVMax= 7.88D-04

 Cycle  10  Pass 1  IDiag  1:
 RMSU=  9.68D-05    CP:  1.00D+00
 E= -1657.17890980429     Delta-E=       -0.000010089130 Rises=F Damp=F
 DIIS: error= 5.28D-05 at cycle   2 NSaved=   2.
 NSaved= 2 IEnMin= 2 EnMin= -1657.17890980429     IErMin= 2 ErrMin= 5.28D-05
 ErrMax= 5.28D-05 EMaxC= 1.00D-01 BMatC= 2.46D-06 BMatP= 1.27D-05
 IDIUse=1 WtCom= 1.00D+00 WtEn= 0.00D+00
 Coeff-Com:  0.201D+00 0.799D+00
 Coeff:      0.201D+00 0.799D+00
 Gap=     0.187 Goal=   None    Shift=    0.000
 RMSDP=7.63D-06 MaxDP=5.84D-04 DE=-1.01D-05 OVMax= 9.56D-04

 Cycle  11  Pass 1  IDiag  1:
 RMSU=  5.32D-06    CP:  1.00D+00  1.01D+00
 E= -1657.17890586919     Delta-E=        0.000003935095 Rises=F Damp=F
 DIIS: error= 9.01D-05 at cycle   3 NSaved=   3.
 NSaved= 3 IEnMin= 2 EnMin= -1657.17890980429     IErMin= 2 ErrMin= 5.28D-05
 ErrMax= 9.01D-05 EMaxC= 1.00D-01 BMatC= 6.56D-06 BMatP= 2.46D-06
 IDIUse=1 WtCom= 1.00D+00 WtEn= 0.00D+00
 Coeff-Com: -0.423D-02 0.623D+00 0.382D+00
 Coeff:     -0.423D-02 0.623D+00 0.382D+00
 Gap=     0.187 Goal=   None    Shift=    0.000
 RMSDP=4.72D-06 MaxDP=3.90D-04 DE= 3.94D-06 OVMax= 6.33D-04

 Cycle  12  Pass 1  IDiag  1:
 RMSU=  5.22D-07    CP:  1.00D+00  1.01D+00  3.84D-01
 E= -1657.17891215950     Delta-E=       -0.000006290302 Rises=F Damp=F
 DIIS: error= 6.69D-06 at cycle   4 NSaved=   4.
 NSaved= 4 IEnMin= 4 EnMin= -1657.17891215950     IErMin= 4 ErrMin= 6.69D-06
 ErrMax= 6.69D-06 EMaxC= 1.00D-01 BMatC= 4.08D-08 BMatP= 2.46D-06
 IDIUse=1 WtCom= 1.00D+00 WtEn= 0.00D+00
 Coeff-Com: -0.435D-02 0.384D+00 0.240D+00 0.380D+00
 Coeff:     -0.435D-02 0.384D+00 0.240D+00 0.380D+00
 Gap=     0.187 Goal=   None    Shift=    0.000
 RMSDP=4.04D-07 MaxDP=3.15D-05 DE=-6.29D-06 OVMax= 5.10D-05

 Cycle  13  Pass 1  IDiag  1:
 RMSU=  1.81D-07    CP:  1.00D+00  1.01D+00  3.91D-01  5.84D-01
 E= -1657.17891220023     Delta-E=       -0.000000040730 Rises=F Damp=F
 DIIS: error= 1.23D-06 at cycle   5 NSaved=   5.
 NSaved= 5 IEnMin= 5 EnMin= -1657.17891220023     IErMin= 5 ErrMin= 1.23D-06
 ErrMax= 1.23D-06 EMaxC= 1.00D-01 BMatC= 1.24D-09 BMatP= 4.08D-08
 IDIUse=1 WtCom= 1.00D+00 WtEn= 0.00D+00
 Coeff-Com: -0.224D-02 0.185D+00 0.116D+00 0.214D+00 0.488D+00
 Coeff:     -0.224D-02 0.185D+00 0.116D+00 0.214D+00 0.488D+00
 Gap=     0.187 Goal=   None    Shift=    0.000
 RMSDP=9.30D-08 MaxDP=3.72D-06 DE=-4.07D-08 OVMax= 1.13D-05

 Cycle  14  Pass 1  IDiag  1:
 RMSU=  5.79D-08    CP:  1.00D+00  1.01D+00  3.91D-01  6.16D-01  8.56D-01
 E= -1657.17891220136     Delta-E=       -0.000000001130 Rises=F Damp=F
 DIIS: error= 5.80D-07 at cycle   6 NSaved=   6.
 NSaved= 6 IEnMin= 6 EnMin= -1657.17891220136     IErMin= 6 ErrMin= 5.80D-07
 ErrMax= 5.80D-07 EMaxC= 1.00D-01 BMatC= 2.17D-10 BMatP= 1.24D-09
 IDIUse=1 WtCom= 1.00D+00 WtEn= 0.00D+00
 Coeff-Com: -0.645D-03 0.495D-01 0.313D-01 0.661D-01 0.308D+00 0.545D+00
 Coeff:     -0.645D-03 0.495D-01 0.313D-01 0.661D-01 0.308D+00 0.545D+00
 Gap=     0.187 Goal=   None    Shift=    0.000
 RMSDP=3.73D-08 MaxDP=1.65D-06 DE=-1.13D-09 OVMax= 4.38D-06

 Cycle  15  Pass 1  IDiag  1:
 RMSU=  1.76D-08    CP:  1.00D+00  1.01D+00  3.91D-01  6.15D-01  9.08D-01
                    CP:  7.06D-01
 E= -1657.17891220155     Delta-E=       -0.000000000193 Rises=F Damp=F
 DIIS: error= 1.67D-07 at cycle   7 NSaved=   7.
 NSaved= 7 IEnMin= 7 EnMin= -1657.17891220155     IErMin= 7 ErrMin= 1.67D-07
 ErrMax= 1.67D-07 EMaxC= 1.00D-01 BMatC= 4.82D-11 BMatP= 2.17D-10
 IDIUse=1 WtCom= 1.00D+00 WtEn= 0.00D+00
 Coeff-Com: -0.316D-04-0.340D-03 0.226D-04 0.533D-02 0.124D+00 0.375D+00
 Coeff-Com:  0.496D+00
 Coeff:     -0.316D-04-0.340D-03 0.226D-04 0.533D-02 0.124D+00 0.375D+00
 Coeff:      0.496D+00
 Gap=     0.187 Goal=   None    Shift=    0.000
 RMSDP=1.55D-08 MaxDP=1.08D-06 DE=-1.93D-10 OVMax= 1.55D-06

 Cycle  16  Pass 1  IDiag  1:
 RMSU=  6.76D-09    CP:  1.00D+00  1.01D+00  3.91D-01  6.18D-01  9.18D-01
                    CP:  7.41D-01  5.50D-01
 E= -1657.17891220155     Delta-E=       -0.000000000002 Rises=F Damp=F
 DIIS: error= 6.83D-08 at cycle   8 NSaved=   8.
 NSaved= 8 IEnMin= 8 EnMin= -1657.17891220155     IErMin= 8 ErrMin= 6.83D-08
 ErrMax= 6.83D-08 EMaxC= 1.00D-01 BMatC= 5.51D-12 BMatP= 4.82D-11
 IDIUse=1 WtCom= 1.00D+00 WtEn= 0.00D+00
 Coeff-Com:  0.488D-04-0.556D-02-0.336D-02-0.380D-02 0.464D-01 0.189D+00
 Coeff-Com:  0.321D+00 0.456D+00
 Coeff:      0.488D-04-0.556D-02-0.336D-02-0.380D-02 0.464D-01 0.189D+00
 Coeff:      0.321D+00 0.456D+00
 Gap=     0.187 Goal=   None    Shift=    0.000
 RMSDP=5.42D-09 MaxDP=2.86D-07 DE=-1.82D-12 OVMax= 5.66D-07

 SCF Done:  E(RB3LYP) =  -1657.17891220     A.U. after   16 cycles
             Convg  =    0.5424D-08             -V/T =  2.0050
 KE= 1.648998020906D+03 PE=-9.972133986454D+03 EE= 3.615531798249D+03
 Leave Link  502 at Tue Aug 30 20:57:07 2022, MaxMem=  209715200 cpu:    6737.8
 (Enter /opt/gaussian/l601.exe)
 Copying SCF densities to generalized density rwf, IOpCl= 0 IROHF=0.

 **********************************************************************

            Population analysis using the SCF density.

 **********************************************************************

 Orbital symmetries:
       Occupied  (A) (A) (A) (A) (A) (A) (A) (A) (A) (A) (A) (A)
                 (A) (A) (A) (A) (A) (A) (A) (A) (A) (A) (A) (A)
                 (A) (A) (A) (A) (A) (A) (A) (A) (A) (A) (A) (A)
                 (A) (A) (A) (A) (A) (A) (A) (A) (A) (A) (A) (A)
                 (A) (A) (A) (A) (A) (A) (A) (A) (A) (A) (A) (A)
                 (A) (A) (A) (A) (A) (A) (A) (A) (A) (A) (A) (A)
                 (A) (A) (A) (A) (A) (A) (A) (A) (A) (A) (A) (A)
                 (A) (A) (A) (A) (A) (A) (A) (A) (A) (A) (A) (A)
                 (A) (A) (A) (A) (A) (A) (A) (A) (A) (A) (A) (A)
                 (A) (A) (A)
       Virtual   (A) (A) (A) (A) (A) (A) (A) (A) (A) (A) (A) (A)
                 (A) (A) (A) (A) (A) (A) (A) (A) (A) (A) (A) (A)
                 (A) (A) (A) (A) (A) (A) (A) (A) (A) (A) (A) (A)
                 (A) (A) (A) (A) (A) (A) (A) (A) (A) (A) (A) (A)
                 (A) (A) (A) (A) (A) (A) (A) (A) (A) (A) (A) (A)
                 (A) (A) (A) (A) (A) (A) (A) (A) (A) (A) (A) (A)
                 (A) (A) (A) (A) (A) (A) (A) (A) (A) (A) (A) (A)
                 (A) (A) (A) (A) (A) (A) (A) (A) (A) (A) (A) (A)
                 (A) (A) (A) (A) (A) (A) (A) (A) (A) (A) (A) (A)
                 (A) (A) (A) (A) (A) (A) (A) (A) (A) (A) (A) (A)
                 (A) (A) (A) (A) (A) (A) (A) (A) (A) (A) (A) (A)
                 (A) (A) (A) (A) (A) (A) (A) (A) (A) (A) (A) (A)
                 (A) (A) (A) (A) (A) (A) (A) (A) (A) (A) (A) (A)
                 (A) (A) (A) (A) (A) (A) (A) (A) (A) (A) (A) (A)
                 (A) (A) (A) (A) (A) (A) (A) (A) (A) (A) (A) (A)
                 (A) (A) (A) (A) (A) (A) (A) (A) (A) (A) (A) (A)
                 (A) (A) (A) (A) (A) (A) (A) (A) (A) (A) (A) (A)
                 (A) (A) (A) (A) (A) (A) (A) (A) (A) (A) (A) (A)
                 (A) (A) (A) (A) (A) (A) (A) (A) (A) (A) (A) (A)
                 (A) (A) (A) (A) (A) (A) (A) (A) (A) (A) (A) (A)
                 (A) (A) (A) (A) (A) (A) (A) (A) (A) (A) (A) (A)
                 (A) (A) (A) (A) (A) (A) (A) (A) (A) (A) (A) (A)
                 (A) (A) (A) (A) (A) (A) (A) (A) (A) (A) (A) (A)
                 (A) (A) (A) (A) (A) (A) (A) (A) (A) (A) (A) (A)
                 (A) (A) (A) (A) (A) (A) (A) (A) (A) (A) (A) (A)
                 (A) (A) (A) (A) (A) (A) (A) (A) (A) (A) (A) (A)
                 (A) (A) (A) (A) (A) (A) (A) (A) (A) (A) (A) (A)
                 (A) (A) (A) (A) (A) (A) (A) (A) (A) (A) (A) (A)
                 (A) (A) (A) (A) (A) (A) (A) (A) (A) (A) (A) (A)
                 (A) (A) (A) (A) (A) (A) (A) (A) (A) (A) (A) (A)
                 (A) (A) (A) (A) (A) (A) (A) (A) (A) (A) (A) (A)
                 (A) (A) (A) (A) (A) (A) (A) (A) (A) (A) (A) (A)
                 (A) (A) (A) (A) (A) (A) (A) (A) (A) (A) (A) (A)
                 (A) (A) (A) (A) (A) (A) (A) (A) (A) (A) (A) (A)
                 (A) (A) (A) (A) (A) (A) (A) (A) (A) (A) (A) (A)
                 (A) (A) (A) (A) (A) (A) (A)
 The electronic state is 1-A.
 Alpha  occ. eigenvalues --  -88.90401 -19.11284 -14.41563 -14.39317 -14.37108
 Alpha  occ. eigenvalues --  -14.35244 -10.29618 -10.24952 -10.23852 -10.23550
 Alpha  occ. eigenvalues --  -10.22999 -10.21385 -10.21381 -10.21172 -10.20891
 Alpha  occ. eigenvalues --  -10.20754 -10.20621 -10.20479 -10.20338 -10.20311
 Alpha  occ. eigenvalues --  -10.20217 -10.20186 -10.20153 -10.19773 -10.19620
 Alpha  occ. eigenvalues --  -10.19602 -10.19582 -10.19566 -10.19498 -10.19478
 Alpha  occ. eigenvalues --  -10.19148  -7.96476  -5.92818  -5.92457  -5.92086
 Alpha  occ. eigenvalues --   -1.10810  -1.04671  -0.95673  -0.93248  -0.88500
 Alpha  occ. eigenvalues --   -0.87797  -0.87317  -0.86134  -0.79335  -0.78958
 Alpha  occ. eigenvalues --   -0.77930  -0.77018  -0.76538  -0.75836  -0.74879
 Alpha  occ. eigenvalues --   -0.73408  -0.72996  -0.68520  -0.65834  -0.64993
 Alpha  occ. eigenvalues --   -0.63802  -0.63402  -0.61188  -0.61088  -0.60030
 Alpha  occ. eigenvalues --   -0.57629  -0.57302  -0.55324  -0.54248  -0.53816
 Alpha  occ. eigenvalues --   -0.53541  -0.52428  -0.50665  -0.49224  -0.48990
 Alpha  occ. eigenvalues --   -0.48188  -0.47796  -0.47676  -0.45997  -0.45788
 Alpha  occ. eigenvalues --   -0.45708  -0.45556  -0.45320  -0.44141  -0.43734
 Alpha  occ. eigenvalues --   -0.43115  -0.42793  -0.42030  -0.41503  -0.39572
 Alpha  occ. eigenvalues --   -0.39373  -0.38878  -0.38678  -0.37880  -0.37603
 Alpha  occ. eigenvalues --   -0.37326  -0.37097  -0.36748  -0.36667  -0.36299
 Alpha  occ. eigenvalues --   -0.35111  -0.35047  -0.34010  -0.33887  -0.31915
 Alpha  occ. eigenvalues --   -0.29154  -0.27375  -0.27006  -0.26510  -0.26450
 Alpha  occ. eigenvalues --   -0.25986  -0.25646  -0.24956  -0.24609  -0.24197
 Alpha  occ. eigenvalues --   -0.23468
 Alpha virt. eigenvalues --   -0.04724  -0.04259  -0.02722  -0.01674  -0.01541
 Alpha virt. eigenvalues --    0.00154   0.00202   0.01222   0.02630   0.02873
 Alpha virt. eigenvalues --    0.04906   0.05385   0.05895   0.06628   0.07404
 Alpha virt. eigenvalues --    0.08134   0.08781   0.09354   0.09880   0.10117
 Alpha virt. eigenvalues --    0.10479   0.11235   0.11488   0.11755   0.12360
 Alpha virt. eigenvalues --    0.12948   0.13490   0.13778   0.14432   0.14717
 Alpha virt. eigenvalues --    0.15160   0.15342   0.16116   0.16197   0.17061
 Alpha virt. eigenvalues --    0.17797   0.18499   0.19238   0.20764   0.21057
 Alpha virt. eigenvalues --    0.23102   0.23980   0.24263   0.25257   0.25891
 Alpha virt. eigenvalues --    0.27238   0.27499   0.28251   0.28451   0.28946
 Alpha virt. eigenvalues --    0.29610   0.30392   0.30671   0.31166   0.31662
 Alpha virt. eigenvalues --    0.32035   0.32988   0.33344   0.35633   0.36487
 Alpha virt. eigenvalues --    0.37062   0.37991   0.38831   0.39289   0.40444
 Alpha virt. eigenvalues --    0.41113   0.41947   0.42296   0.42594   0.43981
 Alpha virt. eigenvalues --    0.44147   0.44838   0.45037   0.45365   0.45589
 Alpha virt. eigenvalues --    0.45805   0.46437   0.47189   0.47477   0.47889
 Alpha virt. eigenvalues --    0.48170   0.48306   0.48531   0.48634   0.48950
 Alpha virt. eigenvalues --    0.49232   0.49551   0.49881   0.50177   0.50445
 Alpha virt. eigenvalues --    0.50685   0.50728   0.50870   0.51418   0.51622
 Alpha virt. eigenvalues --    0.52107   0.52669   0.52812   0.53049   0.53939
 Alpha virt. eigenvalues --    0.54226   0.54945   0.55072   0.55832   0.56080
 Alpha virt. eigenvalues --    0.57038   0.57898   0.58044   0.58358   0.58820
 Alpha virt. eigenvalues --    0.58905   0.59680   0.60150   0.60541   0.60941
 Alpha virt. eigenvalues --    0.61353   0.62228   0.62276   0.62579   0.63628
 Alpha virt. eigenvalues --    0.64091   0.64276   0.64454   0.64759   0.65380
 Alpha virt. eigenvalues --    0.65783   0.66024   0.66404   0.66681   0.66824
 Alpha virt. eigenvalues --    0.67333   0.67774   0.68144   0.68363   0.69026
 Alpha virt. eigenvalues --    0.69723   0.70082   0.70714   0.71346   0.71704
 Alpha virt. eigenvalues --    0.72061   0.72542   0.73043   0.73211   0.74023
 Alpha virt. eigenvalues --    0.74424   0.74905   0.76000   0.77238   0.78079
 Alpha virt. eigenvalues --    0.78223   0.79661   0.80175   0.81198   0.82618
 Alpha virt. eigenvalues --    0.83206   0.83909   0.84570   0.85220   0.86011
 Alpha virt. eigenvalues --    0.86984   0.87419   0.88315   0.88786   0.88863
 Alpha virt. eigenvalues --    0.89322   0.90190   0.90525   0.91337   0.91713
 Alpha virt. eigenvalues --    0.92253   0.92683   0.93296   0.93744   0.94193
 Alpha virt. eigenvalues --    0.95548   0.95753   0.96212   0.97070   0.97439
 Alpha virt. eigenvalues --    0.97985   0.98632   0.99243   0.99308   0.99949
 Alpha virt. eigenvalues --    1.00329   1.00716   1.01046   1.01677   1.02088
 Alpha virt. eigenvalues --    1.02573   1.02907   1.03108   1.03371   1.04114
 Alpha virt. eigenvalues --    1.04281   1.04722   1.05203   1.05542   1.05947
 Alpha virt. eigenvalues --    1.06676   1.07136   1.07458   1.08305   1.08946
 Alpha virt. eigenvalues --    1.10117   1.11327   1.12099   1.12751   1.14215
 Alpha virt. eigenvalues --    1.14633   1.15431   1.16795   1.17335   1.19191
 Alpha virt. eigenvalues --    1.19565   1.21601   1.22059   1.22413   1.23855
 Alpha virt. eigenvalues --    1.24752   1.25229   1.25808   1.27883   1.30252
 Alpha virt. eigenvalues --    1.31470   1.31734   1.32589   1.33261   1.33962
 Alpha virt. eigenvalues --    1.34529   1.35285   1.37041   1.38145   1.38294
 Alpha virt. eigenvalues --    1.38893   1.41538   1.41868   1.42961   1.44480
 Alpha virt. eigenvalues --    1.45704   1.45833   1.46895   1.47978   1.48519
 Alpha virt. eigenvalues --    1.49100   1.49373   1.50118   1.50176   1.50889
 Alpha virt. eigenvalues --    1.51678   1.52032   1.52659   1.53329   1.54880
 Alpha virt. eigenvalues --    1.55547   1.56712   1.57431   1.57607   1.58386
 Alpha virt. eigenvalues --    1.58914   1.59198   1.59991   1.60443   1.60825
 Alpha virt. eigenvalues --    1.61701   1.61961   1.62182   1.62741   1.63061
 Alpha virt. eigenvalues --    1.63197   1.63729   1.64218   1.64469   1.65043
 Alpha virt. eigenvalues --    1.65190   1.65775   1.65910   1.66546   1.67481
 Alpha virt. eigenvalues --    1.67976   1.68463   1.68835   1.70109   1.70517
 Alpha virt. eigenvalues --    1.71159   1.71245   1.71643   1.72372   1.72717
 Alpha virt. eigenvalues --    1.73679   1.73994   1.74775   1.75295   1.75377
 Alpha virt. eigenvalues --    1.75787   1.76055   1.76687   1.77448   1.77586
 Alpha virt. eigenvalues --    1.78217   1.78682   1.79060   1.80168   1.80510
 Alpha virt. eigenvalues --    1.81101   1.81619   1.82006   1.82484   1.83914
 Alpha virt. eigenvalues --    1.84208   1.84466   1.85114   1.85413   1.86082
 Alpha virt. eigenvalues --    1.86744   1.87609   1.87917   1.88580   1.88943
 Alpha virt. eigenvalues --    1.89111   1.89311   1.89921   1.90499   1.92159
 Alpha virt. eigenvalues --    1.92833   1.93725   1.95148   1.95642   1.96297
 Alpha virt. eigenvalues --    1.96778   1.97311   1.98336   1.98902   1.99148
 Alpha virt. eigenvalues --    1.99359   2.00327   2.00708   2.01728   2.01986
 Alpha virt. eigenvalues --    2.02180   2.02594   2.03232   2.04100   2.05138
 Alpha virt. eigenvalues --    2.05904   2.07130   2.08872   2.10312   2.11333
 Alpha virt. eigenvalues --    2.11720   2.12157   2.13614   2.16572   2.16810
 Alpha virt. eigenvalues --    2.17835   2.18712   2.19348   2.21000   2.21877
 Alpha virt. eigenvalues --    2.22955   2.24271   2.24652   2.25408   2.25691
 Alpha virt. eigenvalues --    2.28624   2.30547   2.31377   2.34795   2.37633
 Alpha virt. eigenvalues --    2.40437   2.41301   2.41657   2.42589   2.42611
 Alpha virt. eigenvalues --    2.43273   2.44055   2.45198   2.45600   2.46147
 Alpha virt. eigenvalues --    2.46625   2.46911   2.47589   2.48425   2.49610
 Alpha virt. eigenvalues --    2.50811   2.53178   2.54546   2.56885   2.57774
 Alpha virt. eigenvalues --    2.59397   2.61472   2.63208   2.64004   2.66870
 Alpha virt. eigenvalues --    2.67071   2.68709   2.70067   2.70223   2.71561
 Alpha virt. eigenvalues --    2.72658   2.73551   2.74374   2.75326   2.75448
 Alpha virt. eigenvalues --    2.77273   2.77599   2.78509   2.81798   2.82604
 Alpha virt. eigenvalues --    2.85943   2.86893   2.90019   2.94338   2.95555
 Alpha virt. eigenvalues --    2.99343   2.99924   3.00567   3.08934   3.10504
 Alpha virt. eigenvalues --    3.14149   3.14810   3.41079   3.49217   3.52714
 Alpha virt. eigenvalues --    3.59672   3.65820
          Condensed to atoms (all electrons):
 Mulliken atomic charges:
              1
     1  O   -0.276813
     2  C    0.111328
     3  C    0.218776
     4  N   -0.258426
     5  N   -0.050038
     6  N   -0.178292
     7  C   -0.006819
     8  C    0.204894
     9  C    0.038685
    10  C    0.055116
    11  C    0.047187
    12  C    0.061756
    13  N   -0.227068
    14  C    0.212961
    15  C   -0.036566
    16  C   -0.111186
    17  S    0.107666
    18  C   -0.092484
    19  C    0.076998
    20  C   -0.034437
    21  C    0.095338
    22  C    0.048755
    23  C    0.028224
    24  C    0.054233
    25  C    0.104084
    26  C    0.001714
    27  C    0.032266
    28  C    0.054878
    29  C    0.044833
    30  C    0.053938
    31  C    0.032742
    32  H    0.045650
    33  H    0.036521
    34  H   -0.036985
    35  H   -0.033344
    36  H   -0.036394
    37  H   -0.032611
    38  H    0.004107
    39  H    0.032315
    40  H    0.010163
    41  H    0.000981
    42  H   -0.037284
    43  H   -0.038527
    44  H   -0.045058
    45  H   -0.040947
    46  H   -0.033700
    47  H   -0.051431
    48  H   -0.037611
    49  H   -0.039127
    50  H   -0.037852
    51  H   -0.043106
 Sum of Mulliken atomic charges =   0.00000
 Mulliken charges with hydrogens summed into heavy atoms:
              1
     1  O   -0.276813
     2  C    0.111328
     3  C    0.300947
     4  N   -0.258426
     5  N   -0.050038
     6  N   -0.178292
     7  C   -0.006819
     8  C    0.204894
     9  C    0.001699
    10  C    0.021772
    11  C    0.010794
    12  C    0.029145
    13  N   -0.227068
    14  C    0.249383
    15  C   -0.036566
    16  C   -0.101024
    17  S    0.107666
    18  C   -0.091502
    19  C    0.039714
    20  C   -0.034437
    21  C    0.056811
    22  C    0.003697
    23  C    0.028224
    24  C    0.013285
    25  C    0.070384
    26  C    0.001714
    27  C   -0.019165
    28  C    0.017267
    29  C    0.005706
    30  C    0.016086
    31  C   -0.010365
 Sum of Mulliken charges with hydrogens summed into heavy atoms =   0.00000
 Electronic spatial extent (au):  <R**2>=          14397.4469
 Charge=              0.0000 electrons
 Dipole moment (field-independent basis, Debye):
    X=              3.5830    Y=              3.9619    Z=              2.2532  Tot=              5.7976
 Quadrupole moment (field-independent basis, Debye-Ang):
   XX=           -183.4446   YY=           -190.4438   ZZ=           -181.7069
   XY=             -4.3922   XZ=              1.0547   YZ=             -6.4138
 Traceless Quadrupole moment (field-independent basis, Debye-Ang):
   XX=              1.7538   YY=             -5.2454   ZZ=              3.4916
   XY=             -4.3922   XZ=              1.0547   YZ=             -6.4138
 Octapole moment (field-independent basis, Debye-Ang**2):
  XXX=            135.0194  YYY=             99.2119  ZZZ=              8.6899  XYY=             10.7371
  XXY=             15.2505  XXZ=             -4.3943  XZZ=            -13.5578  YZZ=             -9.0804
  YYZ=             44.7394  XYZ=              3.0550
 Hexadecapole moment (field-independent basis, Debye-Ang**3):
 XXXX=         -11934.6971 YYYY=          -6568.3423 ZZZZ=          -1054.4940 XXXY=             73.1672
 XXXZ=            -80.9225 YYYX=             43.0780 YYYZ=            -17.0858 ZZZX=             15.0290
 ZZZY=            -20.8140 XXYY=          -2993.4800 XXZZ=          -2240.8802 YYZZ=          -1369.7377
 XXYZ=             51.8170 YYXZ=             -1.2860 ZZXY=              0.6854
 N-N= 3.050425255097D+03 E-N=-9.972134020765D+03  KE= 1.648998020906D+03
 No NMR shielding tensors so no spin-rotation constants.
 Leave Link  601 at Tue Aug 30 20:57:08 2022, MaxMem=  209715200 cpu:       4.1
 (Enter /opt/gaussian/l701.exe)
 Compute integral first derivatives.
 ... and contract with generalized density number  0.
 Leave Link  701 at Tue Aug 30 20:57:08 2022, MaxMem=  209715200 cpu:       3.5
 (Enter /opt/gaussian/l702.exe)
 L702 exits ... SP integral derivatives will be done elsewhere.
 Leave Link  702 at Tue Aug 30 20:57:08 2022, MaxMem=  209715200 cpu:       0.2
 (Enter /opt/gaussian/l703.exe)
 Compute integral first derivatives, UseDBF=F ICtDFT=           0.
 Integral derivatives from FoFDir, PRISM(SPDF).
 Calling FoFJK, ICntrl=      2127 FMM=F ISym2X=0 I1Cent= 0 IOpClX= 0 NMat=1 NMatS=1 NMatT=0.
 FoFCou: FMM=F IPFlag=           0 FMFlag=      100000 FMFlg1=         800
         NFxFlg=           0 DoJE=F BraDBF=F KetDBF=F FulRan=T
         Omega=  0.000000  0.000000  1.000000  0.000000  0.000000 ICntrl=    2127 IOpCl=  0
         NMat0=    1 NMatS0=    1 NMatT0=    0 NMatD0=    1 NMtDS0=    0 NMtDT0=    0
         I1Cent=           0 NGrid=           0.
 Symmetry not used in FoFCou.
 Leave Link  703 at Tue Aug 30 21:01:54 2022, MaxMem=  209715200 cpu:    2279.5
 (Enter /opt/gaussian/l716.exe)
 Dipole        = 1.40967500D+00 1.55873103D+00 8.86483847D-01
 ***** Axes restored to original set *****
 -------------------------------------------------------------------
 Center     Atomic                   Forces (Hartrees/Bohr)
 Number     Number              X              Y              Z
 -------------------------------------------------------------------
      1        8           0.000503765    0.000175744   -0.001639488
      2        6          -0.016572015   -0.008206266    0.005335753
      3        6           0.005315831    0.003930401   -0.010002123
      4        7           0.001622114    0.000682137    0.001301006
      5        7          -0.019017463    0.001112838    0.001853690
      6        7           0.019141758   -0.005330664   -0.011641698
      7        6          -0.004475435   -0.006408125   -0.013613833
      8        6          -0.004586546    0.004712323    0.010965866
      9        6          -0.003294879   -0.001770387   -0.003703571
     10        6           0.004463433   -0.002584858   -0.005655615
     11        6          -0.004570038    0.002758857    0.006012391
     12        6          -0.002939428    0.000078091    0.000046783
     13        7           0.004273294    0.006321260   -0.006292154
     14        6           0.001433344    0.003892254    0.011388647
     15        6           0.015694043    0.012001846   -0.011895043
     16        6          -0.020719931    0.020880951    0.017161216
     17       16           0.020227627   -0.003277585   -0.015407842
     18        6          -0.024479467   -0.014815450    0.017040321
     19        6           0.003895932   -0.019970402   -0.004269092
     20        6          -0.006742585   -0.005183315   -0.000766542
     21        6           0.002444023    0.001523237   -0.000307102
     22        6          -0.001932102   -0.002011789   -0.002529724
     23        6           0.009146864    0.005854386    0.000088271
     24        6          -0.002486646   -0.000855628    0.002716955
     25        6           0.001591675    0.002115855    0.001018346
     26        6          -0.008544288   -0.005643089   -0.000634110
     27        6           0.003161822   -0.000598674    0.000395889
     28        6          -0.000056479   -0.003279612   -0.000880420
     29        6          -0.002382905   -0.001658686   -0.000211235
     30        6          -0.003128154    0.001279138    0.000649373
     31        6           0.000706465    0.003126405   -0.000155829
     32        1          -0.006152432   -0.011234804    0.004854341
     33        1           0.003595673    0.007569014    0.010463562
     34        1          -0.007407458    0.005163763    0.011292434
     35        1           0.006947405    0.005221017    0.011272439
     36        1           0.014348764    0.000232575    0.000618937
     37        1           0.007082605   -0.005303174   -0.011373477
     38        1           0.005755889    0.006108589   -0.009384688
     39        1          -0.006741737   -0.011373403   -0.003329171
     40        1          -0.005594534   -0.014659540    0.003373527
     41        1          -0.002059902    0.015925127    0.002753820
     42        1           0.010782922    0.006298324   -0.007631160
     43        1          -0.009288751    0.000133884    0.009854324
     44        1           0.002085930    0.008094585    0.011246911
     45        1           0.009460579   -0.000325062   -0.010428462
     46        1          -0.002018638   -0.008398050   -0.010878104
     47        1          -0.012432625    0.005624328    0.002757327
     48        1          -0.000937967    0.013505186    0.003847985
     49        1           0.011741979    0.007786955    0.000895144
     50        1           0.012430595   -0.005899583   -0.002926606
     51        1           0.000708078   -0.013320926   -0.003648168
 -------------------------------------------------------------------
 Cartesian Forces:  Max     0.024479467 RMS     0.008301053
 Leave Link  716 at Tue Aug 30 21:01:54 2022, MaxMem=  209715200 cpu:       0.2
 (Enter /opt/gaussian/l103.exe)

 GradGradGradGradGradGradGradGradGradGradGradGradGradGradGradGradGradGrad
 Berny optimization.
 Internal  Forces:  Max     0.022099171 RMS     0.005731227
 Search for a local minimum.
 Step number   1 out of a maximum of  288
 All quantities printed in internal units (Hartrees-Bohrs-Radians)
 RMS Force = .57312D-02 SwitMx=.10000D-02 MixMth= 1
 Mixed Optimization -- RFO/linear search
 Second derivative matrix not updated -- first step.
 ITU=  0
     Eigenvalues ---    0.00473   0.00655   0.00663   0.00926   0.01123
     Eigenvalues ---    0.01233   0.01236   0.01272   0.01353   0.01621
     Eigenvalues ---    0.01631   0.01771   0.01776   0.01824   0.01952
     Eigenvalues ---    0.02058   0.02093   0.02113   0.02149   0.02162
     Eigenvalues ---    0.02172   0.02173   0.02176   0.02197   0.02208
     Eigenvalues ---    0.02214   0.02217   0.02224   0.02238   0.02242
     Eigenvalues ---    0.02244   0.02252   0.02253   0.02254   0.02256
     Eigenvalues ---    0.02259   0.02261   0.02262   0.02266   0.02272
     Eigenvalues ---    0.02279   0.02307   0.02341   0.02372   0.04886
     Eigenvalues ---    0.04910   0.06453   0.06568   0.10087   0.10233
     Eigenvalues ---    0.13334   0.13426   0.15995   0.15996   0.15997
     Eigenvalues ---    0.15998   0.15999   0.15999   0.16000   0.16000
     Eigenvalues ---    0.16000   0.16000   0.16000   0.16000   0.16000
[...]
 ,-0.00010132,0.00017815,-0.00004581,0.00007867,-0.00000281,0.00005131,
 0.00000791,-0.00002159,0.00050226,-0.00188694,0.00662272,0.00112429,-0
 .00100810,0.00267378,0.00878854,-0.09886201,-0.07526775,-0.00060082,-0
 .00896940,0.00019784,0.00305228,-0.00192106,0.00579901,-0.00006818,0.0
 0046220,-0.00059636,-0.00000050,-0.00000192,-0.00000075,0.,0.00000078,
 -0.00000294,0.00000200,0.00000313,-0.00000200,-0.00000114,0.00000261,-
 0.00000173,0.00000018,0.00000222,0.00000008,0.00000040,0.00000067,-0.0
 0000064,0.00000188,0.00000062,0.00000207,-0.00000644,0.00000110,-0.000
 00102,0.00000289,-0.00000026,0.00000071,-0.00000040,0.00000004,0.00000
 223,0.00000249,-0.00000384,0.00000153,-0.00000313,-0.00000188,0.000004
 79,0.00004866,0.00003905,0.00001619,0.00001967,0.00000873,-0.00001944,
 0.00000031,-0.00000907,0.00000466,-0.00078361,0.00151669,-0.00346450,-
 0.01138371,0.10916260,0.06812290,-0.00004836,-0.00003694,0.00001339,0.
 00003227,0.00007479,-0.00004906,0.00000302,0.00001173,0.00000230,0.000
 00343,-0.00001212,-0.00000571,-0.00000038,0.00000063,0.00001776,0.0000
 0828,-0.00000603,-0.00000049,-0.00000056,0.00000165,-0.00000315,-0.000
 00742,0.00000329,-0.00000570,0.00000355,-0.00000579,0.00000097,-0.0000
 0510,-0.00000501,-0.00000328,-0.00000228,-0.00000430,0.00000178,-0.000
 00237,-0.00000005,0.00000602,-0.00003630,-0.00004793,0.00001378,0.0000
 2107,-0.00002357,0.00001519,-0.00000680,-0.00000145,0.00000064,0.00000
 408,-0.00000349,-0.00000837,-0.00000687,0.00000330,0.00000766,0.000001
 75,0.00000223,-0.00000793,-0.00000718,0.00000195,-0.00000072,0.0000257
 2,0.00003574,0.00001670,0.00001637,-0.00002969,-0.00002731,-0.00000801
 ,0.00000341,0.00004005,0.00009739,0.00004564,-0.00018013,-0.00006211,-
 0.00005235,0.00002638,0.00001055,0.00000437,-0.00003506,0.00005545,0.0
 0094206,0.00019166,-0.00299170,0.00304495,0.00301368,-0.01696564,-0.01
 804548,-0.00312084,-0.24817638,-0.13097083,-0.01069074,0.00430597,0.00
 336887,0.00111204,0.00184612,0.00032839,0.00109355,-0.00000012,-0.0000
 0440,-0.00000264,0.00000039,0.00000255,-0.00000711,-0.00000060,0.00000
 418,-0.00000445,0.00000032,0.00000257,-0.00000092,0.00000084,0.0000028
 9,-0.00000147,0.00000038,0.00000208,-0.00000096,0.00000324,0.00000130,
 0.00000584,-0.00000810,0.00000092,-0.00000054,0.00000380,0.00000022,0.
 00000063,0.00000245,-0.00000013,0.00000186,0.00000350,-0.00000282,0.00
 000639,-0.00000726,-0.00000013,0.00000451,0.00002557,0.00000802,-0.000
 05945,0.00001046,-0.00000860,0.00000201,-0.00000787,-0.00000353,-0.000
 00573,-0.00097235,-0.00085313,-0.00009817,0.00096124,0.00042232,-0.000
 71684,0.26112846,-0.00003328,-0.00002528,0.00000853,0.00002399,0.00005
 095,-0.00003121,0.00000491,0.00000701,-0.00000224,0.00000290,-0.000006
 05,-0.00000025,0.00000025,-0.00000139,0.00000901,0.00000475,-0.0000054
 3,0.00000322,0.00000477,0.00000162,0.00000012,-0.00000088,0.00000341,-
 0.00000385,0.00000521,-0.00000648,0.00000033,-0.00000574,-0.00000890,-
 0.00001239,-0.00001343,-0.00000627,0.00000395,-0.00000200,-0.00000169,
 0.00001089,-0.00003427,-0.00001773,0.00000999,0.00001318,-0.00001732,0
 .00000946,-0.00000424,-0.00000275,0.00000016,0.00000334,-0.00000140,-0
 .00000523,-0.00000499,0.00000299,0.00000496,0.00000123,0.00000280,-0.0
 0000309,-0.00000401,0.00000056,0.00000083,0.00004703,-0.00001507,-0.00
 004111,0.00001366,0.00003598,0.00006418,-0.00009506,-0.00005615,-0.000
 05302,0.00005176,0.00000006,0.00035729,0.00005219,0.00003119,-0.000048
 44,-0.00005263,0.00001413,0.00005513,0.00095201,-0.00067703,-0.0001183
 6,0.00204702,0.00092732,-0.00271308,0.01097137,0.00946949,0.00032732,-
 0.13097362,-0.14371359,-0.01635491,-0.02564462,-0.01066777,-0.00052325
 ,0.00130959,-0.00367748,-0.00431925,-0.00000100,-0.00000283,-0.0000012
 6,0.00000045,0.00000241,-0.00000451,-0.00000145,0.00000288,-0.00000332
 ,-0.00000070,0.00000204,0.00000177,0.00000065,0.00000207,-0.00000333,-
 0.00000133,0.00000485,-0.00000068,0.00000195,0.00000015,0.00000429,-0.
 00000578,0.00000114,-0.00000062,0.00000245,0.00000001,0.,0.00000059,0.
 00000035,0.00000052,0.00000136,-0.00000203,0.00000212,-0.00000716,-0.0
 0000768,0.00000582,-0.00001745,0.00001465,0.00002161,0.00000584,0.0000
 2594,0.00006440,0.00000207,-0.00000364,-0.00000072,0.00059515,0.000327
 52,-0.00005245,-0.00014321,0.00028288,0.00162709,0.14162481,0.14780367
 ,-0.00000793,0.00000186,-0.00000285,0.00000591,-0.00000770,0.00000441,
 0.00000361,-0.00000202,-0.00000022,-0.00000487,0.00000456,-0.00000216,
 -0.00001157,0.00000061,-0.00000486,0.00000270,-0.00000022,-0.00000043,
 -0.00000143,0.00000103,0.00000128,0.00001091,0.00000035,0.00000246,0.0
 0000177,-0.00000328,-0.00000115,0.00000028,-0.00000115,0.00000405,-0.0
 0000611,-0.00000626,-0.00000352,0.00000420,0.00000054,0.00000706,0.000
 00562,-0.00001478,0.00001014,0.00001027,-0.00000236,0.00000492,0.00000
 193,-0.00000094,-0.00000127,0.00000008,0.00000185,-0.00000196,0.000000
 97,0.00000084,-0.00000007,-0.00000191,0.00000080,-0.00000013,-0.000002
 21,-0.00000147,0.00000144,-0.00007607,0.00009331,0.00019735,-0.0001389
 8,-0.00016289,-0.00012244,0.00021826,0.00014165,-0.00000642,-0.0002208
 7,0.00042925,-0.00075746,-0.00020831,-0.00016001,-0.00003973,0.0002077
 8,0.00008058,-0.00010196,0.00010116,0.00001136,-0.00082671,0.00262909,
 -0.00306307,0.00550663,0.00792733,0.00580825,0.00386958,-0.01069328,-0
 .01626741,-0.04082423,-0.01005158,-0.00591914,0.00276855,0.00162500,-0
 .00420301,0.00526551,-0.00000114,0.00000010,0.00000025,-0.00000034,-0.
 00000168,-0.00000068,0.00000237,0.00000137,0.00000012,-0.00000138,0.00
 000334,-0.00000423,-0.00000117,0.00000329,0.00000117,-0.00000004,0.000
 00005,-0.00000051,0.00000037,0.00000146,-0.00000230,0.00000017,-0.0000
 0030,0.00000013,0.00000111,-0.00000020,0.00000052,-0.00000024,0.000000
 10,0.00000091,0.00000073,-0.00000092,0.00000009,-0.00000169,0.00000943
 ,-0.00000714,0.00002661,-0.00003046,0.00000558,0.00001884,-0.00003479,
 0.00000963,-0.00000873,0.00000536,-0.00000750,0.00039445,0.00022322,0.
 00021108,-0.00094519,0.00146017,-0.00324488,0.01022667,0.02022803,0.03
 116433,-0.00006579,-0.00007211,0.00003253,0.00003180,0.00015536,-0.000
 11244,-0.00001712,0.00003180,0.00002573,0.00002940,-0.00004111,-0.0000
 2176,0.00002844,0.00001182,0.00006235,0.00003021,-0.00001302,-0.000011
 42,-0.00000878,-0.00000182,-0.00001613,-0.00003989,0.00000304,-0.00002
 004,0.00000671,-0.00000640,0.00000202,-0.00000788,0.00000722,0.0000061
 2,-0.00000389,0.00001932,0.00000156,-0.00001663,0.00000757,-0.00001177
 ,-0.00006334,-0.00008552,0.00002231,0.00002172,-0.00004323,0.00002955,
 -0.00000880,-0.00000316,-0.00000120,0.00000554,-0.00000236,-0.00001179
 ,-0.00000853,0.00000526,0.00001026,0.00000170,0.00000304,-0.00000890,-
 0.00000944,0.00000096,0.00000017,0.00005504,0.00004306,0.00002002,-0.0
 0002933,-0.00002949,0.00009813,-0.00029907,-0.00025845,-0.00018127,-0.
 00044210,0.00099126,0.00060185,-0.00007764,-0.00006116,0.00007665,0.00
 001487,-0.00002941,-0.00000979,-0.00190991,-0.00436514,0.00001527,0.00
 029322,-0.00069579,-0.00043606,0.00194866,-0.00024242,0.00074497,0.001
 73800,-0.00217449,-0.00055826,-0.27237051,0.09159070,0.07544720,-0.017
 78537,0.01252623,0.00817308,0.00000613,-0.00000936,-0.00000872,0.00000
 125,0.00000278,-0.00001478,0.00000239,0.00000495,-0.00001022,-0.000003
 23,-0.00000284,0.00001073,0.00001577,-0.00001948,0.00000699,-0.0000026
 5,-0.00001077,-0.00000489,0.00000661,0.00000147,0.00001100,-0.00001649
 ,0.00000292,-0.00000289,0.00000436,0.00000077,0.00000069,0.00000206,0.
 00000019,0.00000223,0.00000418,-0.00000444,0.00000735,-0.00003956,-0.0
 0002427,0.00000735,0.00000294,0.00002836,-0.00001341,-0.00000690,0.000
 02326,-0.00000902,-0.00002080,-0.00001176,-0.00001043,-0.00009327,0.00
 013727,-0.00012604,-0.00001573,-0.00014868,-0.00001000,0.00065483,0.00
 053574,-0.00058688,0.28757473,0.00000765,-0.00000768,0.00000757,-0.000
 01577,0.00002187,-0.00001922,-0.00001334,0.00000636,0.00001373,0.00001
 549,-0.00001127,-0.00000421,0.00002415,0.00000418,0.00001677,0.0000044
 3,-0.00000190,-0.00000498,-0.00000494,-0.00000216,-0.00000710,-0.00001
 926,-0.00000103,-0.00000619,0.00000105,0.00000163,-0.00000055,0.000001
 56,0.00001156,0.00000955,-0.00000215,0.00001858,-0.00000096,-0.0000076
 1,0.00000393,-0.00001647,0.00000734,-0.00001570,0.00000823,-0.00000455
 ,-0.00000066,-0.00000257,0.00000110,0.00000058,0.00000033,0.00000018,0
 .00000112,0.00000075,0.00000006,-0.00000045,-0.00000044,0.00000045,-0.
 00000107,0.00000144,0.00000128,-0.00000034,-0.00000009,-0.00000408,0.0
 0000414,-0.00000640,0.00000227,0.00000385,0.00008668,-0.00012721,-0.00
 017658,-0.00004152,-0.00058935,0.00058263,0.00027899,0.00004354,-0.000
 01879,0.00006500,0.00000968,-0.00001234,-0.00001990,-0.00374716,-0.000
 57917,-0.00242770,-0.00070366,-0.00096527,0.00004132,-0.00109521,-0.00
 417142,-0.00400950,0.02690672,-0.00549838,-0.00805751,0.09166485,-0.09
 570628,-0.03767529,-0.01641399,0.00974712,0.00523277,0.00000381,-0.000
 00139,-0.00000312,0.00000023,-0.00000009,-0.00000224,0.00000178,-0.000
 00130,-0.00000181,-0.00000153,-0.00000429,0.00000709,0.00001040,-0.000
 01797,0.00000755,-0.00000264,-0.00000911,-0.00000301,0.00000061,-0.000
 00068,0.00000112,-0.00000110,0.00000061,-0.00000082,-0.00000117,0.0000
 0026,-0.00000019,-0.00000114,-0.00000007,-0.00000067,-0.00000036,-0.00
 000067,-0.00000087,-0.00001993,-0.00000864,-0.00000230,-0.00000091,0.0
 0001620,0.00001617,0.00001766,0.00001543,-0.00003582,-0.00000563,0.000
 00014,-0.00000342,0.00012798,-0.00003744,0.00038344,0.00131806,-0.0004
 2030,-0.00049460,-0.00003673,0.00056922,0.00168731,-0.09795156,0.09623
 906,0.00001201,0.00002196,-0.00001331,0.00000141,-0.00004769,0.0000378
 3,0.00000708,-0.00000884,-0.00000934,-0.00001158,0.00000733,-0.0000053
 2,-0.00002870,0.00000080,-0.00001367,0.00000220,0.00000638,0.00000006,
 -0.00000854,-0.00000032,0.00000134,0.00001855,-0.00000156,0.00000633,0
 .00000326,-0.00000424,-0.00000485,0.00000031,0.00000232,0.00002017,0.0
 0001106,-0.00001119,-0.00001082,0.00000530,0.00000500,0.00001063,0.000
 00210,0.00003364,-0.00002362,-0.00000192,0.00000505,-0.00000027,0.0000
 0161,0.00000025,-0.00000112,-0.00000133,0.00000224,0.00000119,0.000003
 34,-0.00000049,-0.00000259,-0.00000230,-0.00000036,0.00000233,0.000000
 77,-0.00000157,0.00000076,-0.00000258,-0.00000023,0.00000612,-0.000024
 36,-0.00004621,-0.00000916,-0.00009135,0.00003504,-0.00002622,-0.00010
 219,-0.00013232,0.00022605,-0.00001459,0.00004574,-0.00007094,-0.00001
 035,-0.00001860,0.00001072,0.00046603,-0.00213700,0.00652812,-0.000344
 49,0.00015074,-0.00064654,0.00020091,-0.00426314,0.00542850,0.01059344
 ,-0.00340576,0.00027893,0.07552682,-0.03722436,-0.06442572,-0.00269521
 ,0.00031945,0.00386347,-0.00000205,0.00000287,0.00000302,-0.00000031,-
 0.00000126,0.00000372,0.00000263,0.00000003,0.00000273,0.00000243,0.00
 000577,-0.00001632,-0.00000712,0.00001363,0.00000582,0.00000170,-0.000
 00430,0.00000017,-0.00000143,0.00000074,-0.00000347,0.00000282,-0.0000
 0073,0.00000086,-0.00000030,-0.00000040,0.00000034,-0.00000059,0.00000
 002,0.,-0.00000035,0.00000093,-0.00000148,0.00000402,-0.00000650,0.000
 00395,-0.00001439,-0.00000897,-0.00002177,-0.00005502,-0.00002736,0.00
 000396,0.00000020,-0.00000245,0.00000538,-0.00013817,0.00036306,-0.000
 95492,0.00054902,-0.00022036,0.00002494,-0.00087002,0.00158512,-0.0032
 2222,-0.08234574,0.04340938,0.05647323,0.00009366,0.00008274,-0.000028
 97,-0.00004786,-0.00017219,0.00010366,0.00000290,-0.00002401,-0.000016
 49,-0.00004501,0.00002450,0.00000039,-0.00003793,0.00000603,-0.0000399
 7,-0.00002181,0.00001812,-0.00000595,0.00000792,-0.00000047,0.00000828
 ,0.00003393,0.00001048,0.00002722,-0.00003118,-0.00001397,0.00002622,0
 .00001140,0.00000980,-0.00002781,0.00001498,-0.00005224,-0.00000799,0.
 00004651,-0.00001385,0.00002072,0.00009204,0.00010988,-0.00008866,-0.0
 0005301,0.00004838,-0.00002576,0.00000743,0.00000913,-0.00000092,-0.00
 001126,-0.00000104,0.00001699,0.00001428,-0.00000916,-0.00001426,-0.00
 000228,-0.00000717,0.00000678,0.00001288,0.00000013,-0.00000513,-0.000
 02871,-0.00015405,-0.00019454,0.00021360,0.00014828,-0.00000412,-0.000
 11776,-0.00006211,0.00020920,0.00108251,0.00094396,-0.00047245,-0.0007
 1182,0.00000684,0.00024465,-0.00013983,-0.00040670,-0.00008239,0.00269
 959,0.02509157,0.00908683,-0.00475863,0.00099516,0.00231775,-0.0011137
 2,-0.00011476,-0.00000222,-0.00386611,-0.00285081,0.00086744,0.0055506
 2,-0.02501389,-0.00934914,-0.05774069,0.01670350,0.01008109,-0.0000008
 5,0.00001048,0.00000920,-0.00000011,-0.00000560,0.00001934,-0.00000394
 ,-0.00000717,0.00001217,0.00000412,0.00000315,-0.00001690,-0.00003430,
 0.00004648,-0.00001492,0.00000889,0.00001116,0.00001067,-0.00000771,-0
 .00000118,-0.00001067,0.00001533,-0.00000286,0.00000147,-0.00000668,0.
 00000035,-0.00000047,0.00000113,-0.00000105,-0.00000098,-0.00000438,0.
 00000888,-0.00000430,0.00001472,0.00000468,-0.00000880,0.00003912,0.00
 002021,-0.00011167,-0.00091858,-0.00003675,-0.00079018,-0.00003186,0.0
 0002424,-0.00000401,0.00003032,0.00143817,0.00058699,0.00009423,0.0000
 6791,-0.00017660,0.00009328,-0.00123335,-0.00045628,0.00088201,0.00059
 866,-0.00064404,0.05866865,-0.00001786,-0.00002203,0.00000655,0.000002
 84,0.00004809,-0.00002050,-0.00000481,0.00000465,0.00000527,0.00001814
 ,-0.00000590,0.00000101,0.00002356,-0.00000383,0.00000873,-0.00000217,
 -0.00000949,0.00000674,-0.00004389,-0.00000151,-0.00000120,0.00000992,
 0.00002510,-0.00000900,0.00000817,-0.00011857,0.00003985,-0.00007388,-
 0.00000050,0.00006536,0.00007542,-0.00003446,0.00004610,-0.00002652,-0
 .00002582,-0.00009923,-0.00004439,-0.00003264,0.00005563,0.00001820,-0
 .00000234,-0.00000548,-0.00000131,-0.00000455,0.00000333,0.00000420,0.
 00000180,-0.00000350,-0.00000576,0.00000236,0.00000412,0.00000169,0.00
 000189,0.00000074,-0.00000159,0.00000099,0.00000208,0.00006524,-0.0000
 5176,0.00001739,-0.00010553,-0.00001078,0.00004225,0.00012730,0.000201
 13,-0.00014768,-0.00084793,-0.00035397,0.00123683,-0.00013329,0.000243
 17,-0.00077381,-0.00020290,0.00017031,0.00034590,-0.00223284,-0.007742
 40,-0.00365630,0.00202317,0.00184586,-0.00197990,-0.00009459,0.0004877
 6,0.00053654,-0.00376617,0.00090479,-0.00162344,0.00431054,-0.01195936
 ,-0.00636896,0.01725903,-0.30236512,-0.09489316,0.00000124,-0.00000243
 ,-0.00000303,0.00000015,0.00000285,-0.00000516,0.00000334,0.00000335,-
 0.00000410,-0.00000123,0.00000311,-0.00001566,-0.00000078,-0.00001313,
 0.00000423,0.00000172,-0.00001850,0.00000112,0.00000099,-0.00000201,0.
 00000306,-0.00000022,0.00000062,0.00000095,0.00000105,-0.00000028,-0.0
 0000034,-0.00000197,0.00000045,-0.00000099,0.00000047,-0.00000366,-0.0
 0000157,0.00002205,-0.00001471,0.00001647,-0.00004404,-0.00001561,0.00
 007527,-0.00036864,0.00020546,0.00049453,0.00000902,0.00005427,-0.0000
 3654,-0.00014991,-0.00038551,-0.00030563,0.00005994,-0.00021033,0.0003
 1696,0.00020963,-0.00066331,-0.00031602,0.00017383,0.00042397,0.001558
 73,-0.01625846,0.31944259,-0.00003137,0.00002337,-0.00002116,0.0000387
 9,-0.00007006,0.00005585,0.00003802,-0.00001989,-0.00003328,-0.0000374
 8,0.00001500,-0.00001815,-0.00012186,0.00001064,-0.00003034,0.00003314
 ,0.00001499,0.00000560,-0.00001896,0.00003874,0.00000668,0.00007098,-0
 .00000417,0.00001673,0.00009727,0.00001056,-0.00002023,0.00000245,-0.0
 0011726,-0.00007963,-0.00015365,-0.00007402,0.00002604,0.00010596,0.00
 004328,0.00014504,0.00002741,0.00002733,-0.00000985,0.00003053,-0.0000
 1845,0.00001072,0.00000344,-0.00000361,-0.00000436,0.00000263,0.000002
 87,-0.00000508,0.00000005,0.00000363,0.00000062,-0.00000386,0.00000548
 ,0.00000191,-0.00000475,-0.00000399,0.00000475,-0.00020279,0.00016998,
 0.00043137,-0.00017978,-0.00047480,-0.00026823,0.00094725,0.00033312,-
 0.00026397,-0.00210494,0.00015177,-0.00313948,-0.00110766,0.00015628,0
 .00030087,0.00048655,0.00026375,-0.00032232,0.00090487,-0.00833880,0.0
 0026531,0.00267546,-0.00201501,0.00502833,0.00026103,0.00057726,-0.000
 56792,0.00027565,-0.00170525,0.00671718,0.00089527,-0.00181352,0.00265
 592,0.00970507,-0.09371032,-0.07136489,-0.00001064,0.00000289,0.000005
 91,0.00000130,-0.00000332,0.00000059,0.00000298,0.00001112,-0.00000493
 ,-0.00000584,0.00004309,-0.00004581,-0.00001280,0.00005433,-0.00000921
 ,0.00000204,-0.00001760,-0.00000707,-0.00000140,0.00000512,-0.00000583
 ,-0.00000248,0.00000021,-0.00000001,0.00000387,-0.00000149,0.00000077,
 -0.00000125,0.00000066,0.00000061,0.00000077,-0.00000181,-0.00000088,0
 .00002252,0.00001595,-0.00000542,-0.00001916,0.00003919,-0.00001269,-0
 .00061310,-0.00023777,-0.00006791,-0.00002968,0.00000210,-0.00000248,0
 .00006527,-0.00054880,0.00012729,-0.00019971,0.00031705,-0.00095878,0.
 00008533,-0.00010958,0.00014984,-0.00087224,0.00157432,-0.00346701,-0.
 01105047,0.10537542,0.06477900\\0.00000911,-0.00000093,0.00000287,-0.0
 0000514,-0.00000658,0.00000084,0.00000743,-0.00000445,-0.00000215,0.00
 000377,0.00001389,0.00002174,0.00001565,-0.00001413,-0.00001618,-0.000
 00815,0.00000959,0.00000884,0.00000458,-0.00000262,-0.00000432,-0.0000
 0986,0.00000169,-0.00000514,-0.00000337,0.00000120,-0.00000083,0.00000
 632,-0.00000139,-0.00000161,0.00000507,0.00000101,0.00000343,-0.000002
 81,-0.00000161,-0.00000811,-0.00000345,0.00001452,0.00000784,0.0000066
 3,-0.00000565,-0.00001416,0.00000252,0.00000413,-0.00000487,-0.0000046
 2,-0.00001276,0.00001858,0.00000191,-0.00000246,-0.00000543,-0.0000093
 8,0.00001586,0.00000733,0.00001011,-0.00000732,-0.00000754,0.00000311,
 -0.00000064,-0.00000570,0.00000042,-0.00000097,0.00000388,0.00000037,0
 .00000092,0.00000668,-0.00001221,-0.00000661,0.00000046,0.00000119,-0.
 00000140,-0.00000560,0.00000106,0.00000019,-0.00000337,0.00001014,0.00
 000944,0.00000209,-0.00000559,0.00000260,0.00000260,-0.00000113,0.0000
 0470,0.00000418,-0.00000049,0.00000249,0.00000207,0.00000164,-0.000003
 28,-0.00000156,0.00000338,-0.00000500,-0.00000049,0.00000140,0.0000059
 0,-0.00000572,-0.00000565,-0.00000772,-0.00000607,0.00000653,-0.000005
 42,-0.00000830,-0.00000565,-0.00000291,-0.00000863,-0.00000949,0.00000
 102,-0.00000351,-0.00000409,0.00000501,0.00000607,-0.00000481,0.000000
 52,0.00000809,0.00000661,0.00001012,-0.00000044,0.00000145,0.00001046,
 -0.00000351,0.00000213,-0.00001314,0.00000261,-0.00000627,-0.00000768,
 0.00000641,0.00000450,-0.00000213,-0.00000768,0.00000047,-0.00000646,-
 0.00000760,-0.00000529,0.00000350,0.00000855,0.00000098,0.00000641,0.0
 0000793,0.00000697,-0.00000614,-0.00000133,0.00000158,-0.00000899,-0.0
 0000179,-0.00000802,-0.00000449,0.00000135,-0.00000808,0.00000680,0.00
 000417,-0.00000347,0.00001093,0.00000305\\\@


 NOBODY LOSES ALL THE TIME
 I HAD AN UNCLE NAMED
 SOL WHO WAS A BORN FAILURE AND
 NEARLY EVERYBODY SAID HE SHOULD HAVE GONE
 INTO VAUDEVILLE PERHAPS BECAUSE MY UNCLE SOL COULD
 SING MCCANN HE WAS A DIVER ON XMAS EVE LIKE HELL ITSELF WHICH
 MAY OR MAY NOT ACCOUNT FOR THE FACT THAT MY UNCLE
 SOL INDULGED IN THAT POSSIBLY MOST INEXCUSABLE
 OF ALL TO USE A HIGHFALOOTIN PHRASE
 LUXURIES THAT IS OR TO
 WIT FARMING AND BE
 IT NEEDLESSLY
 ADDED
 MY UNCLE SOL'S FARM
 FAILED BECAUSE THE CHICKENS
 ATE THE VEGETABLES SO
 MY UNCLE SOL HAD A
 CHICKEN FARM TILL THE
 SKUNKS ATE THE CHICKENS WHEN 
 MY UNCLE SOL
 HAD A SKUNK FARM BUT
 THE SKUNKS CAUGHT COLD AND
 DIED AND SO
 MY UNCLE SOL IMITATED THE
 SKUNKS IN A SUBTLE MANNER
 OR BY DROWNING HIMSELF IN THE WATERTANK
 BUT SOMEBODY WHO'D GIVEN MY UNCLE SOL A VICTOR
 VICTROLA AND RECORDS WHILE HE LIVED PRESENTED TO
 HIM UPON THE AUSPICIOUS OCCASION OF HIS DECEASE A
 SCRUMPTIOUS NOT TO MENTION SPLENDIFEROUS FUNERAL WITH
 TALL BOYS IN BLACK GLOVES AND FLOWERS AND EVERYTHING AND
 I REMEMBER WE ALL CRIED LIKE THE MISSOURI
 WHEN MY UNCLE SOL'S COFFIN LURCHED BECAUSE
 SOMEBODY PRESSED A BUTTON
 (AND DOWN WENT
 MY UNCLE
 SOL
 AND STARTED A WORM FARM)
           E. E. CUMMINGS
 Job cpu time:  1 days  0 hours 43 minutes 49.0 seconds.
 File lengths (MBytes):  RWF=   1653 Int=      0 D2E=      0 Chk=     24 Scr=      1
 Normal termination of Gaussian 09 at Wed Aug 31 03:38:07 2022.
