 Entering Gaussian System, Link 0=g09
 Input=Mol01.gjf
 Output=Mol01.log
 Initial command:
 /opt/gaussian/l1.exe /home/scr/lqcapf-6/Gau-22905.inp -scrdir=/home/scr/lqcapf-6/
 Entering Link 1 = /opt/gaussian/l1.exe PID=     22907.
  
 Copyright (c) 1988,1990,1992,1993,1995,1998,2003,2009,2011,
            Gaussian, Inc.  All Rights Reserved.
  
 This is part of the Gaussian(R) 09 program.  It is based on
 the Gaussian(R) 03 system (copyright 2003, Gaussian, Inc.),
 the Gaussian(R) 98 system (copyright 1998, Gaussian, Inc.),
 the Gaussian(R) 94 system (copyright 1995, Gaussian, Inc.),
 the Gaussian 92(TM) system (copyright 1992, Gaussian, Inc.),
 the Gaussian 90(TM) system (copyright 1990, Gaussian, Inc.),
 the Gaussian 88(TM) system (copyright 1988, Gaussian, Inc.),
 the Gaussian 86(TM) system (copyright 1986, Carnegie Mellon
 University), and the Gaussian 82(TM) system (copyright 1983,
 Carnegie Mellon University). Gaussian is a federally registered
 trademark of Gaussian, Inc.
  
 This software contains proprietary and confidential information,
 including trade secrets, belonging to Gaussian, Inc.
  
 This software is provided under written license and may be
 used, copied, transmitted, or stored only in accord with that
 written license.
  
 The following legend is applicable only to US Government
 contracts under FAR:
  
                    RESTRICTED RIGHTS LEGEND
  
 Use, reproduction and disclosure by the US Government is
 subject to restrictions as set forth in subparagraphs (a)
 and (c) of the Commercial Computer Software - Restricted
 Rights clause in FAR 52.227-19.
  
 Gaussian, Inc.
 340 Quinnipiac St., Bldg. 40, Wallingford CT 06492
  
  
 ---------------------------------------------------------------
 Warning -- This program may not be used in any manner that
 competes with the business of Gaussian, Inc. or will provide
 assistance to any competitor of Gaussian, Inc.  The licensee
 of this program is prohibited from giving any competitor of
 Gaussian, Inc. access to this program.  By using this program,
 the user acknowledges that Gaussian, Inc. is engaged in the
 business of creating and licensing software in the field of
 computational chemistry and represents and warrants to the
 licensee that it is not a competitor of Gaussian, Inc. and that
 it will not use this program in any manner prohibited above.
 ---------------------------------------------------------------
  

 Cite this work as:
 Gaussian 09, Revision C.01,
 M. J. Frisch, G. W. Trucks, H. B. Schlegel, G. E. Scuseria, 
 M. A. Robb, J. R. Cheeseman, G. Scalmani, V. Barone, B. Mennucci, 
 G. A. Petersson, H. Nakatsuji, M. Caricato, X. Li, H. P. Hratchian, 
 A. F. Izmaylov, J. Bloino, G. Zheng, J. L. Sonnenberg, M. Hada, 
 M. Ehara, K. Toyota, R. Fukuda, J. Hasegawa, M. Ishida, T. Nakajima, 
 Y. Honda, O. Kitao, H. Nakai, T. Vreven, J. A. Montgomery, Jr., 
 J. E. Peralta, F. Ogliaro, M. Bearpark, J. J. Heyd, E. Brothers, 
 K. N. Kudin, V. N. Staroverov, T. Keith, R. Kobayashi, J. Normand, 
 K. Raghavachari, A. Rendell, J. C. Burant, S. S. Iyengar, J. Tomasi, 
 M. Cossi, N. Rega, J. M. Millam, M. Klene, J. E. Knox, J. B. Cross, 
 V. Bakken, C. Adamo, J. Jaramillo, R. Gomperts, R. E. Stratmann, 
 O. Yazyev, A. J. Austin, R. Cammi, C. Pomelli, J. W. Ochterski, 
 R. L. Martin, K. Morokuma, V. G. Zakrzewski, G. A. Voth, 
 P. Salvador, J. J. Dannenberg, S. Dapprich, A. D. Daniels, 
 O. Farkas, J. B. Foresman, J. V. Ortiz, J. Cioslowski, 
 and D. J. Fox, Gaussian, Inc., Wallingford CT, 2010.
 
 ******************************************
 Gaussian 09:  EM64L-G09RevC.01 23-Sep-2011
                30-Aug-2022 
 ******************************************
 %nprocshared=8
 Will use up to    8 processors via shared memory.
 %mem=1600MB
 -------------------------
 #p opt freq b3lyp/cc-pvdz
 -------------------------
 1/14=-1,18=20,19=15,26=3,38=1/1,3;
 2/9=110,12=2,17=6,18=5,40=1/2;
 3/5=16,11=2,16=1,25=1,30=1,71=1,74=-5/1,2,3;
 4//1;
 5/5=2,38=5/2;
 6/7=2,8=2,9=2,10=2,28=1/1;
 7//1,2,3,16;
 1/14=-1,18=20,19=15/3(2);
 2/9=110/2;
 99//99;
 2/9=110/2;
 3/5=16,11=2,16=1,25=1,30=1,71=1,74=-5/1,2,3;
 4/5=5,16=3/1;
 5/5=2,38=5/2;
 7//1,2,3,16;
 1/14=-1,18=20,19=15/3(-5);
 2/9=110/2;
 6/7=2,8=2,9=2,10=2,19=2,28=1/1;
 99/9=1/99;
 Leave Link    1 at Tue Aug 30 14:53:07 2022, MaxMem=  209715200 cpu:       0.2
 (Enter /opt/gaussian/l101.exe)
 ---------
 Mol01.log
 ---------
 Charge =  0 Multiplicity = 1
 Symbolic Z-Matrix:
 O                     1.13939  -1.47844  -0.08955 
 C                     1.30206  -0.43351  -0.70012 
 C                     2.66132  -0.08527  -1.29486 
 N                     3.63741  -1.10107  -1.04812 
 N                     3.95493  -1.98487  -2.03612 
 N                     4.80009  -2.82282  -1.59956 
 C                     5.07706  -2.53078  -0.27336 
 C                     5.9353   -3.15154   0.63306 
 C                     6.00484  -2.6214    1.89811 
 C                     5.23272  -1.4945    2.2585 
 C                     4.38213  -0.87867   1.37166 
 C                     4.31987  -1.42318   0.08642 
 N                     0.29587   0.47857  -0.88376 
 C                     0.50811   1.78001  -1.51987 
 C                     1.06356   2.85157  -0.6108 
 C                     1.46252   4.14392  -1.13457 
 C                     1.91753   4.99338  -0.20215 
 S                     1.8929    4.26111   1.42776 
 C                     1.23057   2.75689   0.71878 
 C                    -1.03871   0.15239  -0.4562 
 C                    -2.05116   0.03646  -1.39487 
 C                    -3.35682  -0.2433   -1.02116 
 C                    -3.65723  -0.43251   0.32441 
 C                    -2.63474  -0.33616   1.26697 
 C                    -1.34051  -0.04461   0.8829 
 N                    -4.94719  -0.73445   0.80511 
 C                    -6.11959  -0.81318   0.11476 
 O                    -6.20812  -0.61318  -1.09654 
 C                    -7.30709  -1.16044   0.92996 
 C                    -8.38981  -2.00176   0.27981 
 C                    -8.64095  -0.55656   0.53148 
 H                     2.57788   0.00467  -2.36802 
 H                     3.01074   0.86049  -0.90323 
 H                     6.51015  -4.00663   0.33981 
 H                     6.64997  -3.06456   2.63072 
 H                     5.31285  -1.11305   3.25803 
 H                     3.79327  -0.03109   1.65948 
 H                     1.15337   1.67491  -2.38303 
 H                    -0.44726   2.11     -1.90164 
 H                     1.39915   4.3976   -2.17411 
 H                     2.26956   5.99159  -0.33243 
 H                     1.00204   1.93277   1.35391 
 H                    -1.82462   0.15384  -2.43722 
 H                    -4.12488  -0.32145  -1.75662 
 H                    -2.85074  -0.49122   2.3076 
 H                    -0.56622   0.00118   1.62051 
 H                    -4.99764  -0.91419   1.77953 
 H                    -7.1336   -1.31342   1.97728 
 H                    -8.21144  -2.30765  -0.73112 
 H                    -8.87717  -2.73149   0.89614 
 H                    -9.3049   -0.27241   1.32418 
 H                    -8.63068   0.10452  -0.31129 
 
 NAtoms=     52 NQM=        0 NQMF=       0 NMMI=     52 NMMIF=      0
                NMic=       0 NMicF=      0.
                    Isotopes and Nuclear Properties:
 (Nuclear quadrupole moments (NQMom) in fm**2, nuclear magnetic moments (NMagM)
  in nuclear magnetons)

  Atom         1           2           3           4           5           6           7           8           9          10
 IAtWgt=          16          12          12          14          14          14          12          12          12          12
 AtmWgt=  15.9949146  12.0000000  12.0000000  14.0030740  14.0030740  14.0030740  12.0000000  12.0000000  12.0000000  12.0000000
 NucSpn=           0           0           0           2           2           2           0           0           0           0
 AtZEff=   0.0000000   0.0000000   0.0000000   0.0000000   0.0000000   0.0000000   0.0000000   0.0000000   0.0000000   0.0000000
 NQMom=    0.0000000   0.0000000   0.0000000   2.0440000   2.0440000   2.0440000   0.0000000   0.0000000   0.0000000   0.0000000
 NMagM=    0.0000000   0.0000000   0.0000000   0.4037610   0.4037610   0.4037610   0.0000000   0.0000000   0.0000000   0.0000000

  Atom        11          12          13          14          15          16          17          18          19          20
 IAtWgt=          12          12          14          12          12          12          12          32          12          12
 AtmWgt=  12.0000000  12.0000000  14.0030740  12.0000000  12.0000000  12.0000000  12.0000000  31.9720718  12.0000000  12.0000000
 NucSpn=           0           0           2           0           0           0           0           0           0           0
 AtZEff=   0.0000000   0.0000000   0.0000000   0.0000000   0.0000000   0.0000000   0.0000000   0.0000000   0.0000000   0.0000000
 NQMom=    0.0000000   0.0000000   2.0440000   0.0000000   0.0000000   0.0000000   0.0000000   0.0000000   0.0000000   0.0000000
 NMagM=    0.0000000   0.0000000   0.4037610   0.0000000   0.0000000   0.0000000   0.0000000   0.0000000   0.0000000   0.0000000

  Atom        21          22          23          24          25          26          27          28          29          30
 IAtWgt=          12          12          12          12          12          14          12          16          12          12
 AtmWgt=  12.0000000  12.0000000  12.0000000  12.0000000  12.0000000  14.0030740  12.0000000  15.9949146  12.0000000  12.0000000
 NucSpn=           0           0           0           0           0           2           0           0           0           0
 AtZEff=   0.0000000   0.0000000   0.0000000   0.0000000   0.0000000   0.0000000   0.0000000   0.0000000   0.0000000   0.0000000
 NQMom=    0.0000000   0.0000000   0.0000000   0.0000000   0.0000000   2.0440000   0.0000000   0.0000000   0.0000000   0.0000000
 NMagM=    0.0000000   0.0000000   0.0000000   0.0000000   0.0000000   0.4037610   0.0000000   0.0000000   0.0000000   0.0000000

  Atom        31          32          33          34          35          36          37          38          39          40
 IAtWgt=          12           1           1           1           1           1           1           1           1           1
 AtmWgt=  12.0000000   1.0078250   1.0078250   1.0078250   1.0078250   1.0078250   1.0078250   1.0078250   1.0078250   1.0078250
 NucSpn=           0           1           1           1           1           1           1           1           1           1
 AtZEff=   0.0000000   0.0000000   0.0000000   0.0000000   0.0000000   0.0000000   0.0000000   0.0000000   0.0000000   0.0000000
 NQMom=    0.0000000   0.0000000   0.0000000   0.0000000   0.0000000   0.0000000   0.0000000   0.0000000   0.0000000   0.0000000
 NMagM=    0.0000000   2.7928460   2.7928460   2.7928460   2.7928460   2.7928460   2.7928460   2.7928460   2.7928460   2.7928460

  Atom        41          42          43          44          45          46          47          48          49          50
 IAtWgt=           1           1           1           1           1           1           1           1           1           1
 AtmWgt=   1.0078250   1.0078250   1.0078250   1.0078250   1.0078250   1.0078250   1.0078250   1.0078250   1.0078250   1.0078250
 NucSpn=           1           1           1           1           1           1           1           1           1           1
 AtZEff=   0.0000000   0.0000000   0.0000000   0.0000000   0.0000000   0.0000000   0.0000000   0.0000000   0.0000000   0.0000000
 NQMom=    0.0000000   0.0000000   0.0000000   0.0000000   0.0000000   0.0000000   0.0000000   0.0000000   0.0000000   0.0000000
 NMagM=    2.7928460   2.7928460   2.7928460   2.7928460   2.7928460   2.7928460   2.7928460   2.7928460   2.7928460   2.7928460

  Atom        51          52
 IAtWgt=           1           1
 AtmWgt=   1.0078250   1.0078250
 NucSpn=           1           1
 AtZEff=   0.0000000   0.0000000
 NQMom=    0.0000000   0.0000000
 NMagM=    2.7928460   2.7928460
 Leave Link  101 at Tue Aug 30 14:53:08 2022, MaxMem=  209715200 cpu:       0.9
 (Enter /opt/gaussian/l103.exe)

 GradGradGradGradGradGradGradGradGradGradGradGradGradGradGradGradGradGrad
 Berny optimization.
 Initialization pass.
                           ----------------------------
                           !    Initial Parameters    !
                           ! (Angstroms and Degrees)  !
 --------------------------                            --------------------------
 ! Name  Definition              Value          Derivative Info.                !
 --------------------------------------------------------------------------------
 ! R1    R(1,2)                  1.2211         estimate D2E/DX2                !
 ! R2    R(2,3)                  1.524          estimate D2E/DX2                !
 ! R3    R(2,13)                 1.3704         estimate D2E/DX2                !
 ! R4    R(3,4)                  1.4302         estimate D2E/DX2                !
 ! R5    R(3,32)                 1.0801         estimate D2E/DX2                !
 ! R6    R(3,33)                 1.0816         estimate D2E/DX2                !
 ! R7    R(4,5)                  1.3631         estimate D2E/DX2                !
 ! R8    R(4,12)                 1.3626         estimate D2E/DX2                !
 ! R9    R(5,6)                  1.2677         estimate D2E/DX2                !
 ! R10   R(6,7)                  1.3859         estimate D2E/DX2                !
 ! R11   R(7,8)                  1.3941         estimate D2E/DX2                !
 ! R12   R(7,12)                 1.3891         estimate D2E/DX2                !
 ! R13   R(8,9)                  1.3734         estimate D2E/DX2                !
 ! R14   R(8,34)                 1.0713         estimate D2E/DX2                !
 ! R15   R(9,10)                 1.4128         estimate D2E/DX2                !
 ! R16   R(9,35)                 1.0721         estimate D2E/DX2                !
 ! R17   R(10,11)                1.3745         estimate D2E/DX2                !
 ! R18   R(10,36)                1.0728         estimate D2E/DX2                !
 ! R19   R(11,12)                1.3972         estimate D2E/DX2                !
 ! R20   R(11,37)                1.0714         estimate D2E/DX2                !
 ! R21   R(13,14)                1.464          estimate D2E/DX2                !
 ! R22   R(13,20)                1.4389         estimate D2E/DX2                !
 ! R23   R(14,15)                1.511          estimate D2E/DX2                !
 ! R24   R(14,38)                1.0828         estimate D2E/DX2                !
 ! R25   R(14,39)                1.0805         estimate D2E/DX2                !
 ! R26   R(15,16)                1.4504         estimate D2E/DX2                !
 ! R27   R(15,19)                1.3434         estimate D2E/DX2                !
 ! R28   R(16,17)                1.3409         estimate D2E/DX2                !
 ! R29   R(16,40)                1.0719         estimate D2E/DX2                !
 ! R30   R(17,18)                1.787          estimate D2E/DX2                !
 ! R31   R(17,41)                1.0665         estimate D2E/DX2                !
 ! R32   R(18,19)                1.79           estimate D2E/DX2                !
 ! R33   R(19,42)                1.0653         estimate D2E/DX2                !
 ! R34   R(20,21)                1.3855         estimate D2E/DX2                !
 ! R35   R(20,25)                1.3868         estimate D2E/DX2                !
 ! R36   R(21,22)                1.3866         estimate D2E/DX2                !
 ! R37   R(21,43)                1.0731         estimate D2E/DX2                !
 ! R38   R(22,23)                1.3916         estimate D2E/DX2                !
 ! R39   R(22,44)                1.0663         estimate D2E/DX2                !
 ! R40   R(23,24)                1.394          estimate D2E/DX2                !
 ! R41   R(23,26)                1.4093         estimate D2E/DX2                !
 ! R42   R(24,25)                1.3811         estimate D2E/DX2                !
 ! R43   R(24,45)                1.0741         estimate D2E/DX2                !
 ! R44   R(25,46)                1.0704         estimate D2E/DX2                !
 ! R45   R(26,27)                1.3628         estimate D2E/DX2                !
 ! R46   R(26,47)                0.9921         estimate D2E/DX2                !
 ! R47   R(27,28)                1.2309         estimate D2E/DX2                !
 ! R48   R(27,29)                1.4817         estimate D2E/DX2                !
 ! R49   R(29,30)                1.5175         estimate D2E/DX2                !
 ! R50   R(29,31)                1.5174         estimate D2E/DX2                !
 ! R51   R(29,48)                1.0726         estimate D2E/DX2                !
 ! R52   R(30,31)                1.4883         estimate D2E/DX2                !
 ! R53   R(30,49)                1.0712         estimate D2E/DX2                !
 ! R54   R(30,50)                1.0723         estimate D2E/DX2                !
 ! R55   R(31,51)                1.0724         estimate D2E/DX2                !
 ! R56   R(31,52)                1.0712         estimate D2E/DX2                !
 ! A1    A(1,2,3)              120.6289         estimate D2E/DX2                !
 ! A2    A(1,2,13)             122.5962         estimate D2E/DX2                !
 ! A3    A(3,2,13)             116.7745         estimate D2E/DX2                !
 ! A4    A(2,3,4)              112.2772         estimate D2E/DX2                !
 ! A5    A(2,3,32)             109.7461         estimate D2E/DX2                !
 ! A6    A(2,3,33)             110.2813         estimate D2E/DX2                !
 ! A7    A(4,3,32)             106.4552         estimate D2E/DX2                !
 ! A8    A(4,3,33)             109.7604         estimate D2E/DX2                !
 ! A9    A(32,3,33)            108.1725         estimate D2E/DX2                !
 ! A10   A(3,4,5)              119.6325         estimate D2E/DX2                !
 ! A11   A(3,4,12)             130.7958         estimate D2E/DX2                !
 ! A12   A(5,4,12)             109.4851         estimate D2E/DX2                !
 ! A13   A(4,5,6)              109.528          estimate D2E/DX2                !
 ! A14   A(5,6,7)              108.8736         estimate D2E/DX2                !
 ! A15   A(6,7,8)              130.6444         estimate D2E/DX2                !
 ! A16   A(6,7,12)             107.874          estimate D2E/DX2                !
 ! A17   A(8,7,12)             121.4813         estimate D2E/DX2                !
 ! A18   A(7,8,9)              117.2697         estimate D2E/DX2                !
 ! A19   A(7,8,34)             120.5164         estimate D2E/DX2                !
 ! A20   A(9,8,34)             122.2139         estimate D2E/DX2                !
 ! A21   A(8,9,10)             121.0101         estimate D2E/DX2                !
 ! A22   A(8,9,35)             120.0239         estimate D2E/DX2                !
 ! A23   A(10,9,35)            118.9657         estimate D2E/DX2                !
 ! A24   A(9,10,11)            122.073          estimate D2E/DX2                !
 ! A25   A(9,10,36)            118.7145         estimate D2E/DX2                !
 ! A26   A(11,10,36)           119.212          estimate D2E/DX2                !
 ! A27   A(10,11,12)           116.5176         estimate D2E/DX2                !
 ! A28   A(10,11,37)           121.414          estimate D2E/DX2                !
 ! A29   A(12,11,37)           122.0661         estimate D2E/DX2                !
 ! A30   A(4,12,7)             104.232          estimate D2E/DX2                !
 ! A31   A(4,12,11)            134.1143         estimate D2E/DX2                !
 ! A32   A(7,12,11)            121.6479         estimate D2E/DX2                !
 ! A33   A(2,13,14)            122.9164         estimate D2E/DX2                !
 ! A34   A(2,13,20)            119.3615         estimate D2E/DX2                !
 ! A35   A(14,13,20)           117.7159         estimate D2E/DX2                !
 ! A36   A(13,14,15)           114.9793         estimate D2E/DX2                !
 ! A37   A(13,14,38)           110.271          estimate D2E/DX2                !
 ! A38   A(13,14,39)           107.2676         estimate D2E/DX2                !
 ! A39   A(15,14,38)           109.2303         estimate D2E/DX2                !
 ! A40   A(15,14,39)           108.7254         estimate D2E/DX2                !
 ! A41   A(38,14,39)           105.9564         estimate D2E/DX2                !
 ! A42   A(14,15,16)           121.0469         estimate D2E/DX2                !
 ! A43   A(14,15,19)           126.2402         estimate D2E/DX2                !
 ! A44   A(16,15,19)           112.7068         estimate D2E/DX2                !
 ! A45   A(15,16,17)           113.9972         estimate D2E/DX2                !
 ! A46   A(15,16,40)           123.0124         estimate D2E/DX2                !
 ! A47   A(17,16,40)           122.9904         estimate D2E/DX2                !
 ! A48   A(16,17,18)           111.7135         estimate D2E/DX2                !
 ! A49   A(16,17,41)           128.3179         estimate D2E/DX2                !
 ! A50   A(18,17,41)           119.9684         estimate D2E/DX2                !
 ! A51   A(17,18,19)            89.3235         estimate D2E/DX2                !
 ! A52   A(15,19,18)           112.2589         estimate D2E/DX2                !
 ! A53   A(15,19,42)           128.1668         estimate D2E/DX2                !
 ! A54   A(18,19,42)           119.5612         estimate D2E/DX2                !
 ! A55   A(13,20,21)           119.6987         estimate D2E/DX2                !
 ! A56   A(13,20,25)           121.3997         estimate D2E/DX2                !
 ! A57   A(21,20,25)           118.901          estimate D2E/DX2                !
 ! A58   A(20,21,22)           121.4919         estimate D2E/DX2                !
 ! A59   A(20,21,43)           119.6469         estimate D2E/DX2                !
 ! A60   A(22,21,43)           118.8576         estimate D2E/DX2                !
 ! A61   A(21,22,23)           119.4259         estimate D2E/DX2                !
 ! A62   A(21,22,44)           120.4752         estimate D2E/DX2                !
 ! A63   A(23,22,44)           120.097          estimate D2E/DX2                !
 ! A64   A(22,23,24)           119.0812         estimate D2E/DX2                !
 ! A65   A(22,23,26)           123.8148         estimate D2E/DX2                !
 ! A66   A(24,23,26)           117.1004         estimate D2E/DX2                !
 ! A67   A(23,24,25)           120.9245         estimate D2E/DX2                !
 ! A68   A(23,24,45)           119.8431         estimate D2E/DX2                !
 ! A69   A(25,24,45)           119.2324         estimate D2E/DX2                !
 ! A70   A(20,25,24)           120.1623         estimate D2E/DX2                !
 ! A71   A(20,25,46)           120.1277         estimate D2E/DX2                !
 ! A72   A(24,25,46)           119.6873         estimate D2E/DX2                !
 ! A73   A(23,26,27)           128.8291         estimate D2E/DX2                !
 ! A74   A(23,26,47)           114.8563         estimate D2E/DX2                !
 ! A75   A(27,26,47)           116.3145         estimate D2E/DX2                !
 ! A76   A(26,27,28)           123.4344         estimate D2E/DX2                !
 ! A77   A(26,27,29)           115.1072         estimate D2E/DX2                !
 ! A78   A(28,27,29)           121.4583         estimate D2E/DX2                !
 ! A79   A(27,29,30)           117.7786         estimate D2E/DX2                !
 ! A80   A(27,29,31)           117.8238         estimate D2E/DX2                !
 ! A81   A(27,29,48)           116.1701         estimate D2E/DX2                !
 ! A82   A(30,29,48)           117.0448         estimate D2E/DX2                !
 ! A83   A(31,29,48)           117.0884         estimate D2E/DX2                !
 ! A84   A(29,30,49)           116.3505         estimate D2E/DX2                !
 ! A85   A(29,30,50)           117.0848         estimate D2E/DX2                !
 ! A86   A(31,30,49)           117.7099         estimate D2E/DX2                !
 ! A87   A(31,30,50)           119.1385         estimate D2E/DX2                !
 ! A88   A(49,30,50)           115.0743         estimate D2E/DX2                !
 ! A89   A(29,31,51)           117.1021         estimate D2E/DX2                !
 ! A90   A(29,31,52)           116.3456         estimate D2E/DX2                !
 ! A91   A(30,31,51)           119.1295         estimate D2E/DX2                !
 ! A92   A(30,31,52)           117.6862         estimate D2E/DX2                !
 ! A93   A(51,31,52)           115.0875         estimate D2E/DX2                !
 ! D1    D(1,2,3,4)              0.2494         estimate D2E/DX2                !
 ! D2    D(1,2,3,32)           118.4325         estimate D2E/DX2                !
 ! D3    D(1,2,3,33)          -122.4951         estimate D2E/DX2                !
 ! D4    D(13,2,3,4)          -179.953          estimate D2E/DX2                !
 ! D5    D(13,2,3,32)          -61.7699         estimate D2E/DX2                !
 ! D6    D(13,2,3,33)           57.3024         estimate D2E/DX2                !
 ! D7    D(1,2,13,14)          174.9441         estimate D2E/DX2                !
 ! D8    D(1,2,13,20)           -5.9828         estimate D2E/DX2                !
 ! D9    D(3,2,13,14)           -4.8491         estimate D2E/DX2                !
 ! D10   D(3,2,13,20)          174.2239         estimate D2E/DX2                !
 ! D11   D(2,3,4,5)            101.1126         estimate D2E/DX2                !
 ! D12   D(2,3,4,12)           -75.1177         estimate D2E/DX2                !
 ! D13   D(32,3,4,5)           -18.9996         estimate D2E/DX2                !
 ! D14   D(32,3,4,12)          164.77           estimate D2E/DX2                !
 ! D15   D(33,3,4,5)          -135.8494         estimate D2E/DX2                !
 ! D16   D(33,3,4,12)           47.9203         estimate D2E/DX2                !
 ! D17   D(3,4,5,6)           -177.8194         estimate D2E/DX2                !
 ! D18   D(12,4,5,6)            -0.8458         estimate D2E/DX2                !
 ! D19   D(3,4,12,7)           177.3654         estimate D2E/DX2                !
 ! D20   D(3,4,12,11)           -3.5337         estimate D2E/DX2                !
 ! D21   D(5,4,12,7)             0.8408         estimate D2E/DX2                !
 ! D22   D(5,4,12,11)          179.9416         estimate D2E/DX2                !
 ! D23   D(4,5,6,7)              0.4626         estimate D2E/DX2                !
 ! D24   D(5,6,7,8)           -179.7276         estimate D2E/DX2                !
 ! D25   D(5,6,7,12)             0.0721         estimate D2E/DX2                !
 ! D26   D(6,7,8,9)            179.6352         estimate D2E/DX2                !
 ! D27   D(6,7,8,34)            -0.392          estimate D2E/DX2                !
 ! D28   D(12,7,8,9)            -0.1412         estimate D2E/DX2                !
 ! D29   D(12,7,8,34)          179.8316         estimate D2E/DX2                !
 ! D30   D(6,7,12,4)            -0.5617         estimate D2E/DX2                !
 ! D31   D(6,7,12,11)         -179.8033         estimate D2E/DX2                !
 ! D32   D(8,7,12,4)           179.2601         estimate D2E/DX2                !
 ! D33   D(8,7,12,11)            0.0184         estimate D2E/DX2                !
 ! D34   D(7,8,9,10)             0.1233         estimate D2E/DX2                !
 ! D35   D(7,8,9,35)           179.9439         estimate D2E/DX2                !
 ! D36   D(34,8,9,10)         -179.849          estimate D2E/DX2                !
 ! D37   D(34,8,9,35)           -0.0284         estimate D2E/DX2                !
 ! D38   D(8,9,10,11)            0.018          estimate D2E/DX2                !
 ! D39   D(8,9,10,36)          179.7658         estimate D2E/DX2                !
 ! D40   D(35,9,10,11)        -179.8045         estimate D2E/DX2                !
 ! D41   D(35,9,10,36)          -0.0567         estimate D2E/DX2                !
 ! D42   D(9,10,11,12)          -0.1395         estimate D2E/DX2                !
 ! D43   D(9,10,11,37)         179.314          estimate D2E/DX2                !
 ! D44   D(36,10,11,12)       -179.8861         estimate D2E/DX2                !
 ! D45   D(36,10,11,37)         -0.4326         estimate D2E/DX2                !
 ! D46   D(10,11,12,4)        -178.8547         estimate D2E/DX2                !
 ! D47   D(10,11,12,7)           0.1215         estimate D2E/DX2                !
 ! D48   D(37,11,12,4)           1.6957         estimate D2E/DX2                !
 ! D49   D(37,11,12,7)        -179.3282         estimate D2E/DX2                !
 ! D50   D(2,13,14,15)         -81.8394         estimate D2E/DX2                !
 ! D51   D(2,13,14,38)          42.1754         estimate D2E/DX2                !
 ! D52   D(2,13,14,39)         157.1171         estimate D2E/DX2                !
 ! D53   D(20,13,14,15)         99.0733         estimate D2E/DX2                !
 ! D54   D(20,13,14,38)       -136.912          estimate D2E/DX2                !
 ! D55   D(20,13,14,39)        -21.9703         estimate D2E/DX2                !
 ! D56   D(2,13,20,21)        -115.7338         estimate D2E/DX2                !
 ! D57   D(2,13,20,25)          64.5552         estimate D2E/DX2                !
 ! D58   D(14,13,20,21)         63.3871         estimate D2E/DX2                !
 ! D59   D(14,13,20,25)       -116.3238         estimate D2E/DX2                !
 ! D60   D(13,14,15,16)        173.1433         estimate D2E/DX2                !
 ! D61   D(13,14,15,19)         -7.8195         estimate D2E/DX2                !
 ! D62   D(38,14,15,16)         48.5805         estimate D2E/DX2                !
 ! D63   D(38,14,15,19)       -132.3823         estimate D2E/DX2                !
 ! D64   D(39,14,15,16)        -66.6125         estimate D2E/DX2                !
 ! D65   D(39,14,15,19)        112.4247         estimate D2E/DX2                !
 ! D66   D(14,15,16,17)        179.1036         estimate D2E/DX2                !
 ! D67   D(14,15,16,40)         -0.8821         estimate D2E/DX2                !
 ! D68   D(19,15,16,17)         -0.0547         estimate D2E/DX2                !
 ! D69   D(19,15,16,40)        179.9597         estimate D2E/DX2                !
 ! D70   D(14,15,19,18)       -179.0275         estimate D2E/DX2                !
 ! D71   D(14,15,19,42)         -0.3687         estimate D2E/DX2                !
 ! D72   D(16,15,19,18)          0.0784         estimate D2E/DX2                !
 ! D73   D(16,15,19,42)        178.7371         estimate D2E/DX2                !
 ! D74   D(15,16,17,18)          0.0042         estimate D2E/DX2                !
 ! D75   D(15,16,17,41)        179.8436         estimate D2E/DX2                !
 ! D76   D(40,16,17,18)        179.9899         estimate D2E/DX2                !
 ! D77   D(40,16,17,41)         -0.1707         estimate D2E/DX2                !
 ! D78   D(16,17,18,19)          0.0324         estimate D2E/DX2                !
 ! D79   D(41,17,18,19)       -179.8222         estimate D2E/DX2                !
 ! D80   D(17,18,19,15)         -0.064          estimate D2E/DX2                !
 ! D81   D(17,18,19,42)       -178.8517         estimate D2E/DX2                !
 ! D82   D(13,20,21,22)       -178.3626         estimate D2E/DX2                !
 ! D83   D(13,20,21,43)          2.3311         estimate D2E/DX2                !
 ! D84   D(25,20,21,22)          1.3556         estimate D2E/DX2                !
 ! D85   D(25,20,21,43)       -177.9507         estimate D2E/DX2                !
 ! D86   D(13,20,25,24)        178.9846         estimate D2E/DX2                !
 ! D87   D(13,20,25,46)         -2.7535         estimate D2E/DX2                !
 ! D88   D(21,20,25,24)         -0.7286         estimate D2E/DX2                !
 ! D89   D(21,20,25,46)        177.5333         estimate D2E/DX2                !
 ! D90   D(20,21,22,23)         -0.9848         estimate D2E/DX2                !
 ! D91   D(20,21,22,44)        179.5193         estimate D2E/DX2                !
 ! D92   D(43,21,22,23)        178.3268         estimate D2E/DX2                !
 ! D93   D(43,21,22,44)         -1.169          estimate D2E/DX2                !
 ! D94   D(21,22,23,24)         -0.0142         estimate D2E/DX2                !
 ! D95   D(21,22,23,26)       -179.306          estimate D2E/DX2                !
 ! D96   D(44,22,23,24)        179.4836         estimate D2E/DX2                !
 ! D97   D(44,22,23,26)          0.1918         estimate D2E/DX2                !
 ! D98   D(22,23,24,25)          0.6242         estimate D2E/DX2                !
 ! D99   D(22,23,24,45)       -179.2922         estimate D2E/DX2                !
 ! D100  D(26,23,24,25)        179.9632         estimate D2E/DX2                !
 ! D101  D(26,23,24,45)          0.0468         estimate D2E/DX2                !
 ! D102  D(22,23,26,27)         -4.5929         estimate D2E/DX2                !
 ! D103  D(22,23,26,47)        175.2814         estimate D2E/DX2                !
 ! D104  D(24,23,26,27)        176.1024         estimate D2E/DX2                !
 ! D105  D(24,23,26,47)         -4.0233         estimate D2E/DX2                !
 ! D106  D(23,24,25,20)         -0.2498         estimate D2E/DX2                !
 ! D107  D(23,24,25,46)       -178.5194         estimate D2E/DX2                !
 ! D108  D(45,24,25,20)        179.6671         estimate D2E/DX2                !
 ! D109  D(45,24,25,46)          1.3975         estimate D2E/DX2                !
 ! D110  D(23,26,27,28)         -0.2553         estimate D2E/DX2                !
 ! D111  D(23,26,27,29)        179.8089         estimate D2E/DX2                !
 ! D112  D(47,26,27,28)        179.872          estimate D2E/DX2                !
 ! D113  D(47,26,27,29)         -0.0638         estimate D2E/DX2                !
 ! D114  D(26,27,29,30)       -146.1158         estimate D2E/DX2                !
 ! D115  D(26,27,29,31)        146.5487         estimate D2E/DX2                !
 ! D116  D(26,27,29,48)          0.1345         estimate D2E/DX2                !
 ! D117  D(28,27,29,30)         33.947          estimate D2E/DX2                !
 ! D118  D(28,27,29,31)        -33.3885         estimate D2E/DX2                !
 ! D119  D(28,27,29,48)       -179.8027         estimate D2E/DX2                !
 ! D120  D(27,29,30,49)          1.1663         estimate D2E/DX2                !
 ! D121  D(27,29,30,50)        142.8401         estimate D2E/DX2                !
 ! D122  D(48,29,30,49)       -144.7896         estimate D2E/DX2                !
 ! D123  D(48,29,30,50)         -3.1157         estimate D2E/DX2                !
 ! D124  D(27,29,31,51)       -142.9335         estimate D2E/DX2                !
 ! D125  D(27,29,31,52)         -1.2178         estimate D2E/DX2                !
 ! D126  D(48,29,31,51)          3.1732         estimate D2E/DX2                !
 ! D127  D(48,29,31,52)        144.8889         estimate D2E/DX2                !
 ! D128  D(49,30,31,51)        147.2042         estimate D2E/DX2                !
 ! D129  D(49,30,31,52)          0.0056         estimate D2E/DX2                !
 ! D130  D(50,30,31,51)         -0.0264         estimate D2E/DX2                !
 ! D131  D(50,30,31,52)       -147.225          estimate D2E/DX2                !
 --------------------------------------------------------------------------------
 Trust Radius=3.00D-01 FncErr=1.00D-07 GrdErr=1.00D-06
 Number of steps in this run=    290 maximum allowed number of steps=    312.
 GradGradGradGradGradGradGradGradGradGradGradGradGradGradGradGradGradGrad

 Leave Link  103 at Tue Aug 30 14:53:08 2022, MaxMem=  209715200 cpu:       0.1
 (Enter /opt/gaussian/l202.exe)
 Stoichiometry    C23H21N5O2S
 Framework group  C1[X(C23H21N5O2S)]
 Deg. of freedom   150
 Full point group                 C1      NOp   1
 Largest Abelian subgroup         C1      NOp   1
 Largest concise Abelian subgroup C1      NOp   1
                         Standard orientation:                         
 ---------------------------------------------------------------------
 Center     Atomic      Atomic             Coordinates (Angstroms)
 Number     Number       Type             X           Y           Z
 ---------------------------------------------------------------------
      1          8           0        1.139389   -1.478441   -0.089550
      2          6           0        1.302060   -0.433511   -0.700120
      3          6           0        2.661320   -0.085272   -1.294860
      4          7           0        3.637410   -1.101072   -1.048120
      5          7           0        3.954929   -1.984872   -2.036120
      6          7           0        4.800089   -2.822822   -1.599560
      7          6           0        5.077059   -2.530782   -0.273360
      8          6           0        5.935299   -3.151542    0.633060
      9          6           0        6.004839   -2.621402    1.898110
     10          6           0        5.232719   -1.494502    2.258500
     11          6           0        4.382130   -0.878672    1.371660
     12          6           0        4.319869   -1.423182    0.086420
     13          7           0        0.295870    0.478569   -0.883760
     14          6           0        0.508110    1.780009   -1.519870
     15          6           0        1.063560    2.851569   -0.610800
     16          6           0        1.462521    4.143919   -1.134570
     17          6           0        1.917531    4.993379   -0.202150
     18         16           0        1.892901    4.261109    1.427760
     19          6           0        1.230570    2.756889    0.718780
     20          6           0       -1.038710    0.152389   -0.456200
     21          6           0       -2.051160    0.036459   -1.394870
     22          6           0       -3.356820   -0.243300   -1.021160
     23          6           0       -3.657230   -0.432510    0.324410
     24          6           0       -2.634740   -0.336160    1.266970
     25          6           0       -1.340510   -0.044611    0.882900
     26          7           0       -4.947190   -0.734450    0.805110
     27          6           0       -6.119590   -0.813180    0.114760
     28          8           0       -6.208120   -0.613180   -1.096540
     29          6           0       -7.307090   -1.160439    0.929960
     30          6           0       -8.389811   -2.001759    0.279810
     31          6           0       -8.640950   -0.556559    0.531480
     32          1           0        2.577880    0.004668   -2.368020
     33          1           0        3.010740    0.860488   -0.903230
     34          1           0        6.510149   -4.006633    0.339810
     35          1           0        6.649969   -3.064563    2.630720
     36          1           0        5.312850   -1.113052    3.258030
     37          1           0        3.793270   -0.031092    1.659480
     38          1           0        1.153370    1.674909   -2.383030
     39          1           0       -0.447260    2.109999   -1.901640
     40          1           0        1.399151    4.397599   -2.174110
     41          1           0        2.269561    5.991588   -0.332430
     42          1           0        1.002040    1.932769    1.353910
     43          1           0       -1.824620    0.153839   -2.437220
     44          1           0       -4.124880   -0.321450   -1.756620
     45          1           0       -2.850740   -0.491220    2.307600
     46          1           0       -0.566220    0.001179    1.620510
     47          1           0       -4.997640   -0.914190    1.779530
     48          1           0       -7.133600   -1.313419    1.977280
     49          1           0       -8.211441   -2.307649   -0.731120
     50          1           0       -8.877171   -2.731489    0.896140
     51          1           0       -9.304900   -0.272409    1.324180
     52          1           0       -8.630680    0.104521   -0.311290
 ---------------------------------------------------------------------
 Rotational constants (GHZ):      0.1899542      0.0599872      0.0509153
 Leave Link  202 at Tue Aug 30 14:53:08 2022, MaxMem=  209715200 cpu:       0.0
 (Enter /opt/gaussian/l301.exe)
 Standard basis: CC-pVDZ (5D, 7F)
 Ernie: Thresh=  0.10000D-02 Tol=  0.10000D-05 Strict=F.
 Ernie:  70 primitive shells out of 815 were deleted.
 There are   543 symmetry adapted basis functions of A   symmetry.
 Integral buffers will be    131072 words long.
 Raffenetti 2 integral format.
 Two-electron integral symmetry is turned on.
   543 basis functions,  1208 primitive gaussians,   574 cartesian basis functions
   113 alpha electrons      113 beta electrons
       nuclear repulsion energy      2947.0894942038 Hartrees.
 IExCor=  402 DFT=T Ex+Corr=B3LYP ExCW=0 ScaHFX=  0.200000
 ScaDFX=  0.800000  0.720000  1.000000  0.810000 ScalE2=  1.000000  1.000000
 IRadAn=      0 IRanWt=     -1 IRanGd=            0 ICorTp=0
 NAtoms=   52 NActive=   52 NUniq=   52 SFac= 1.00D+00 NAtFMM=   60 NAOKFM=F Big=F
 Leave Link  301 at Tue Aug 30 14:53:08 2022, MaxMem=  209715200 cpu:       0.3
 (Enter /opt/gaussian/l302.exe)
 NPDir=0 NMtPBC=     1 NCelOv=     1 NCel=       1 NClECP=     1 NCelD=      1
         NCelK=      1 NCelE2=     1 NClLst=     1 CellRange=     0.0.
 One-electron integrals computed using PRISM.
 NBasis=   543 RedAO= T  NBF=   543
 NBsUse=   543 1.00D-06 NBFU=   543
 Precomputing XC quadrature grid using
 IXCGrd= 2 IRadAn=           0 IRanWt=          -1 IRanGd=           0 AccXCQ= 0.00D+00.
 NRdTot=    3366 NPtTot=      430784 NUsed=      455035 NTot=      455067
 NSgBfM=   551   551   552   552   552 NAtAll=    52    52.
 Leave Link  302 at Tue Aug 30 14:53:09 2022, MaxMem=  209715200 cpu:       8.3
 (Enter /opt/gaussian/l303.exe)
 DipDrv:  MaxL=1.
 Leave Link  303 at Tue Aug 30 14:53:09 2022, MaxMem=  209715200 cpu:       1.1
 (Enter /opt/gaussian/l401.exe)
 Harris functional with IExCor=  402 diagonalized for initial guess.
 ExpMin= 1.22D-01 ExpMax= 1.11D+05 ExpMxC= 1.07D+03 IAcc=2 IRadAn=         4 AccDes= 0.00D+00
 HarFok:  IExCor=  402 AccDes= 0.00D+00 IRadAn=         4 IDoV= 1
 ScaDFX=  1.000000  1.000000  1.000000  1.000000
 FoFCou: FMM=F IPFlag=           0 FMFlag=      100000 FMFlg1=           0
         NFxFlg=           0 DoJE=T BraDBF=F KetDBF=T FulRan=T
         Omega=  0.000000  0.000000  1.000000  0.000000  0.000000 ICntrl=     500 IOpCl=  0
         NMat0=    1 NMatS0=    1 NMatT0=    0 NMatD0=    1 NMtDS0=    0 NMtDT0=    0
         I1Cent=           4 NGrid=           0.
 Petite list used in FoFCou.
 Harris En= -1711.36101883119    
 Initial guess orbital symmetries:
       Occupied  (A) (A) (A) (A) (A) (A) (A) (A) (A) (A) (A) (A)
                 (A) (A) (A) (A) (A) (A) (A) (A) (A) (A) (A) (A)
                 (A) (A) (A) (A) (A) (A) (A) (A) (A) (A) (A) (A)
                 (A) (A) (A) (A) (A) (A) (A) (A) (A) (A) (A) (A)
                 (A) (A) (A) (A) (A) (A) (A) (A) (A) (A) (A) (A)
                 (A) (A) (A) (A) (A) (A) (A) (A) (A) (A) (A) (A)
                 (A) (A) (A) (A) (A) (A) (A) (A) (A) (A) (A) (A)
                 (A) (A) (A) (A) (A) (A) (A) (A) (A) (A) (A) (A)
                 (A) (A) (A) (A) (A) (A) (A) (A) (A) (A) (A) (A)
                 (A) (A) (A) (A) (A)
       Virtual   (A) (A) (A) (A) (A) (A) (A) (A) (A) (A) (A) (A)
                 (A) (A) (A) (A) (A) (A) (A) (A) (A) (A) (A) (A)
                 (A) (A) (A) (A) (A) (A) (A) (A) (A) (A) (A) (A)
                 (A) (A) (A) (A) (A) (A) (A) (A) (A) (A) (A) (A)
                 (A) (A) (A) (A) (A) (A) (A) (A) (A) (A) (A) (A)
                 (A) (A) (A) (A) (A) (A) (A) (A) (A) (A) (A) (A)
                 (A) (A) (A) (A) (A) (A) (A) (A) (A) (A) (A) (A)
                 (A) (A) (A) (A) (A) (A) (A) (A) (A) (A) (A) (A)
                 (A) (A) (A) (A) (A) (A) (A) (A) (A) (A) (A) (A)
                 (A) (A) (A) (A) (A) (A) (A) (A) (A) (A) (A) (A)
                 (A) (A) (A) (A) (A) (A) (A) (A) (A) (A) (A) (A)
                 (A) (A) (A) (A) (A) (A) (A) (A) (A) (A) (A) (A)
                 (A) (A) (A) (A) (A) (A) (A) (A) (A) (A) (A) (A)
                 (A) (A) (A) (A) (A) (A) (A) (A) (A) (A) (A) (A)
                 (A) (A) (A) (A) (A) (A) (A) (A) (A) (A) (A) (A)
                 (A) (A) (A) (A) (A) (A) (A) (A) (A) (A) (A) (A)
                 (A) (A) (A) (A) (A) (A) (A) (A) (A) (A) (A) (A)
                 (A) (A) (A) (A) (A) (A) (A) (A) (A) (A) (A) (A)
                 (A) (A) (A) (A) (A) (A) (A) (A) (A) (A) (A) (A)
                 (A) (A) (A) (A) (A) (A) (A) (A) (A) (A) (A) (A)
                 (A) (A) (A) (A) (A) (A) (A) (A) (A) (A) (A) (A)
                 (A) (A) (A) (A) (A) (A) (A) (A) (A) (A) (A) (A)
                 (A) (A) (A) (A) (A) (A) (A) (A) (A) (A) (A) (A)
                 (A) (A) (A) (A) (A) (A) (A) (A) (A) (A) (A) (A)
                 (A) (A) (A) (A) (A) (A) (A) (A) (A) (A) (A) (A)
                 (A) (A) (A) (A) (A) (A) (A) (A) (A) (A) (A) (A)
                 (A) (A) (A) (A) (A) (A) (A) (A) (A) (A) (A) (A)
                 (A) (A) (A) (A) (A) (A) (A) (A) (A) (A) (A) (A)
                 (A) (A) (A) (A) (A) (A) (A) (A) (A) (A) (A) (A)
                 (A) (A) (A) (A) (A) (A) (A) (A) (A) (A) (A) (A)
                 (A) (A) (A) (A) (A) (A) (A) (A) (A) (A) (A) (A)
                 (A) (A) (A) (A) (A) (A) (A) (A) (A) (A) (A) (A)
                 (A) (A) (A) (A) (A) (A) (A) (A) (A) (A) (A) (A)
                 (A) (A) (A) (A) (A) (A) (A) (A) (A) (A) (A) (A)
                 (A) (A) (A) (A) (A) (A) (A) (A) (A) (A) (A) (A)
                 (A) (A) (A) (A) (A) (A) (A) (A) (A) (A)
 The electronic state of the initial guess is 1-A.
 Leave Link  401 at Tue Aug 30 14:53:12 2022, MaxMem=  209715200 cpu:      23.5
 (Enter /opt/gaussian/l502.exe)
 Closed shell SCF:
 Requested convergence on RMS density matrix=1.00D-08 within 128 cycles.
 Requested convergence on MAX density matrix=1.00D-06.
 Requested convergence on             energy=1.00D-06.
 No special actions if energy rises.
 Using DIIS extrapolation, IDIIS=  1040.
 Integral symmetry usage will be decided dynamically.
       454554 words used for storage of precomputed grid.
 IEnd=     1470062 IEndB=     1470062 NGot=   209715200 MDV=   208591829
 LenX=   208591829 LenY=   208261779
 Fock matrices will be formed incrementally for  20 cycles.
 Integral accuracy reduced to 1.0D-05 until final iterations.

 Cycle   1  Pass 0  IDiag  1:
 FoFCou: FMM=F IPFlag=           0 FMFlag=      100000 FMFlg1=           0
         NFxFlg=           0 DoJE=F BraDBF=F KetDBF=F FulRan=T
         Omega=  0.000000  0.000000  1.000000  0.000000  0.000000 ICntrl=       0 IOpCl=  0
         NMat0=    1 NMatS0=    1 NMatT0=    0 NMatD0=    1 NMtDS0=    0 NMtDT0=    0
         I1Cent=           0 NGrid=           0.
 Symmetry not used in FoFCou.
 E= -1710.76383090069    
 DIIS: error= 2.61D-02 at cycle   1 NSaved=   1.
 NSaved= 1 IEnMin= 1 EnMin= -1710.76383090069     IErMin= 1 ErrMin= 2.61D-02
 ErrMax= 2.61D-02 EMaxC= 1.00D-01 BMatC= 7.17D-01 BMatP= 7.17D-01
 IDIUse=3 WtCom= 7.39D-01 WtEn= 2.61D-01
 Coeff-Com:  0.100D+01
 Coeff-En:   0.100D+01
 Coeff:      0.100D+01
 Gap=     0.332 Goal=   None    Shift=    0.000
 GapD=    0.332 DampG=1.000 DampE=0.500 DampFc=0.5000 IDamp=-1.
 Damping current iteration by 5.00D-01
 RMSDP=4.50D-03 MaxDP=2.02D-01              OVMax= 3.16D-01

 Cycle   2  Pass 0  IDiag  1:
 RMSU=  1.58D-03    CP:  9.82D-01
 E= -1710.94057083955     Delta-E=       -0.176739938865 Rises=F Damp=T
 DIIS: error= 1.40D-02 at cycle   2 NSaved=   2.
 NSaved= 2 IEnMin= 2 EnMin= -1710.94057083955     IErMin= 2 ErrMin= 1.40D-02
 ErrMax= 1.40D-02 EMaxC= 1.00D-01 BMatC= 1.40D-01 BMatP= 7.17D-01
 IDIUse=3 WtCom= 8.60D-01 WtEn= 1.40D-01
 Coeff-Com:  0.253D+00 0.747D+00
 Coeff-En:   0.379D+00 0.621D+00
 Coeff:      0.271D+00 0.729D+00
 Gap=     0.277 Goal=   None    Shift=    0.000
 RMSDP=1.45D-03 MaxDP=6.90D-02 DE=-1.77D-01 OVMax= 2.75D-01

 Cycle   3  Pass 0  IDiag  1:
 RMSU=  9.16D-04    CP:  9.69D-01  7.18D-01
 E= -1711.44275237157     Delta-E=       -0.502181532018 Rises=F Damp=F
 DIIS: error= 1.33D-02 at cycle   3 NSaved=   3.
 NSaved= 3 IEnMin= 3 EnMin= -1711.44275237157     IErMin= 3 ErrMin= 1.33D-02
 ErrMax= 1.33D-02 EMaxC= 1.00D-01 BMatC= 9.04D-02 BMatP= 1.40D-01
 IDIUse=3 WtCom= 8.67D-01 WtEn= 1.33D-01
 Coeff-Com:  0.937D-01 0.438D+00 0.468D+00
 Coeff-En:   0.000D+00 0.000D+00 0.100D+01
 Coeff:      0.813D-01 0.380D+00 0.539D+00
 Gap=     0.198 Goal=   None    Shift=    0.000
 RMSDP=7.52D-04 MaxDP=4.72D-02 DE=-5.02D-01 OVMax= 9.21D-02

 Cycle   4  Pass 0  IDiag  1:
 RMSU=  4.04D-04    CP:  9.73D-01  8.01D-01  6.54D-01
 E= -1711.50428907013     Delta-E=       -0.061536698558 Rises=F Damp=F
 DIIS: error= 6.65D-03 at cycle   4 NSaved=   4.
 NSaved= 4 IEnMin= 4 EnMin= -1711.50428907013     IErMin= 4 ErrMin= 6.65D-03
 ErrMax= 6.65D-03 EMaxC= 1.00D-01 BMatC= 2.43D-02 BMatP= 9.04D-02
 IDIUse=3 WtCom= 9.33D-01 WtEn= 6.65D-02
 Coeff-Com:  0.265D-01 0.113D+00 0.345D+00 0.515D+00
 Coeff-En:   0.000D+00 0.000D+00 0.238D+00 0.762D+00
 Coeff:      0.247D-01 0.106D+00 0.338D+00 0.531D+00
 Gap=     0.201 Goal=   None    Shift=    0.000
 RMSDP=3.47D-04 MaxDP=1.99D-02 DE=-6.15D-02 OVMax= 3.73D-02

 Cycle   5  Pass 0  IDiag  1:
 RMSU=  1.40D-04    CP:  9.72D-01  7.68D-01  7.29D-01  5.50D-01
 E= -1711.52342743563     Delta-E=       -0.019138365504 Rises=F Damp=F
 DIIS: error= 1.92D-03 at cycle   5 NSaved=   5.
 NSaved= 5 IEnMin= 5 EnMin= -1711.52342743563     IErMin= 5 ErrMin= 1.92D-03
 ErrMax= 1.92D-03 EMaxC= 1.00D-01 BMatC= 2.17D-03 BMatP= 2.43D-02
 IDIUse=3 WtCom= 9.81D-01 WtEn= 1.92D-02
 Coeff-Com:  0.689D-02 0.185D-01 0.159D+00 0.339D+00 0.477D+00
 Coeff-En:   0.000D+00 0.000D+00 0.000D+00 0.566D-01 0.943D+00
 Coeff:      0.675D-02 0.182D-01 0.156D+00 0.333D+00 0.486D+00
 Gap=     0.192 Goal=   None    Shift=    0.000
 RMSDP=1.22D-04 MaxDP=7.40D-03 DE=-1.91D-02 OVMax= 1.71D-02

 Cycle   6  Pass 0  IDiag  1:
 RMSU=  3.59D-05    CP:  9.71D-01  7.67D-01  7.44D-01  6.41D-01  5.17D-01
 E= -1711.52561437269     Delta-E=       -0.002186937061 Rises=F Damp=F
 DIIS: error= 6.46D-04 at cycle   6 NSaved=   6.
 NSaved= 6 IEnMin= 6 EnMin= -1711.52561437269     IErMin= 6 ErrMin= 6.46D-04
 ErrMax= 6.46D-04 EMaxC= 1.00D-01 BMatC= 2.13D-04 BMatP= 2.17D-03
 IDIUse=3 WtCom= 9.94D-01 WtEn= 6.46D-03
 Coeff-Com:  0.113D-02-0.450D-02 0.511D-01 0.135D+00 0.293D+00 0.524D+00
 Coeff-En:   0.000D+00 0.000D+00 0.000D+00 0.000D+00 0.436D-01 0.956D+00
 Coeff:      0.112D-02-0.447D-02 0.507D-01 0.134D+00 0.291D+00 0.527D+00
 Gap=     0.192 Goal=   None    Shift=    0.000
 RMSDP=3.26D-05 MaxDP=2.13D-03 DE=-2.19D-03 OVMax= 4.13D-03

 Cycle   7  Pass 0  IDiag  1:
 RMSU=  1.52D-05    CP:  9.71D-01  7.68D-01  7.46D-01  6.33D-01  5.75D-01
                    CP:  5.84D-01
 E= -1711.52580643869     Delta-E=       -0.000192065997 Rises=F Damp=F
 DIIS: error= 2.81D-04 at cycle   7 NSaved=   7.
 NSaved= 7 IEnMin= 7 EnMin= -1711.52580643869     IErMin= 7 ErrMin= 2.81D-04
 ErrMax= 2.81D-04 EMaxC= 1.00D-01 BMatC= 2.92D-05 BMatP= 2.13D-04
 IDIUse=3 WtCom= 9.97D-01 WtEn= 2.81D-03
 Coeff-Com:  0.197D-03-0.444D-02 0.153D-01 0.468D-01 0.128D+00 0.332D+00
 Coeff-Com:  0.482D+00
 Coeff-En:   0.000D+00 0.000D+00 0.000D+00 0.000D+00 0.000D+00 0.827D-01
 Coeff-En:   0.917D+00
 Coeff:      0.196D-03-0.443D-02 0.153D-01 0.467D-01 0.128D+00 0.331D+00
 Coeff:      0.483D+00
 Gap=     0.192 Goal=   None    Shift=    0.000
 RMSDP=1.14D-05 MaxDP=9.49D-04 DE=-1.92D-04 OVMax= 1.24D-03

 Cycle   8  Pass 0  IDiag  1:
 RMSU=  4.41D-06    CP:  9.71D-01  7.68D-01  7.46D-01  6.35D-01  5.80D-01
                    CP:  6.53D-01  5.91D-01
 E= -1711.52583374744     Delta-E=       -0.000027308747 Rises=F Damp=F
 DIIS: error= 8.06D-05 at cycle   8 NSaved=   8.
 NSaved= 8 IEnMin= 8 EnMin= -1711.52583374744     IErMin= 8 ErrMin= 8.06D-05
 ErrMax= 8.06D-05 EMaxC= 1.00D-01 BMatC= 2.78D-06 BMatP= 2.92D-05
 IDIUse=1 WtCom= 1.00D+00 WtEn= 0.00D+00
 Coeff-Com:  0.998D-04-0.251D-02 0.552D-02 0.179D-01 0.551D-01 0.164D+00
 Coeff-Com:  0.302D+00 0.458D+00
 Coeff:      0.998D-04-0.251D-02 0.552D-02 0.179D-01 0.551D-01 0.164D+00
 Coeff:      0.302D+00 0.458D+00
 Gap=     0.192 Goal=   None    Shift=    0.000
 RMSDP=3.38D-06 MaxDP=2.73D-04 DE=-2.73D-05 OVMax= 3.34D-04

 Initial convergence to 1.0D-05 achieved.  Increase integral accuracy.
 Cycle   9  Pass 1  IDiag  1:
 E= -1711.52588503321     Delta-E=       -0.000051285768 Rises=F Damp=F
 DIIS: error= 1.84D-04 at cycle   1 NSaved=   1.
 NSaved= 1 IEnMin= 1 EnMin= -1711.52588503321     IErMin= 1 ErrMin= 1.84D-04
 ErrMax= 1.84D-04 EMaxC= 1.00D-01 BMatC= 9.86D-06 BMatP= 9.86D-06
 IDIUse=3 WtCom= 9.98D-01 WtEn= 1.84D-03
 Coeff-Com:  0.100D+01
 Coeff-En:   0.100D+01
 Coeff:      0.100D+01
 Gap=     0.192 Goal=   None    Shift=    0.000
 RMSDP=3.38D-06 MaxDP=2.73D-04 DE=-5.13D-05 OVMax= 5.34D-04

 Cycle  10  Pass 1  IDiag  1:
 RMSU=  8.71D-05    CP:  1.00D+00
 E= -1711.52589399609     Delta-E=       -0.000008962885 Rises=F Damp=F
 DIIS: error= 6.72D-05 at cycle   2 NSaved=   2.
 NSaved= 2 IEnMin= 2 EnMin= -1711.52589399609     IErMin= 2 ErrMin= 6.72D-05
 ErrMax= 6.72D-05 EMaxC= 1.00D-01 BMatC= 9.56D-07 BMatP= 9.86D-06
 IDIUse=1 WtCom= 1.00D+00 WtEn= 0.00D+00
 Coeff-Com:  0.115D+00 0.885D+00
 Coeff:      0.115D+00 0.885D+00
 Gap=     0.192 Goal=   None    Shift=    0.000
 RMSDP=4.49D-06 MaxDP=4.85D-04 DE=-8.96D-06 OVMax= 5.48D-04

 Cycle  11  Pass 1  IDiag  1:
 RMSU=  3.08D-06    CP:  1.00D+00  1.01D+00
 E= -1711.52589221355     Delta-E=        0.000001782540 Rises=F Damp=F
 DIIS: error= 1.29D-04 at cycle   3 NSaved=   3.
 NSaved= 3 IEnMin= 2 EnMin= -1711.52589399609     IErMin= 2 ErrMin= 6.72D-05
 ErrMax= 1.29D-04 EMaxC= 1.00D-01 BMatC= 3.08D-06 BMatP= 9.56D-07
 IDIUse=3 WtCom= 4.68D-01 WtEn= 5.32D-01
 Coeff-Com: -0.389D-02 0.645D+00 0.359D+00
 Coeff-En:   0.000D+00 0.705D+00 0.295D+00
 Coeff:     -0.182D-02 0.677D+00 0.325D+00
 Gap=     0.192 Goal=   None    Shift=    0.000
 RMSDP=2.57D-06 MaxDP=3.04D-04 DE= 1.78D-06 OVMax= 3.45D-04

 Cycle  12  Pass 1  IDiag  1:
 RMSU=  3.92D-07    CP:  1.00D+00  1.01D+00  4.27D-01
 E= -1711.52589478696     Delta-E=       -0.000002573406 Rises=F Damp=F
 DIIS: error= 1.05D-05 at cycle   4 NSaved=   4.
 NSaved= 4 IEnMin= 4 EnMin= -1711.52589478696     IErMin= 4 ErrMin= 1.05D-05
 ErrMax= 1.05D-05 EMaxC= 1.00D-01 BMatC= 4.81D-08 BMatP= 9.56D-07
 IDIUse=1 WtCom= 1.00D+00 WtEn= 0.00D+00
 Coeff-Com: -0.397D-02 0.393D+00 0.176D+00 0.435D+00
 Coeff:     -0.397D-02 0.393D+00 0.176D+00 0.435D+00
 Gap=     0.192 Goal=   None    Shift=    0.000
 RMSDP=3.66D-07 MaxDP=3.49D-05 DE=-2.57D-06 OVMax= 5.10D-05

 Cycle  13  Pass 1  IDiag  1:
 RMSU=  1.38D-07    CP:  1.00D+00  1.01D+00  3.68D-01  6.93D-01
 E= -1711.52589483339     Delta-E=       -0.000000046430 Rises=F Damp=F
 DIIS: error= 1.06D-06 at cycle   5 NSaved=   5.
 NSaved= 5 IEnMin= 5 EnMin= -1711.52589483339     IErMin= 5 ErrMin= 1.06D-06
 ErrMax= 1.06D-06 EMaxC= 1.00D-01 BMatC= 5.62D-10 BMatP= 4.81D-08
 IDIUse=1 WtCom= 1.00D+00 WtEn= 0.00D+00
 Coeff-Com: -0.185D-02 0.171D+00 0.733D-01 0.224D+00 0.534D+00
 Coeff:     -0.185D-02 0.171D+00 0.733D-01 0.224D+00 0.534D+00
 Gap=     0.192 Goal=   None    Shift=    0.000
 RMSDP=6.15D-08 MaxDP=4.24D-06 DE=-4.64D-08 OVMax= 7.05D-06

 Cycle  14  Pass 1  IDiag  1:
 RMSU=  4.01D-08    CP:  1.00D+00  1.01D+00  3.68D-01  7.00D-01  8.82D-01
 E= -1711.52589483384     Delta-E=       -0.000000000453 Rises=F Damp=F
 DIIS: error= 4.22D-07 at cycle   6 NSaved=   6.
 NSaved= 6 IEnMin= 6 EnMin= -1711.52589483384     IErMin= 6 ErrMin= 4.22D-07
 ErrMax= 4.22D-07 EMaxC= 1.00D-01 BMatC= 1.17D-10 BMatP= 5.62D-10
 IDIUse=1 WtCom= 1.00D+00 WtEn= 0.00D+00
 Coeff-Com: -0.581D-03 0.499D-01 0.202D-01 0.767D-01 0.334D+00 0.520D+00
 Coeff:     -0.581D-03 0.499D-01 0.202D-01 0.767D-01 0.334D+00 0.520D+00
 Gap=     0.192 Goal=   None    Shift=    0.000
 RMSDP=2.92D-08 MaxDP=1.99D-06 DE=-4.53D-10 OVMax= 4.26D-06

 Cycle  15  Pass 1  IDiag  1:
 RMSU=  1.32D-08    CP:  1.00D+00  1.01D+00  3.68D-01  7.09D-01  9.19D-01
                    CP:  6.37D-01
 E= -1711.52589483393     Delta-E=       -0.000000000094 Rises=F Damp=F
 DIIS: error= 1.25D-07 at cycle   7 NSaved=   7.
 NSaved= 7 IEnMin= 7 EnMin= -1711.52589483393     IErMin= 7 ErrMin= 1.25D-07
 ErrMax= 1.25D-07 EMaxC= 1.00D-01 BMatC= 1.93D-11 BMatP= 1.17D-10
 IDIUse=1 WtCom= 1.00D+00 WtEn= 0.00D+00
 Coeff-Com: -0.365D-04 0.118D-02-0.341D-03 0.866D-02 0.115D+00 0.334D+00
 Coeff-Com:  0.542D+00
 Coeff:     -0.365D-04 0.118D-02-0.341D-03 0.866D-02 0.115D+00 0.334D+00
 Coeff:      0.542D+00
 Gap=     0.192 Goal=   None    Shift=    0.000
 RMSDP=9.87D-09 MaxDP=7.34D-07 DE=-9.37D-11 OVMax= 1.23D-06

 SCF Done:  E(RB3LYP) =  -1711.52589483     A.U. after   15 cycles
             Convg  =    0.9874D-08             -V/T =  2.0050
 KE= 1.703015778137D+03 PE=-9.895494036469D+03 EE= 3.533862869294D+03
 Leave Link  502 at Tue Aug 30 15:03:50 2022, MaxMem=  209715200 cpu:    5040.5
 (Enter /opt/gaussian/l601.exe)
 Copying SCF densities to generalized density rwf, IOpCl= 0 IROHF=0.

 **********************************************************************

            Population analysis using the SCF density.

 **********************************************************************

 Orbital symmetries:
       Occupied  (A) (A) (A) (A) (A) (A) (A) (A) (A) (A) (A) (A)
                 (A) (A) (A) (A) (A) (A) (A) (A) (A) (A) (A) (A)
                 (A) (A) (A) (A) (A) (A) (A) (A) (A) (A) (A) (A)
                 (A) (A) (A) (A) (A) (A) (A) (A) (A) (A) (A) (A)
                 (A) (A) (A) (A) (A) (A) (A) (A) (A) (A) (A) (A)
                 (A) (A) (A) (A) (A) (A) (A) (A) (A) (A) (A) (A)
                 (A) (A) (A) (A) (A) (A) (A) (A) (A) (A) (A) (A)
                 (A) (A) (A) (A) (A) (A) (A) (A) (A) (A) (A) (A)
                 (A) (A) (A) (A) (A) (A) (A) (A) (A) (A) (A) (A)
                 (A) (A) (A) (A) (A)
       Virtual   (A) (A) (A) (A) (A) (A) (A) (A) (A) (A) (A) (A)
                 (A) (A) (A) (A) (A) (A) (A) (A) (A) (A) (A) (A)
                 (A) (A) (A) (A) (A) (A) (A) (A) (A) (A) (A) (A)
                 (A) (A) (A) (A) (A) (A) (A) (A) (A) (A) (A) (A)
                 (A) (A) (A) (A) (A) (A) (A) (A) (A) (A) (A) (A)
                 (A) (A) (A) (A) (A) (A) (A) (A) (A) (A) (A) (A)
                 (A) (A) (A) (A) (A) (A) (A) (A) (A) (A) (A) (A)
                 (A) (A) (A) (A) (A) (A) (A) (A) (A) (A) (A) (A)
                 (A) (A) (A) (A) (A) (A) (A) (A) (A) (A) (A) (A)
                 (A) (A) (A) (A) (A) (A) (A) (A) (A) (A) (A) (A)
                 (A) (A) (A) (A) (A) (A) (A) (A) (A) (A) (A) (A)
                 (A) (A) (A) (A) (A) (A) (A) (A) (A) (A) (A) (A)
                 (A) (A) (A) (A) (A) (A) (A) (A) (A) (A) (A) (A)
                 (A) (A) (A) (A) (A) (A) (A) (A) (A) (A) (A) (A)
                 (A) (A) (A) (A) (A) (A) (A) (A) (A) (A) (A) (A)
                 (A) (A) (A) (A) (A) (A) (A) (A) (A) (A) (A) (A)
                 (A) (A) (A) (A) (A) (A) (A) (A) (A) (A) (A) (A)
                 (A) (A) (A) (A) (A) (A) (A) (A) (A) (A) (A) (A)
                 (A) (A) (A) (A) (A) (A) (A) (A) (A) (A) (A) (A)
                 (A) (A) (A) (A) (A) (A) (A) (A) (A) (A) (A) (A)
                 (A) (A) (A) (A) (A) (A) (A) (A) (A) (A) (A) (A)
                 (A) (A) (A) (A) (A) (A) (A) (A) (A) (A) (A) (A)
                 (A) (A) (A) (A) (A) (A) (A) (A) (A) (A) (A) (A)
                 (A) (A) (A) (A) (A) (A) (A) (A) (A) (A) (A) (A)
                 (A) (A) (A) (A) (A) (A) (A) (A) (A) (A) (A) (A)
                 (A) (A) (A) (A) (A) (A) (A) (A) (A) (A) (A) (A)
                 (A) (A) (A) (A) (A) (A) (A) (A) (A) (A) (A) (A)
                 (A) (A) (A) (A) (A) (A) (A) (A) (A) (A) (A) (A)
                 (A) (A) (A) (A) (A) (A) (A) (A) (A) (A) (A) (A)
                 (A) (A) (A) (A) (A) (A) (A) (A) (A) (A) (A) (A)
                 (A) (A) (A) (A) (A) (A) (A) (A) (A) (A) (A) (A)
                 (A) (A) (A) (A) (A) (A) (A) (A) (A) (A) (A) (A)
                 (A) (A) (A) (A) (A) (A) (A) (A) (A) (A) (A) (A)
                 (A) (A) (A) (A) (A) (A) (A) (A) (A) (A) (A) (A)
                 (A) (A) (A) (A) (A) (A) (A) (A) (A) (A) (A) (A)
                 (A) (A) (A) (A) (A) (A) (A) (A) (A) (A)
 The electronic state is 1-A.
 Alpha  occ. eigenvalues --  -88.91828 -19.11476 -19.11238 -14.40428 -14.38397
 Alpha  occ. eigenvalues --  -14.37958 -14.37733 -14.34124 -10.29761 -10.29643
 Alpha  occ. eigenvalues --  -10.25215 -10.24830 -10.24451 -10.23192 -10.22940
 Alpha  occ. eigenvalues --  -10.22615 -10.22444 -10.21568 -10.21117 -10.20641
 Alpha  occ. eigenvalues --  -10.20312 -10.20121 -10.20092 -10.20080 -10.20001
 Alpha  occ. eigenvalues --  -10.19855 -10.19704 -10.19330 -10.19113 -10.19014
 Alpha  occ. eigenvalues --  -10.18712  -7.97899  -5.94250  -5.93885  -5.93493
 Alpha  occ. eigenvalues --   -1.09799  -1.04994  -1.04513  -0.96190  -0.95494
 Alpha  occ. eigenvalues --   -0.92516  -0.88940  -0.87667  -0.86770  -0.86299
 Alpha  occ. eigenvalues --   -0.78755  -0.78165  -0.77143  -0.76643  -0.75891
 Alpha  occ. eigenvalues --   -0.74616  -0.74161  -0.70234  -0.68495  -0.64810
 Alpha  occ. eigenvalues --   -0.64147  -0.63552  -0.62378  -0.61586  -0.60071
 Alpha  occ. eigenvalues --   -0.59228  -0.58418  -0.57074  -0.55908  -0.54993
 Alpha  occ. eigenvalues --   -0.53730  -0.53206  -0.52824  -0.52377  -0.51704
 Alpha  occ. eigenvalues --   -0.50420  -0.48506  -0.47631  -0.46915  -0.46717
 Alpha  occ. eigenvalues --   -0.46289  -0.45480  -0.44696  -0.44461  -0.44381
 Alpha  occ. eigenvalues --   -0.44233  -0.43884  -0.43480  -0.42759  -0.41877
 Alpha  occ. eigenvalues --   -0.41316  -0.39849  -0.39640  -0.39202  -0.38757
 Alpha  occ. eigenvalues --   -0.38247  -0.38005  -0.37616  -0.37300  -0.36533
 Alpha  occ. eigenvalues --   -0.36305  -0.35653  -0.35425  -0.32950  -0.32451
 Alpha  occ. eigenvalues --   -0.32028  -0.30813  -0.29862  -0.27191  -0.26921
 Alpha  occ. eigenvalues --   -0.26305  -0.26169  -0.25933  -0.25762  -0.25548
 Alpha  occ. eigenvalues --   -0.24847  -0.23308  -0.22685
 Alpha virt. eigenvalues --   -0.03502  -0.03075  -0.02712  -0.01798   0.00911
 Alpha virt. eigenvalues --    0.01005   0.01423   0.02865   0.03378   0.03644
 Alpha virt. eigenvalues --    0.04194   0.04813   0.05967   0.06771   0.07283
 Alpha virt. eigenvalues --    0.07358   0.07983   0.08369   0.09509   0.09987
 Alpha virt. eigenvalues --    0.10689   0.10895   0.11063   0.11471   0.11603
 Alpha virt. eigenvalues --    0.13778   0.13945   0.14679   0.14952   0.15090
 Alpha virt. eigenvalues --    0.15430   0.16510   0.16817   0.17168   0.17907
 Alpha virt. eigenvalues --    0.18719   0.19397   0.19767   0.20800   0.21471
 Alpha virt. eigenvalues --    0.22509   0.23100   0.24122   0.24796   0.25065
 Alpha virt. eigenvalues --    0.25322   0.25955   0.27024   0.27950   0.28624
 Alpha virt. eigenvalues --    0.29273   0.29853   0.30756   0.31158   0.31775
 Alpha virt. eigenvalues --    0.32098   0.33112   0.34355   0.35202   0.36117
 Alpha virt. eigenvalues --    0.36225   0.37453   0.39635   0.40244   0.41093
 Alpha virt. eigenvalues --    0.41589   0.42260   0.42962   0.43868   0.44006
 Alpha virt. eigenvalues --    0.44659   0.44726   0.45076   0.45545   0.46018
 Alpha virt. eigenvalues --    0.46109   0.46321   0.46637   0.47237   0.47345
 Alpha virt. eigenvalues --    0.47603   0.47975   0.48545   0.48754   0.49189
 Alpha virt. eigenvalues --    0.49632   0.50013   0.50100   0.50489   0.50638
 Alpha virt. eigenvalues --    0.50845   0.51179   0.51814   0.51952   0.52412
 Alpha virt. eigenvalues --    0.52806   0.52981   0.53276   0.53878   0.54489
 Alpha virt. eigenvalues --    0.54635   0.54997   0.55459   0.55760   0.56102
 Alpha virt. eigenvalues --    0.56144   0.56663   0.57663   0.57937   0.58659
 Alpha virt. eigenvalues --    0.58822   0.59127   0.60007   0.60623   0.61172
 Alpha virt. eigenvalues --    0.61477   0.61774   0.62312   0.62686   0.63653
 Alpha virt. eigenvalues --    0.64176   0.64856   0.65140   0.65198   0.65278
 Alpha virt. eigenvalues --    0.65560   0.65670   0.65918   0.66552   0.66755
 Alpha virt. eigenvalues --    0.66887   0.67807   0.68113   0.68219   0.68956
 Alpha virt. eigenvalues --    0.69809   0.70255   0.70630   0.71578   0.71868
 Alpha virt. eigenvalues --    0.72300   0.73131   0.73607   0.73710   0.74045
 Alpha virt. eigenvalues --    0.74731   0.75986   0.76713   0.76907   0.78152
 Alpha virt. eigenvalues --    0.78192   0.78609   0.78971   0.80647   0.81506
 Alpha virt. eigenvalues --    0.82739   0.83499   0.83822   0.84447   0.85111
 Alpha virt. eigenvalues --    0.86591   0.86669   0.87582   0.88211   0.88899
 Alpha virt. eigenvalues --    0.89487   0.89934   0.90439   0.91732   0.92363
 Alpha virt. eigenvalues --    0.93297   0.93762   0.94318   0.94632   0.94857
 Alpha virt. eigenvalues --    0.95603   0.96479   0.96876   0.97521   0.98637
 Alpha virt. eigenvalues --    0.99206   0.99577   1.00287   1.00860   1.01515
 Alpha virt. eigenvalues --    1.01904   1.02502   1.03185   1.03918   1.04701
 Alpha virt. eigenvalues --    1.04980   1.05826   1.06082   1.06562   1.06730
 Alpha virt. eigenvalues --    1.07437   1.07879   1.08348   1.09148   1.09983
 Alpha virt. eigenvalues --    1.10378   1.11539   1.12312   1.12671   1.15043
 Alpha virt. eigenvalues --    1.15162   1.15962   1.16829   1.18140   1.18668
 Alpha virt. eigenvalues --    1.19171   1.20180   1.20356   1.20781   1.22253
 Alpha virt. eigenvalues --    1.23280   1.23951   1.24761   1.25408   1.26557
 Alpha virt. eigenvalues --    1.27259   1.28797   1.29470   1.30142   1.31083
 Alpha virt. eigenvalues --    1.31389   1.32079   1.32790   1.34597   1.35906
 Alpha virt. eigenvalues --    1.36322   1.36739   1.38258   1.39518   1.39801
 Alpha virt. eigenvalues --    1.41623   1.42994   1.43134   1.44522   1.46340
 Alpha virt. eigenvalues --    1.46710   1.47269   1.47478   1.48319   1.48389
 Alpha virt. eigenvalues --    1.49565   1.50246   1.50413   1.51405   1.52221
 Alpha virt. eigenvalues --    1.52503   1.52658   1.53063   1.54055   1.55306
 Alpha virt. eigenvalues --    1.55656   1.55839   1.56649   1.56967   1.57266
 Alpha virt. eigenvalues --    1.57814   1.58557   1.59082   1.59604   1.60344
 Alpha virt. eigenvalues --    1.60615   1.61617   1.62058   1.62712   1.63647
 Alpha virt. eigenvalues --    1.64544   1.64975   1.65653   1.65791   1.65990
 Alpha virt. eigenvalues --    1.66504   1.66975   1.67651   1.67874   1.68131
 Alpha virt. eigenvalues --    1.69210   1.69476   1.69720   1.70236   1.70912
 Alpha virt. eigenvalues --    1.71487   1.72492   1.73111   1.73583   1.74318
 Alpha virt. eigenvalues --    1.74872   1.75254   1.76075   1.76609   1.77044
 Alpha virt. eigenvalues --    1.77253   1.78312   1.78520   1.79083   1.79204
 Alpha virt. eigenvalues --    1.79465   1.79915   1.81319   1.82228   1.82468
 Alpha virt. eigenvalues --    1.82997   1.83571   1.84292   1.85010   1.85181
 Alpha virt. eigenvalues --    1.85230   1.86501   1.86666   1.87800   1.88148
 Alpha virt. eigenvalues --    1.88713   1.89254   1.90440   1.90823   1.91175
 Alpha virt. eigenvalues --    1.92145   1.92654   1.92922   1.93886   1.94966
 Alpha virt. eigenvalues --    1.95605   1.96811   1.97346   1.97901   1.99769
 Alpha virt. eigenvalues --    2.00035   2.01490   2.01868   2.01973   2.02611
 Alpha virt. eigenvalues --    2.03219   2.04345   2.04514   2.05637   2.05685
 Alpha virt. eigenvalues --    2.06031   2.07900   2.08425   2.09313   2.09784
 Alpha virt. eigenvalues --    2.10641   2.12617   2.13884   2.14285   2.14760
 Alpha virt. eigenvalues --    2.15361   2.15887   2.16984   2.18372   2.19392
 Alpha virt. eigenvalues --    2.20005   2.20773   2.21294   2.24379   2.25416
 Alpha virt. eigenvalues --    2.26942   2.27805   2.29645   2.30526   2.31433
 Alpha virt. eigenvalues --    2.32542   2.32653   2.36126   2.36605   2.37665
 Alpha virt. eigenvalues --    2.38428   2.39391   2.40907   2.42253   2.42498
 Alpha virt. eigenvalues --    2.43343   2.44065   2.45384   2.46001   2.47740
 Alpha virt. eigenvalues --    2.48284   2.48935   2.50869   2.51202   2.52701
 Alpha virt. eigenvalues --    2.54603   2.54923   2.55422   2.56249   2.57668
 Alpha virt. eigenvalues --    2.58854   2.61644   2.63160   2.65243   2.65512
 Alpha virt. eigenvalues --    2.67003   2.68075   2.69310   2.71124   2.72004
 Alpha virt. eigenvalues --    2.72036   2.73779   2.73950   2.74615   2.75791
 Alpha virt. eigenvalues --    2.78085   2.78862   2.80303   2.81351   2.81726
 Alpha virt. eigenvalues --    2.82633   2.82890   2.86947   2.93668   2.97793
 Alpha virt. eigenvalues --    2.98952   3.00783   3.05665   3.08183   3.09221
 Alpha virt. eigenvalues --    3.10688   3.13463   3.16728   3.18353   3.41999
 Alpha virt. eigenvalues --    3.48123   3.48884   3.52806   3.60782   3.61276
          Condensed to atoms (all electrons):
 Mulliken atomic charges:
              1
     1  O   -0.245922
     2  C    0.106943
     3  C    0.154802
     4  N   -0.229168
     5  N   -0.053665
     6  N   -0.180970
     7  C   -0.002207
     8  C    0.063875
     9  C    0.049312
    10  C    0.051357
    11  C    0.044234
    12  C    0.211678
    13  N   -0.285580
    14  C    0.177275
    15  C   -0.027459
    16  C    0.074409
    17  C   -0.083822
    18  S    0.120917
    19  C   -0.129290
    20  C    0.058806
    21  C    0.091829
    22  C    0.068418
    23  C    0.051234
    24  C    0.036298
    25  C    0.095043
    26  N   -0.092748
    27  C    0.219239
    28  O   -0.282160
    29  C   -0.126174
    30  C    0.041480
    31  C    0.040997
    32  H    0.052969
    33  H    0.047224
    34  H   -0.034240
    35  H   -0.039298
    36  H   -0.038577
    37  H   -0.045083
    38  H    0.032336
    39  H    0.041381
    40  H   -0.038902
    41  H    0.008163
    42  H   -0.000991
    43  H   -0.043957
    44  H   -0.013630
    45  H   -0.044596
    46  H   -0.040710
    47  H    0.068801
    48  H   -0.033326
    49  H    0.033526
    50  H    0.018950
    51  H    0.018299
    52  H    0.032680
 Sum of Mulliken atomic charges =   0.00000
 Mulliken charges with hydrogens summed into heavy atoms:
              1
     1  O   -0.245922
     2  C    0.106943
     3  C    0.254995
     4  N   -0.229168
     5  N   -0.053665
     6  N   -0.180970
     7  C   -0.002207
     8  C    0.029635
     9  C    0.010013
    10  C    0.012779
    11  C   -0.000848
    12  C    0.211678
    13  N   -0.285580
    14  C    0.250992
    15  C   -0.027459
    16  C    0.035507
    17  C   -0.075659
    18  S    0.120917
    19  C   -0.130281
    20  C    0.058806
    21  C    0.047872
    22  C    0.054787
    23  C    0.051234
    24  C   -0.008298
    25  C    0.054332
    26  N   -0.023946
    27  C    0.219239
    28  O   -0.282160
    29  C   -0.159499
    30  C    0.093956
    31  C    0.091976
 Sum of Mulliken charges with hydrogens summed into heavy atoms =   0.00000
 Electronic spatial extent (au):  <R**2>=          20487.6403
 Charge=              0.0000 electrons
 Dipole moment (field-independent basis, Debye):
    X=             -2.9150    Y=              4.8936    Z=              3.8129  Tot=              6.8544
 Quadrupole moment (field-independent basis, Debye-Ang):
   XX=           -180.4674   YY=           -187.4143   ZZ=           -176.3693
   XY=             18.9797   XZ=             -7.9084   YZ=            -17.1134
 Traceless Quadrupole moment (field-independent basis, Debye-Ang):
   XX=              0.9496   YY=             -5.9973   ZZ=              5.0477
   XY=             18.9797   XZ=             -7.9084   YZ=            -17.1134
 Octapole moment (field-independent basis, Debye-Ang**2):
  XXX=           -179.7035  YYY=             65.9629  ZZZ=             17.6330  XYY=             -8.5822
  XXY=            -29.0780  XXZ=            198.5778  XZZ=            -33.5167  YZZ=             19.0919
  YYZ=              0.8924  XYZ=            -28.7749
 Hexadecapole moment (field-independent basis, Debye-Ang**3):
 XXXX=         -19703.2642 YYYY=          -5190.2128 ZZZZ=          -1682.1764 XXXY=            277.1620
 XXXZ=           -485.2764 YYYX=            269.4057 YYYZ=           -138.7195 ZZZX=             49.6092
 ZZZY=            -77.0560 XXYY=          -4234.8465 XXZZ=          -3669.5954 YYZZ=          -1246.7291
 XXYZ=           -365.0125 YYXZ=             87.8730 ZZXY=            105.7172
 N-N= 2.947089494204D+03 E-N=-9.895494112928D+03  KE= 1.703015778137D+03
 No NMR shielding tensors so no spin-rotation constants.
 Leave Link  601 at Tue Aug 30 15:03:51 2022, MaxMem=  209715200 cpu:       3.8
 (Enter /opt/gaussian/l701.exe)
 Compute integral first derivatives.
 ... and contract with generalized density number  0.
 Leave Link  701 at Tue Aug 30 15:03:51 2022, MaxMem=  209715200 cpu:       3.3
 (Enter /opt/gaussian/l702.exe)
 L702 exits ... SP integral derivatives will be done elsewhere.
 Leave Link  702 at Tue Aug 30 15:03:51 2022, MaxMem=  209715200 cpu:       0.2
 (Enter /opt/gaussian/l703.exe)
 Compute integral first derivatives, UseDBF=F ICtDFT=           0.
 Integral derivatives from FoFDir, PRISM(SPDF).
 Calling FoFJK, ICntrl=      2127 FMM=F ISym2X=0 I1Cent= 0 IOpClX= 0 NMat=1 NMatS=1 NMatT=0.
 FoFCou: FMM=F IPFlag=           0 FMFlag=      100000 FMFlg1=         800
         NFxFlg=           0 DoJE=F BraDBF=F KetDBF=F FulRan=T
         Omega=  0.000000  0.000000  1.000000  0.000000  0.000000 ICntrl=    2127 IOpCl=  0
         NMat0=    1 NMatS0=    1 NMatT0=    0 NMatD0=    1 NMtDS0=    0 NMtDT0=    0
         I1Cent=           0 NGrid=           0.
 Symmetry not used in FoFCou.
 Leave Link  703 at Tue Aug 30 15:07:37 2022, MaxMem=  209715200 cpu:    1791.2
 (Enter /opt/gaussian/l716.exe)
 Dipole        =-1.14684682D+00 1.92527713D+00 1.50011474D+00
 ***** Axes restored to original set *****
 -------------------------------------------------------------------
 Center     Atomic                   Forces (Hartrees/Bohr)
 Number     Number              X              Y              Z
 -------------------------------------------------------------------
      1        8           0.000157421    0.000884105   -0.001417560
      2        6          -0.001891037   -0.013373985    0.010302491
      3        6          -0.000467641   -0.004116669    0.003827538
      4        7          -0.000096245    0.000269541    0.000016554
      5        7          -0.011528966    0.009730575   -0.010231383
      6        7           0.015196914   -0.017096353    0.003443056
      7        6           0.001068580   -0.008222768   -0.014125293
      8        6          -0.001722744    0.001467205   -0.001688840
      9        6          -0.004512406    0.006311526    0.001549657
     10        6           0.004436931   -0.005930766   -0.001422719
     11        6          -0.000857821   -0.000842069   -0.004724483
     12        6          -0.007330246    0.010152096    0.004812866
     13        7          -0.004916579    0.007032892   -0.003664227
     14        6           0.003506601   -0.003633390    0.011977925
     15        6          -0.000130540    0.007844699   -0.022311945
     16        6          -0.007321762   -0.019474711   -0.000169827
     17        6           0.001768826   -0.007917751    0.032374132
     18       16          -0.006299837   -0.007691662   -0.023180656
     19        6           0.011977803    0.024746898    0.019721614
     20        6           0.009131053    0.002163164   -0.001764996
     21        6          -0.002585555   -0.000248214    0.002333211
     22        6           0.004066044    0.001333849    0.000040452
     23        6          -0.010052895   -0.002429196    0.004255113
     24        6           0.002046475    0.000482280   -0.002506847
     25        6          -0.002197539   -0.001426350   -0.000732033
     26        7           0.009996308    0.003331850   -0.011250106
     27        6          -0.006132889    0.002626998   -0.020350817
     28        8           0.000576221   -0.000511395    0.002635720
     29        6          -0.003601518    0.000189294   -0.004559200
     30        6           0.002080479    0.006941915    0.003535095
     31        6           0.004473352   -0.006668197    0.001169515
     32        1          -0.000065584    0.001227440   -0.013406007
     33        1           0.004424887    0.012258659    0.004208148
     34        1           0.007685164   -0.011486338   -0.004147956
     35        1           0.008644084   -0.005932657    0.009837514
     36        1           0.000981071    0.005137161    0.013223425
     37        1          -0.007819274    0.011208627    0.003822034
     38        1           0.007483248   -0.001333524   -0.010278017
     39        1          -0.011568436    0.003835110   -0.005128166
     40        1          -0.000889950    0.003174534   -0.014141373
     41        1           0.005641704    0.015291486   -0.000934808
     42        1          -0.002969967   -0.012277049    0.010351377
     43        1           0.002873864    0.001655040   -0.013471641
     44        1          -0.011588004   -0.001390893   -0.009477615
     45        1          -0.002897499   -0.001986584    0.013615885
     46        1           0.010442693    0.000955153    0.009709167
     47        1          -0.000933052   -0.003296598    0.019407320
     48        1           0.000898459   -0.002442704    0.014934674
     49        1           0.003809701   -0.002735778   -0.014185624
     50        1          -0.006413676   -0.008947640    0.009197330
     51        1          -0.008461541    0.002808945    0.011235403
     52        1           0.001885321    0.008352199   -0.012265074
 -------------------------------------------------------------------
 Cartesian Forces:  Max     0.032374132 RMS     0.008635585
 Leave Link  716 at Tue Aug 30 15:07:37 2022, MaxMem=  209715200 cpu:       0.2
 (Enter /opt/gaussian/l103.exe)

 GradGradGradGradGradGradGradGradGradGradGradGradGradGradGradGradGradGrad
 Berny optimization.
 Internal  Forces:  Max     0.022138319 RMS     0.005760951
 Search for a local minimum.
 Step number   1 out of a maximum of  290
 All quantities printed in internal units (Hartrees-Bohrs-Radians)
 RMS Force = .57610D-02 SwitMx=.10000D-02 MixMth= 1
 Mixed Optimization -- RFO/linear search
 Second derivative matrix not updated -- first step.
 ITU=  0
     Eigenvalues ---    0.00448   0.00620   0.00845   0.01009   0.01119
     Eigenvalues ---    0.01178   0.01233   0.01292   0.01304   0.01491
     Eigenvalues ---    0.01568   0.01644   0.01707   0.01830   0.01880
     Eigenvalues ---    0.01921   0.01944   0.02008   0.02064   0.02083
     Eigenvalues ---    0.02096   0.02118   0.02166   0.02167   0.02183
     Eigenvalues ---    0.02183   0.02198   0.02204   0.02232   0.02240
     Eigenvalues ---    0.02252   0.02267   0.02271   0.02273   0.02285
     Eigenvalues ---    0.02285   0.02306   0.02309   0.02342   0.02381
     Eigenvalues ---    0.02478   0.03161   0.03161   0.03581   0.03864
     Eigenvalues ---    0.04655   0.05132   0.06436   0.06604   0.10015
     Eigenvalues ---    0.10406   0.10477   0.10624   0.11312   0.13276
     Eigenvalues ---    0.13538   0.15993   0.15996   0.15999   0.15999
     Eigenvalues ---    0.16000   0.16000   0.16000   0.16000   0.16000
     Eigenvalues ---    0.16000   0.16000   0.16000   0.16000   0.16880
     Eigenvalues ---    0.17215   0.21999   0.22000   0.22000   0.22000
[...]
 -0.00000381,0.00001941,-0.00002310,0.00000878,0.00000283,-0.00000391,0
 .00000075,-0.00000441,0.00000357,0.00000203,0.00000339,-0.00000421,-0.
 00000447,-0.00000325,0.00000399,-0.00000164,-0.00000036,0.00000028,0.0
 0000138,0.00000005,0.00000002,-0.00000057,-0.00000028,0.00000071,0.000
 00043,0.00000069,-0.00000067,0.00000029,0.00000026,-0.00000062,-0.0000
 0147,0.00000132,0.00000020,0.00000381,-0.00002425,0.00000363,0.0000017
 2,-0.00000039,0.00000220,-0.00000264,-0.00000050,0.00000019,0.00000026
 ,-0.00000037,-0.00000023,-0.00000088,-0.00000140,-0.00000072,-0.000000
 04,0.00000054,-0.00000026,0.00000016,-0.00000145,0.00000122,0.00000043
 ,0.00000943,0.00000217,-0.00000650,-0.00000347,0.00001475,0.00000065,-
 0.00000947,-0.00000724,0.00003671,0.00007498,0.00003190,-0.00003992,-0
 .00002180,-0.00000955,0.00000346,-0.00000383,0.00000004,0.00000276,-0.
 00036251,-0.00001484,-0.00017250,0.00181469,0.00163757,-0.00150294,0.0
 0103413,0.00026041,0.00129938,0.00001517,-0.00190630,-0.00938812,0.042
 65465,-0.04977645,-0.32714853,-0.00125851,-0.00003796,0.00105715,-0.00
 000038,-0.00000045,-0.00000074,-0.00000051,0.00000048,0.00000033,-0.00
 000041,0.00000009,0.00000010,-0.00000035,0.00000007,-0.00000034,0.0000
 0016,-0.00000018,0.00000003,0.00000002,0.00000042,0.00000038,-0.000001
 31,-0.00000087,0.00000095,0.00000030,0.00000077,-0.00000123,0.00000059
 ,-0.00000006,0.00000028,0.00000037,-0.00000021,0.00000012,0.00000168,-
 0.00000044,0.00000037,-0.00000033,-0.00000179,0.00000239,-0.00000051,-
 0.00001573,-0.00000188,0.00000422,-0.00000570,0.00000202,-0.00000228,-
 0.00000038,-0.00000027,0.00004389,-0.00008565,0.00003834,-0.00013928,-
 0.00185431,-0.00023886,-0.04284765,0.05479135,0.34297588,-0.00004680,0
 .00006901,-0.00002385,0.00012072,-0.00011794,0.00006072,0.00001697,-0.
 00002075,0.00000361,-0.00002767,0.00001799,0.00000960,0.00001462,-0.00
 002515,-0.00002805,-0.00002036,0.00002178,-0.00000917,-0.00000286,0.00
 000376,0.00000723,0.00000125,-0.00000120,-0.00000106,-0.00000161,0.000
 00242,0.00000005,0.00000264,-0.00000276,0.00000328,-0.00000051,-0.0000
 0270,-0.00000755,0.00001275,-0.00000010,0.00002589,-0.00016561,0.00002
 897,0.00002331,-0.00000513,0.00004576,-0.00003225,0.00000132,0.0000004
 4,0.00000604,-0.00000092,-0.00000535,-0.00001475,-0.00000708,-0.000013
 19,0.00000586,-0.00000202,-0.00000561,-0.00000293,-0.00000224,0.000008
 10,0.00000689,0.00005574,0.00000949,-0.00004561,0.00001152,0.00001636,
 -0.00005031,-0.00008700,-0.00004757,0.00008722,0.00030369,0.00040997,-
 0.00036369,-0.00014467,-0.00002242,0.00010161,-0.00001329,-0.00005537,
 -0.00000242,-0.00157682,-0.00004060,0.00054971,0.00160388,-0.00340694,
 -0.00363720,-0.00056412,0.00000485,0.00091712,-0.01296897,-0.01797057,
 0.01586526,-0.09831150,-0.09912219,0.07549148,0.00678410,0.01141706,-0
 .01238575,-0.00000301,-0.00000043,-0.00000367,-0.00000760,0.00000260,0
 .00000153,-0.00000133,0.00000086,0.00000049,-0.00000174,0.00000087,-0.
 00000148,0.00000035,-0.00000085,-0.00000109,0.00000130,0.00000287,0.00
 000349,-0.00001037,-0.00000965,0.00000530,0.00000079,0.00000536,-0.000
 00904,0.00000123,0.00000107,0.00000108,-0.00000043,-0.00000101,0.00000
 021,0.00000840,0.00000336,0.00000681,-0.00000819,-0.00000671,0.0000169
 3,0.00006824,0.00002470,-0.00004557,0.00000752,0.00000535,-0.00000922,
 -0.00002026,-0.00000763,-0.00000255,-0.00008678,-0.00018413,0.00002695
 ,0.00137043,0.00225577,0.00067413,-0.00121764,-0.00107648,-0.00022080,
 0.10416343,-0.00001348,0.00001458,-0.00000413,0.00003094,-0.00002516,0
 .00001050,0.00000510,-0.00000630,0.00000187,-0.00000745,0.00000542,0.0
 0000272,0.00000436,-0.00000738,-0.00000789,-0.00000636,0.00000627,-0.0
 0000255,-0.00000080,0.00000108,0.00000191,0.00000041,-0.00000061,-0.00
 000033,-0.00000047,0.00000037,0.00000029,0.00000059,-0.00000087,0.0000
 0109,-0.00000025,-0.00000094,-0.00000224,0.00000346,0.00000020,0.00000
 703,-0.00003666,0.00000555,0.00000439,0.00000081,0.00000802,-0.0000059
 6,-0.00000025,0.00000030,0.00000049,-0.00000081,-0.00000092,-0.0000033
 5,-0.00000260,-0.00000204,0.00000116,0.00000058,-0.00000087,-0.0000000
 4,-0.00000226,0.00000228,0.00000214,0.00001788,0.00000206,-0.00001048,
 0.00000220,0.00001232,-0.00000261,-0.00002497,-0.00000295,0.00000860,0
 .00014632,-0.00007164,-0.00000074,-0.00000163,0.00000826,0.00000083,0.
 00000328,-0.00000009,0.00001101,0.00004607,-0.00012446,-0.00011974,0.0
 0151576,0.00022631,-0.00019650,0.00004364,0.00056545,0.00022398,0.0008
 1160,-0.00242950,-0.00158530,-0.09961191,-0.18889618,0.10813923,-0.011
 70752,-0.01630136,0.01367278,-0.00000065,-0.00000022,-0.00000112,-0.00
 000154,0.00000068,0.00000035,-0.00000023,0.00000038,0.00000019,-0.0000
 0037,0.00000038,-0.00000050,0.00000038,-0.00000017,-0.00000023,0.00000
 040,0.00000097,0.00000092,-0.00000249,-0.00000178,0.00000133,0.0000003
 1,0.00000067,-0.00000275,0.00000102,0.00000010,0.00000024,0.00000056,-
 0.00000043,0.00000017,0.00000292,-0.00000010,0.00000125,-0.00000071,-0
 .00000238,0.00000238,0.00000579,-0.00000973,-0.00000482,0.00000236,-0.
 00000459,0.00000245,-0.00000069,-0.00000053,-0.00000154,0.00003772,0.0
 0000352,0.00004257,-0.00090524,0.00040037,-0.00011253,0.00422367,0.005
 70451,-0.00371375,0.10613986,0.20180234,-0.00000589,0.00000632,-0.0000
 0306,0.00001515,-0.00001320,0.00001051,0.00000132,-0.00000192,-0.00000
 061,-0.00000330,0.00000147,0.00000090,0.00000072,-0.00000253,-0.000003
 15,-0.00000181,0.00000162,-0.00000085,-0.00000014,0.00000051,0.0000009
 4,0.00000001,-0.00000012,0.,-0.00000025,0.00000014,-0.00000011,0.00000
 018,-0.00000027,0.00000058,-0.00000025,-0.00000029,-0.00000064,0.00000
 183,-0.00000004,0.00000303,-0.00002303,0.00000452,0.00000804,-0.000002
 58,0.00000998,-0.00000797,0.00000061,-0.00000070,0.00000163,0.00000031
 ,-0.00000103,-0.00000285,-0.00000078,-0.00000305,0.00000105,-0.0000007
 9,-0.00000078,-0.00000035,0.00000065,0.00000120,0.00000107,0.00000137,
 -0.00000080,-0.00001247,0.00001286,-0.00000371,-0.00000032,-0.00003713
 ,-0.00001918,0.00000253,0.00007593,0.00016641,-0.00008630,-0.00003976,
 -0.00000907,0.00002672,0.00000198,-0.00002028,0.00000221,-0.00053337,0
 .00006774,0.00038699,0.00124466,-0.00164001,-0.00398167,0.00085698,0.0
 0074863,0.00208321,-0.00890094,-0.01220368,0.00572185,0.07770481,0.112
 40477,-0.13438771,-0.00339973,-0.00526099,0.00093919,-0.00000065,0.000
 00022,-0.00000031,-0.00000149,0.00000022,0.00000021,0.00000001,0.00000
 014,-0.00000001,-0.00000017,0.00000020,-0.00000013,-0.00000003,-0.0000
 0003,-0.00000029,0.00000033,0.00000038,0.00000046,-0.00000220,-0.00000
 189,0.00000079,0.00000033,0.00000033,-0.00000143,-0.00000035,0.0000002
 5,0.00000025,-0.00000047,0.,-0.00000002,0.00000082,0.00000081,0.000001
 43,-0.00000403,-0.00000174,0.00000310,-0.00001084,0.00001352,0.0000083
 9,0.00000293,0.00000427,0.00000092,-0.00000469,-0.00000140,0.00000040,
 0.00001708,-0.00003654,0.00006884,-0.00051851,0.00098325,0.00124724,0.
 01138602,0.01999443,-0.00814105,-0.07761087,-0.11443866,0.13471773,-0.
 00005320,0.00004833,-0.00001524,0.00011412,-0.00008954,0.00005012,0.00
 001592,-0.00001811,0.00000526,-0.00002645,0.00001563,0.00000838,0.0000
 1114,-0.00002368,-0.00002664,-0.00001900,0.00001875,-0.00000821,-0.000
 00260,0.00000409,0.00000635,0.00000144,-0.00000197,-0.00000039,-0.0000
 0179,0.00000120,-0.00000037,0.00000165,-0.00000269,0.00000387,-0.00000
 201,-0.00000237,-0.00000638,0.00001392,-0.00000014,0.00002489,-0.00015
 867,0.00000840,0.00002170,-0.00000607,0.00005933,-0.00003487,0.0000040
 0,0.00000102,0.00000646,-0.00000071,-0.00000776,-0.00001838,-0.0000061
 0,-0.00001718,0.00000913,-0.00000477,-0.00000750,-0.00000587,0.0000021
 3,0.00000862,0.00000912,0.00006236,0.00000353,-0.00004824,0.00001136,0
 .00003432,-0.00004615,-0.00009405,-0.00001941,0.00009313,0.00039211,-0
 .00005221,-0.00048787,-0.00013316,-0.00008001,0.00008811,-0.00002487,-
 0.00001136,0.00001362,-0.00148149,-0.00058948,0.00037937,0.00090786,0.
 00524599,-0.00138013,-0.00034501,-0.00084976,0.00079897,-0.01590333,0.
 00424680,0.02197073,0.00449448,-0.00019654,-0.01080642,-0.13537212,0.0
 3546026,0.13800415,-0.00000327,0.00000049,-0.00000299,-0.00000910,0.00
 000251,0.00000107,-0.00000060,0.00000114,0.00000036,-0.00000123,0.0000
 0129,-0.00000143,0.00000054,-0.00000024,-0.00000153,0.00000204,0.00000
 344,0.00000352,-0.00001049,-0.00001150,0.00000493,0.00000063,0.0000051
 7,-0.00000832,0.00000033,0.00000187,0.00000085,-0.00000173,-0.00000077
 ,0.00000023,0.00000641,0.00000635,0.00000840,-0.00000868,-0.00000369,0
 .00001809,0.00006939,0.00001534,-0.00004723,0.00000702,0.00000729,-0.0
 0000778,-0.00002213,0.00000075,-0.00000078,-0.00010983,0.00010402,0.00
 012141,0.00163006,-0.00203347,-0.00055016,0.00118328,-0.00247558,-0.00
 072444,-0.00031707,0.00135695,0.00025095,0.14436918,0.00000359,0.00000
 088,0.00000011,-0.00000597,0.00000022,-0.00000050,-0.00000128,0.000001
 77,-0.00000065,0.00000172,-0.00000136,-0.00000066,-0.00000075,0.000001
 88,0.00000199,0.00000169,-0.00000131,0.00000052,0.00000013,-0.00000033
 ,-0.00000046,-0.00000018,0.00000029,0.00000003,0.00000006,0.00000007,-
 0.00000015,-0.00000006,0.00000022,-0.00000028,0.00000012,0.00000029,0.
 00000052,-0.00000092,-0.00000012,-0.00000158,0.00000415,0.00000041,-0.
 00000320,0.00000064,-0.00000167,0.00000229,0.00000038,0.00000044,-0.00
 000039,-0.00000004,-0.00000010,0.00000028,0.00000079,0.00000003,0.0000
 0067,-0.00000064,-0.00000017,-0.00000068,0.00000107,-0.00000005,-0.000
 00022,-0.00000311,-0.00000237,0.00000428,-0.00000634,0.00000549,-0.000
 00730,0.00001842,-0.00000230,0.00001076,-0.00007243,-0.00005638,-0.000
 07353,-0.00001293,-0.00000194,0.00001138,-0.00000800,0.00000581,-0.000
 00901,-0.00010437,-0.00009092,-0.00001597,-0.00141209,-0.00097923,0.00
 113875,-0.00086276,0.00111149,-0.00049065,0.00199966,-0.00426099,-0.00
 036458,0.01599717,-0.00469346,-0.02133731,0.03444160,-0.05504579,-0.03
 728756,0.00000011,-0.00000014,0.00000025,0.00000039,-0.00000011,0.0000
 0003,-0.00000001,-0.00000015,-0.00000010,0.00000010,-0.00000015,0.0000
 0018,-0.00000019,0.00000007,0.00000005,-0.00000012,-0.00000032,-0.0000
 0017,0.00000055,0.00000020,-0.00000043,0.,-0.00000017,0.00000052,-0.00
 000014,0.,-0.00000025,-0.00000027,0.00000016,0.,-0.00000085,0.00000041
 ,0.00000004,0.00000095,-0.00000132,-0.00000040,0.00001764,0.00000198,-
 0.00001316,-0.00000148,-0.00000037,-0.00000544,-0.00000175,-0.00000021
 ,0.00000069,-0.00007007,0.00004128,-0.00004554,0.00118310,0.00079884,-
 0.00010137,0.00310696,-0.00364545,0.00063691,-0.00186472,0.00210818,-0
 .00053001,-0.03980906,0.05817587,-0.00000234,0.00001006,-0.00000312,0.
 00000943,-0.00001353,0.00000836,0.00000058,-0.00000126,-0.00000070,-0.
 00000162,0.00000095,0.00000076,0.00000124,-0.00000121,-0.00000140,-0.0
 0000054,0.00000120,-0.00000055,0.,-0.00000006,0.00000061,-0.00000015,0
 .00000034,-0.00000023,-0.00000006,0.00000057,0.,0.00000048,-0.00000014
 ,0.00000005,0.00000036,-0.00000008,-0.00000050,0.00000034,0.00000002,0
 .00000146,-0.00001459,0.00000084,0.00000351,-0.00000307,0.00000225,-0.
 00000506,-0.00000035,-0.00000128,0.00000162,0.00000046,0.00000049,-0.0
 0000069,-0.00000038,-0.00000086,-0.00000035,-0.00000008,-0.00000004,0.
 00000077,-0.00000006,0.00000025,-0.00000057,-0.00000181,-0.00000142,-0
 .00001044,0.00000657,0.00001596,0.00000417,-0.00002589,0.00000669,0.00
 000680,0.00004444,-0.00011696,-0.00018826,-0.00003960,-0.00001613,0.00
 003091,-0.00000986,0.00001244,0.00000661,-0.00049816,-0.00045607,0.000
 26293,-0.00028493,0.00335632,-0.00206357,0.00084044,-0.00102329,0.0013
 2682,-0.01054555,0.00279657,0.01053444,0.00424419,0.00067180,-0.008421
 48,0.14095349,-0.04079992,-0.23138177,-0.00000058,-0.00000023,-0.00000
 020,-0.00000033,0.00000015,0.00000030,-0.00000027,-0.00000009,-0.00000
 005,-0.00000025,-0.00000010,-0.00000001,-0.00000024,-0.00000016,0.0000
 0001,-0.00000011,-0.00000008,0.00000020,-0.00000131,-0.00000080,0.0000
 0060,0.00000026,0.00000020,-0.00000056,-0.00000020,-0.00000021,0.00000
 011,0.00000003,0.,-0.00000020,0.00000032,0.00000010,0.00000058,-0.0000
 0358,-0.00000128,0.00000226,-0.00000307,-0.00001944,-0.00000140,0.0000
 0291,-0.00000359,-0.00000373,-0.00000471,-0.00000158,0.00000151,-0.000
 01866,0.00001401,0.00005481,0.00037299,-0.00121395,0.00058232,0.001228
 34,-0.00203872,0.00065217,-0.00086541,0.00096154,0.00128469,-0.1454604
 1,0.04492465,0.23834749,0.00002036,-0.00002366,0.00000524,-0.00004379,
 0.00003913,-0.00001201,-0.00000708,0.00000826,-0.00000337,0.00001050,-
 0.00000785,-0.00000403,-0.00000582,0.00001034,0.00001119,0.00000845,-0
 .00000839,0.00000367,0.00000093,-0.00000158,-0.00000298,-0.00000042,0.
 00000061,0.00000053,0.00000074,-0.00000086,-0.00000031,-0.00000104,0.0
 0000124,-0.00000126,0.00000006,0.00000129,0.00000306,-0.00000476,-0.00
 000036,-0.00001003,0.00005672,-0.00000786,0.00000181,-0.00000393,-0.00
 001120,0.00000510,0.00000030,-0.00000203,0.00000017,0.00000113,0.00000
 111,0.00000486,0.00000351,0.00000359,-0.00000151,-0.00000053,0.0000014
 9,0.00000030,0.00000353,-0.00000312,-0.00000330,-0.00004026,-0.0000072
 6,0.00000750,0.00002906,-0.00001862,0.00005036,-0.00004421,0.00000488,
 -0.00007332,0.00007822,0.00013996,0.00013409,0.00000582,0.00002144,-0.
 00004650,0.00002588,-0.00001286,0.00001042,0.00015698,-0.00009025,0.00
 058640,0.00129823,0.00035276,-0.00561251,0.00110985,-0.00166166,0.0018
 4733,-0.00233453,0.01914483,-0.02040576,-0.00290956,-0.00512039,0.0075
 3244,-0.03893211,-0.00491105,0.01492041,0.00000084,0.00000035,0.000001
 61,0.00000182,-0.00000119,-0.00000042,0.00000044,-0.00000048,-0.000000
 19,0.00000063,-0.00000046,0.00000070,-0.00000031,0.00000030,0.00000036
 ,-0.00000047,-0.00000116,-0.00000128,0.00000360,0.00000216,-0.00000180
 ,-0.00000091,-0.00000204,0.00000465,-0.00000137,-0.00000034,-0.0000004
 3,-0.00000047,0.00000040,-0.00000020,-0.00000457,0.00000015,-0.0000021
 9,-0.00000250,0.00000392,-0.00000420,-0.00007753,-0.00000797,0.0000786
 4,0.00000480,0.00000465,0.00001287,0.00000560,0.00000118,0.00000046,0.
 00035784,0.00014370,0.00006855,-0.00282519,0.00382847,0.00066382,-0.00
 004806,0.00169410,-0.00004235,0.00107271,-0.00207554,-0.00047379,0.000
 81816,-0.01254045,0.01008129,0.04221269,-0.00000300,0.00000689,-0.0000
 0308,0.00000906,-0.00001165,0.00000635,0.00000129,-0.00000093,0.000000
 49,-0.00000181,0.00000086,0.00000039,0.00000074,-0.00000142,-0.0000017
 8,-0.00000120,0.00000152,-0.00000060,-0.00000035,0.00000033,0.00000031
 ,0.00000018,-0.00000004,0.00000009,-0.00000002,0.00000019,-0.00000026,
 0.00000014,-0.00000004,0.00000011,-0.00000006,0.,-0.00000039,0.0000010
 2,-0.00000024,0.00000183,-0.00001626,-0.00000171,-0.00000147,-0.000001
 59,0.00000601,-0.00000257,0.00000061,0.00000029,0.00000075,0.00000021,
 -0.00000103,-0.00000131,0.00000010,-0.00000180,0.00000091,-0.00000092,
 -0.00000101,-0.00000123,0.00000102,0.00000041,0.00000070,0.00000279,-0
 .00000218,0.00000836,-0.00001671,0.00001585,-0.00001594,-0.00001834,-0
 .00001608,0.00004218,0.00016009,-0.00003302,0.00005250,-0.00000643,0.0
 0000472,-0.00003270,0.00000940,0.00000600,0.00000382,0.00000692,0.0000
 2216,-0.00062530,0.00018468,-0.00024428,0.00320461,-0.00155592,0.00043
 760,-0.00119111,0.00066338,-0.00206603,-0.00182456,-0.00012325,-0.0170
 5929,0.01831028,-0.00061910,-0.18002092,0.14687385,-0.00000022,0.00000
 006,-0.00000014,-0.00000086,0.00000023,0.00000005,-0.00000014,-0.00000
 003,0.00000005,-0.00000015,-0.00000003,-0.00000002,-0.00000009,-0.0000
 0010,-0.00000012,0.00000008,0.00000011,0.00000027,-0.00000041,-0.00000
 118,0.00000032,-0.00000019,0.00000127,-0.00000010,-0.00000032,0.000000
 33,0.00000005,-0.00000057,-0.00000001,0.,0.00000010,0.00000099,0.00000
 059,0.00000082,0.00000047,0.00000242,0.00003613,0.00000315,-0.00002796
 ,-0.00000057,-0.00000386,-0.00000160,0.00000074,0.00000104,-0.00000174
 ,-0.00001169,-0.00000465,-0.00007965,-0.00104390,-0.00003793,-0.000653
 31,-0.00191825,0.00169834,0.00005668,0.00351340,-0.00298939,-0.0002194
 1,-0.00035887,0.00653061,-0.00706490,0.00110832,0.19375938,-0.00001187
 ,0.00000473,-0.00000081,0.00002108,-0.00001260,0.00000789,0.00000277,-
 0.00000276,0.00000151,-0.00000553,0.00000281,0.00000160,0.00000103,-0.
 00000446,-0.00000524,-0.00000309,0.00000272,-0.00000147,-0.00000031,0.
 00000084,0.00000128,0.00000033,-0.00000055,0.00000008,-0.00000042,0.,-
 0.00000011,0.00000011,-0.00000072,0.00000064,-0.00000083,-0.00000046,-
 0.00000084,0.00000313,0.00000006,0.00000478,-0.00003388,-0.00000070,0.
 00000282,-0.00000110,0.00001873,-0.00000681,0.00000202,0.00000094,0.00
 000150,0.00000013,-0.00000263,-0.00000445,-0.00000053,-0.00000567,0.00
 000284,-0.00000244,-0.00000253,-0.00000318,0.00000303,0.00000205,0.000
 00231,0.00001496,-0.00000082,-0.00000117,-0.00001135,-0.00000379,-0.00
 002043,-0.00001678,-0.00002337,0.00007466,0.00018862,-0.00001639,-0.00
 003569,-0.00003363,-0.00000207,-0.00000992,0.00000084,-0.00000468,0.00
 000076,-0.00044763,0.00003807,-0.00061350,0.00240221,-0.00032646,0.000
 01846,0.00034966,-0.00037258,0.00035196,-0.00064729,0.00482733,-0.0075
 6287,-0.00121673,-0.01102862,0.01166429,0.01175622,0.15084697,-0.20376
 747,-0.00000057,0.00000047,-0.00000032,-0.00000254,0.00000063,0.000000
 04,-0.00000001,0.00000032,0.00000006,-0.00000018,0.00000038,-0.0000004
 2,0.00000021,0.00000016,-0.00000043,0.00000067,0.00000099,0.00000056,-
 0.00000180,-0.00000333,0.00000101,0.,0.00000202,-0.00000076,-0.0000004
 3,0.00000092,0.00000026,-0.00000121,0.00000001,0.00000012,0.00000027,0
 .00000259,0.00000203,-0.00000004,0.00000027,0.00000533,0.00002262,0.00
 001841,-0.00001794,0.00000210,0.00000361,0.00000371,-0.00000325,0.0000
 0041,-0.00000192,-0.00000414,0.00005883,0.00004072,-0.00111103,0.00157
 296,0.00044583,-0.00113886,0.00055267,0.00056491,0.00147248,-0.0028856
 8,0.00010638,-0.00221296,0.01355667,-0.01103200,-0.00933407,-0.1568167
 0,0.20977944\\0.00000055,-0.00000638,0.00000113,0.00000198,0.00000662,
 -0.00000615,-0.00000432,-0.00000066,0.00000141,-0.00000070,-0.00000661
 ,-0.00000947,-0.00000315,0.00000998,-0.00000042,-0.00000020,-0.0000043
 4,-0.00000620,-0.00000251,0.00000249,-0.00000326,-0.00000017,-0.000001
 39,-0.00000179,0.00000054,-0.00000463,-0.00000663,-0.00000183,-0.00000
 158,-0.00000378,0.00000119,-0.00000325,-0.00000014,0.00000347,-0.00000
 301,0.00000099,-0.00000203,0.00000382,0.00000628,-0.00000024,-0.000004
 04,0.00000083,0.00000035,-0.00000009,0.00000892,0.00000155,0.00000383,
 0.00000706,-0.00000170,-0.00000503,0.00000070,0.00000233,-0.00000056,0
 .00000682,0.00000143,0.00000006,-0.00000430,0.00000184,0.00000038,-0.0
 0000358,0.00000216,0.00000268,0.00000185,0.00000019,0.00000187,0.00000
 142,0.00000122,-0.00000126,-0.00000061,-0.00000268,-0.00000048,-0.0000
 0195,0.00000115,-0.00000018,0.00000084,-0.00000588,0.00000313,-0.00000
 189,0.00000379,0.00000086,0.00000931,-0.00000370,0.00000287,-0.0000051
 3,-0.00000216,0.00000219,-0.00000208,-0.00000013,0.00000256,0.00000016
 ,0.00000198,-0.00000062,0.00000052,-0.00000071,0.00000132,-0.00000321,
 0.00000136,0.00000288,0.00000053,0.00000077,-0.00000368,-0.00000625,0.
 00000112,-0.00000495,-0.00000264,0.00000084,-0.00000438,-0.00000024,-0
 .00000119,-0.00000100,-0.00000073,0.00000126,0.00000152,-0.00000019,-0
 .00000159,0.00000364,0.00000126,0.00000132,0.00000388,0.00000166,0.000
 00240,0.00000242,0.00000487,-0.00000046,-0.00000370,0.00000355,-0.0000
 0137,0.00000313,-0.00000139,-0.00000058,0.00000278,-0.00000044,0.00000
 085,-0.00000246,0.00000222,0.00000075,-0.00000148,0.00000092,0.0000013
 7,-0.00000302,0.00000317,0.00000179,-0.00000073,0.00000296,-0.00000036
 ,0.00000188,-0.00000255,-0.00000159,-0.00000064,0.00000092,-0.00000077
 ,-0.00000007,0.00000419,0.00000046,0.00000340,0.00000056\\\@


 GROWING OLD ISN'T SO BAD -- WHEN YOU CONSIDER THE ALTERNATIVE.

                     -- MAURICE CHEVALIER
 Job cpu time:  0 days 17 hours 30 minutes  2.2 seconds.
 File lengths (MBytes):  RWF=   1722 Int=      0 D2E=      0 Chk=     24 Scr=      1
 Normal termination of Gaussian 09 at Tue Aug 30 20:42:58 2022.
