 Entering Gaussian System, Link 0=g09
 Input=Mol08.gjf
 Output=Mol08.log
 Initial command:
 /opt/gaussian/l1.exe /home/scr/lqcapf-6/Gau-40397.inp -scrdir=/home/scr/lqcapf-6/
 Entering Link 1 = /opt/gaussian/l1.exe PID=     40399.
  
 Copyright (c) 1988,1990,1992,1993,1995,1998,2003,2009,2011,
            Gaussian, Inc.  All Rights Reserved.
  
 This is part of the Gaussian(R) 09 program.  It is based on
 the Gaussian(R) 03 system (copyright 2003, Gaussian, Inc.),
 the Gaussian(R) 98 system (copyright 1998, Gaussian, Inc.),
 the Gaussian(R) 94 system (copyright 1995, Gaussian, Inc.),
 the Gaussian 92(TM) system (copyright 1992, Gaussian, Inc.),
 the Gaussian 90(TM) system (copyright 1990, Gaussian, Inc.),
 the Gaussian 88(TM) system (copyright 1988, Gaussian, Inc.),
 the Gaussian 86(TM) system (copyright 1986, Carnegie Mellon
 University), and the Gaussian 82(TM) system (copyright 1983,
 Carnegie Mellon University). Gaussian is a federally registered
 trademark of Gaussian, Inc.
  
 This software contains proprietary and confidential information,
 including trade secrets, belonging to Gaussian, Inc.
  
 This software is provided under written license and may be
 used, copied, transmitted, or stored only in accord with that
 written license.
  
 The following legend is applicable only to US Government
 contracts under FAR:
  
                    RESTRICTED RIGHTS LEGEND
  
 Use, reproduction and disclosure by the US Government is
 subject to restrictions as set forth in subparagraphs (a)
 and (c) of the Commercial Computer Software - Restricted
 Rights clause in FAR 52.227-19.
  
 Gaussian, Inc.
 340 Quinnipiac St., Bldg. 40, Wallingford CT 06492
  
  
 ---------------------------------------------------------------
 Warning -- This program may not be used in any manner that
 competes with the business of Gaussian, Inc. or will provide
 assistance to any competitor of Gaussian, Inc.  The licensee
 of this program is prohibited from giving any competitor of
 Gaussian, Inc. access to this program.  By using this program,
 the user acknowledges that Gaussian, Inc. is engaged in the
 business of creating and licensing software in the field of
 computational chemistry and represents and warrants to the
 licensee that it is not a competitor of Gaussian, Inc. and that
 it will not use this program in any manner prohibited above.
 ---------------------------------------------------------------
  

 Cite this work as:
 Gaussian 09, Revision C.01,
 M. J. Frisch, G. W. Trucks, H. B. Schlegel, G. E. Scuseria, 
 M. A. Robb, J. R. Cheeseman, G. Scalmani, V. Barone, B. Mennucci, 
 G. A. Petersson, H. Nakatsuji, M. Caricato, X. Li, H. P. Hratchian, 
 A. F. Izmaylov, J. Bloino, G. Zheng, J. L. Sonnenberg, M. Hada, 
 M. Ehara, K. Toyota, R. Fukuda, J. Hasegawa, M. Ishida, T. Nakajima, 
 Y. Honda, O. Kitao, H. Nakai, T. Vreven, J. A. Montgomery, Jr., 
 J. E. Peralta, F. Ogliaro, M. Bearpark, J. J. Heyd, E. Brothers, 
 K. N. Kudin, V. N. Staroverov, T. Keith, R. Kobayashi, J. Normand, 
 K. Raghavachari, A. Rendell, J. C. Burant, S. S. Iyengar, J. Tomasi, 
 M. Cossi, N. Rega, J. M. Millam, M. Klene, J. E. Knox, J. B. Cross, 
 V. Bakken, C. Adamo, J. Jaramillo, R. Gomperts, R. E. Stratmann, 
 O. Yazyev, A. J. Austin, R. Cammi, C. Pomelli, J. W. Ochterski, 
 R. L. Martin, K. Morokuma, V. G. Zakrzewski, G. A. Voth, 
 P. Salvador, J. J. Dannenberg, S. Dapprich, A. D. Daniels, 
 O. Farkas, J. B. Foresman, J. V. Ortiz, J. Cioslowski, 
 and D. J. Fox, Gaussian, Inc., Wallingford CT, 2010.
 
 ******************************************
 Gaussian 09:  EM64L-G09RevC.01 23-Sep-2011
                31-Aug-2022 
 ******************************************
 %nprocshared=8
 Will use up to    8 processors via shared memory.
 %mem=1600MB
 -------------------------
 #p opt freq b3lyp/cc-pvdz
 -------------------------
 1/14=-1,18=20,19=15,26=3,38=1/1,3;
 2/9=110,12=2,17=6,18=5,40=1/2;
 3/5=16,11=2,16=1,25=1,30=1,71=1,74=-5/1,2,3;
 4//1;
 5/5=2,38=5/2;
 6/7=2,8=2,9=2,10=2,28=1/1;
 7//1,2,3,16;
 1/14=-1,18=20,19=15/3(2);
 2/9=110/2;
 99//99;
 2/9=110/2;
 3/5=16,11=2,16=1,25=1,30=1,71=1,74=-5/1,2,3;
 4/5=5,16=3/1;
 5/5=2,38=5/2;
 7//1,2,3,16;
 1/14=-1,18=20,19=15/3(-5);
 2/9=110/2;
 6/7=2,8=2,9=2,10=2,19=2,28=1/1;
 99/9=1/99;
 Leave Link    1 at Wed Aug 31 03:38:07 2022, MaxMem=  209715200 cpu:       0.2
 (Enter /opt/gaussian/l101.exe)
 ---------
 Mol08.log
 ---------
 Charge =  0 Multiplicity = 1
 Symbolic Z-Matrix:
 O                     3.34416  -2.44496   0.17114 
 C                     2.23192  -1.92331   0.14415 
 C                     1.13016  -2.57592   0.96722 
 N                    -0.09713  -2.81183   0.24603 
 N                    -0.06457  -3.37014  -0.99353 
 N                    -1.25055  -3.54332  -1.41481 
 C                    -2.13682  -3.11138  -0.44285 
 C                    -1.39417  -2.64023   0.63315 
 C                    -2.01097  -2.1346    1.78198 
 C                    -3.38526  -2.12505   1.78825 
 C                    -4.14469  -2.60181   0.69553 
 C                    -3.53156  -3.09898  -0.42829 
 N                     1.99023  -0.78122  -0.5477 
 C                     3.09212  -0.23437  -1.36785 
 C                     3.9832    0.72174  -0.6152 
 C                     5.03643   0.33737   0.12878 
 S                     5.86776   1.72383   0.89091 
 C                     4.69041   2.83006   0.12198 
 C                     3.79224   2.15866  -0.61471 
 C                     0.79277  -0.00531  -0.43888 
 C                    -0.14121  -0.01743  -1.46717 
 C                    -1.28194   0.7606   -1.37918 
 C                    -1.5181    1.56598  -0.26392 
 C                    -0.56811   1.5806    0.75432 
 C                     0.58095   0.80824   0.66527 
 C                    -2.75432   2.38188  -0.16546 
 C                    -2.70902   3.71294   0.24348 
 N                    -3.792     4.47687   0.34987 
 C                    -4.98352   3.96276   0.05207 
 C                    -5.13316   2.65094  -0.36724 
 C                    -4.00582   1.85242  -0.47471 
 H                     0.90054  -1.9563    1.82182 
 H                     1.54462  -3.5085    1.3158 
 H                    -1.44968  -1.76909   2.61807 
 H                    -3.90169  -1.74641   2.64881 
 H                    -5.21474  -2.57749   0.75727 
 H                    -4.08721  -3.47121  -1.2653 
 H                     3.66552  -1.06969  -1.73296 
 H                     2.64201   0.2643   -2.21429 
 H                     5.37867  -0.65814   0.3 
 H                     4.76875   3.88227   0.27668 
 H                     3.00508   2.64054  -1.15907 
 H                     0.02275  -0.64614  -2.31991 
 H                    -1.98927   0.74826  -2.18527 
 H                    -0.72915   2.18594   1.62512 
 H                     1.31659   0.8438    1.44552 
 H                    -1.7753    4.18303   0.47658 
 H                    -5.82477   4.61662   0.15364 
 H                    -6.10563   2.26335  -0.59583 
 H                    -4.09548   0.82598  -0.77372 
 
 NAtoms=     50 NQM=        0 NQMF=       0 NMMI=     50 NMMIF=      0
                NMic=       0 NMicF=      0.
                    Isotopes and Nuclear Properties:
 (Nuclear quadrupole moments (NQMom) in fm**2, nuclear magnetic moments (NMagM)
  in nuclear magnetons)

  Atom         1           2           3           4           5           6           7           8           9          10
 IAtWgt=          16          12          12          14          14          14          12          12          12          12
 AtmWgt=  15.9949146  12.0000000  12.0000000  14.0030740  14.0030740  14.0030740  12.0000000  12.0000000  12.0000000  12.0000000
 NucSpn=           0           0           0           2           2           2           0           0           0           0
 AtZEff=   0.0000000   0.0000000   0.0000000   0.0000000   0.0000000   0.0000000   0.0000000   0.0000000   0.0000000   0.0000000
 NQMom=    0.0000000   0.0000000   0.0000000   2.0440000   2.0440000   2.0440000   0.0000000   0.0000000   0.0000000   0.0000000
 NMagM=    0.0000000   0.0000000   0.0000000   0.4037610   0.4037610   0.4037610   0.0000000   0.0000000   0.0000000   0.0000000

  Atom        11          12          13          14          15          16          17          18          19          20
 IAtWgt=          12          12          14          12          12          12          32          12          12          12
 AtmWgt=  12.0000000  12.0000000  14.0030740  12.0000000  12.0000000  12.0000000  31.9720718  12.0000000  12.0000000  12.0000000
 NucSpn=           0           0           2           0           0           0           0           0           0           0
 AtZEff=   0.0000000   0.0000000   0.0000000   0.0000000   0.0000000   0.0000000   0.0000000   0.0000000   0.0000000   0.0000000
 NQMom=    0.0000000   0.0000000   2.0440000   0.0000000   0.0000000   0.0000000   0.0000000   0.0000000   0.0000000   0.0000000
 NMagM=    0.0000000   0.0000000   0.4037610   0.0000000   0.0000000   0.0000000   0.0000000   0.0000000   0.0000000   0.0000000

  Atom        21          22          23          24          25          26          27          28          29          30
 IAtWgt=          12          12          12          12          12          12          12          14          12          12
 AtmWgt=  12.0000000  12.0000000  12.0000000  12.0000000  12.0000000  12.0000000  12.0000000  14.0030740  12.0000000  12.0000000
 NucSpn=           0           0           0           0           0           0           0           2           0           0
 AtZEff=   0.0000000   0.0000000   0.0000000   0.0000000   0.0000000   0.0000000   0.0000000   0.0000000   0.0000000   0.0000000
 NQMom=    0.0000000   0.0000000   0.0000000   0.0000000   0.0000000   0.0000000   0.0000000   2.0440000   0.0000000   0.0000000
 NMagM=    0.0000000   0.0000000   0.0000000   0.0000000   0.0000000   0.0000000   0.0000000   0.4037610   0.0000000   0.0000000

  Atom        31          32          33          34          35          36          37          38          39          40
 IAtWgt=          12           1           1           1           1           1           1           1           1           1
 AtmWgt=  12.0000000   1.0078250   1.0078250   1.0078250   1.0078250   1.0078250   1.0078250   1.0078250   1.0078250   1.0078250
 NucSpn=           0           1           1           1           1           1           1           1           1           1
 AtZEff=   0.0000000   0.0000000   0.0000000   0.0000000   0.0000000   0.0000000   0.0000000   0.0000000   0.0000000   0.0000000
 NQMom=    0.0000000   0.0000000   0.0000000   0.0000000   0.0000000   0.0000000   0.0000000   0.0000000   0.0000000   0.0000000
 NMagM=    0.0000000   2.7928460   2.7928460   2.7928460   2.7928460   2.7928460   2.7928460   2.7928460   2.7928460   2.7928460

  Atom        41          42          43          44          45          46          47          48          49          50
 IAtWgt=           1           1           1           1           1           1           1           1           1           1
 AtmWgt=   1.0078250   1.0078250   1.0078250   1.0078250   1.0078250   1.0078250   1.0078250   1.0078250   1.0078250   1.0078250
 NucSpn=           1           1           1           1           1           1           1           1           1           1
 AtZEff=   0.0000000   0.0000000   0.0000000   0.0000000   0.0000000   0.0000000   0.0000000   0.0000000   0.0000000   0.0000000
 NQMom=    0.0000000   0.0000000   0.0000000   0.0000000   0.0000000   0.0000000   0.0000000   0.0000000   0.0000000   0.0000000
 NMagM=    2.7928460   2.7928460   2.7928460   2.7928460   2.7928460   2.7928460   2.7928460   2.7928460   2.7928460   2.7928460
 Leave Link  101 at Wed Aug 31 03:38:07 2022, MaxMem=  209715200 cpu:       0.9
 (Enter /opt/gaussian/l103.exe)

 GradGradGradGradGradGradGradGradGradGradGradGradGradGradGradGradGradGrad
 Berny optimization.
 Initialization pass.
                           ----------------------------
                           !    Initial Parameters    !
                           ! (Angstroms and Degrees)  !
 --------------------------                            --------------------------
 ! Name  Definition              Value          Derivative Info.                !
 --------------------------------------------------------------------------------
 ! R1    R(1,2)                  1.2288         estimate D2E/DX2                !
 ! R2    R(2,3)                  1.5222         estimate D2E/DX2                !
 ! R3    R(2,13)                 1.357          estimate D2E/DX2                !
 ! R4    R(3,4)                  1.4429         estimate D2E/DX2                !
 ! R5    R(3,32)                 1.0803         estimate D2E/DX2                !
 ! R6    R(3,33)                 1.0784         estimate D2E/DX2                !
 ! R7    R(4,5)                  1.3599         estimate D2E/DX2                !
 ! R8    R(4,8)                  1.3644         estimate D2E/DX2                !
 ! R9    R(5,6)                  1.2704         estimate D2E/DX2                !
 ! R10   R(6,7)                  1.3845         estimate D2E/DX2                !
 ! R11   R(7,8)                  1.3897         estimate D2E/DX2                !
 ! R12   R(7,12)                 1.3949         estimate D2E/DX2                !
 ! R13   R(8,9)                  1.3985         estimate D2E/DX2                !
 ! R14   R(9,10)                 1.3743         estimate D2E/DX2                !
 ! R15   R(9,34)                 1.0713         estimate D2E/DX2                !
 ! R16   R(10,11)                1.4135         estimate D2E/DX2                !
 ! R17   R(10,35)                1.0727         estimate D2E/DX2                !
 ! R18   R(11,12)                1.3733         estimate D2E/DX2                !
 ! R19   R(11,36)                1.0721         estimate D2E/DX2                !
 ! R20   R(12,37)                1.0714         estimate D2E/DX2                !
 ! R21   R(13,14)                1.4785         estimate D2E/DX2                !
 ! R22   R(13,20)                1.431          estimate D2E/DX2                !
 ! R23   R(14,15)                1.5082         estimate D2E/DX2                !
 ! R24   R(14,38)                1.077          estimate D2E/DX2                !
 ! R25   R(14,39)                1.0806         estimate D2E/DX2                !
 ! R26   R(15,16)                1.3456         estimate D2E/DX2                !
 ! R27   R(15,19)                1.4496         estimate D2E/DX2                !
 ! R28   R(16,17)                1.7872         estimate D2E/DX2                !
 ! R29   R(16,40)                1.0665         estimate D2E/DX2                !
 ! R30   R(17,18)                1.7892         estimate D2E/DX2                !
 ! R31   R(18,19)                1.3417         estimate D2E/DX2                !
 ! R32   R(18,41)                1.0664         estimate D2E/DX2                !
 ! R33   R(19,42)                1.0715         estimate D2E/DX2                !
 ! R34   R(20,21)                1.3892         estimate D2E/DX2                !
 ! R35   R(20,25)                1.3878         estimate D2E/DX2                !
 ! R36   R(21,22)                1.3836         estimate D2E/DX2                !
 ! R37   R(21,43)                1.0721         estimate D2E/DX2                !
 ! R38   R(22,23)                1.3958         estimate D2E/DX2                !
 ! R39   R(22,44)                1.0725         estimate D2E/DX2                !
 ! R40   R(23,24)                1.3927         estimate D2E/DX2                !
 ! R41   R(23,26)                1.4845         estimate D2E/DX2                !
 ! R42   R(24,25)                1.3874         estimate D2E/DX2                !
 ! R43   R(24,45)                1.0727         estimate D2E/DX2                !
 ! R44   R(25,46)                1.0729         estimate D2E/DX2                !
 ! R45   R(26,27)                1.3932         estimate D2E/DX2                !
 ! R46   R(26,31)                1.3936         estimate D2E/DX2                !
 ! R47   R(27,28)                1.3296         estimate D2E/DX2                !
 ! R48   R(27,47)                1.0711         estimate D2E/DX2                !
 ! R49   R(28,29)                1.3314         estimate D2E/DX2                !
 ! R50   R(29,30)                1.3853         estimate D2E/DX2                !
 ! R51   R(29,48)                1.0703         estimate D2E/DX2                !
 ! R52   R(30,31)                1.3857         estimate D2E/DX2                !
 ! R53   R(30,49)                1.0715         estimate D2E/DX2                !
 ! R54   R(31,50)                1.0729         estimate D2E/DX2                !
 ! A1    A(1,2,3)              117.4677         estimate D2E/DX2                !
 ! A2    A(1,2,13)             121.9854         estimate D2E/DX2                !
 ! A3    A(3,2,13)             120.5028         estimate D2E/DX2                !
 ! A4    A(2,3,4)              114.5483         estimate D2E/DX2                !
 ! A5    A(2,3,32)             109.6141         estimate D2E/DX2                !
 ! A6    A(2,3,33)             105.5065         estimate D2E/DX2                !
 ! A7    A(4,3,32)             107.9619         estimate D2E/DX2                !
 ! A8    A(4,3,33)             110.3076         estimate D2E/DX2                !
 ! A9    A(32,3,33)            108.7834         estimate D2E/DX2                !
 ! A10   A(3,4,5)              120.1556         estimate D2E/DX2                !
 ! A11   A(3,4,8)              130.2549         estimate D2E/DX2                !
 ! A12   A(5,4,8)              109.4521         estimate D2E/DX2                !
 ! A13   A(4,5,6)              109.6258         estimate D2E/DX2                !
 ! A14   A(5,6,7)              108.8            estimate D2E/DX2                !
 ! A15   A(6,7,8)              107.8935         estimate D2E/DX2                !
 ! A16   A(6,7,12)             130.5562         estimate D2E/DX2                !
 ! A17   A(8,7,12)             121.5503         estimate D2E/DX2                !
 ! A18   A(4,8,7)              104.2225         estimate D2E/DX2                !
 ! A19   A(4,8,9)              134.2501         estimate D2E/DX2                !
 ! A20   A(7,8,9)              121.5275         estimate D2E/DX2                !
 ! A21   A(8,9,10)             116.569          estimate D2E/DX2                !
 ! A22   A(8,9,34)             122.2338         estimate D2E/DX2                !
 ! A23   A(10,9,34)            121.197          estimate D2E/DX2                !
 ! A24   A(9,10,11)            122.0979         estimate D2E/DX2                !
 ! A25   A(9,10,35)            119.1789         estimate D2E/DX2                !
 ! A26   A(11,10,35)           118.7231         estimate D2E/DX2                !
 ! A27   A(10,11,12)           120.9861         estimate D2E/DX2                !
 ! A28   A(10,11,36)           118.9508         estimate D2E/DX2                !
 ! A29   A(12,11,36)           120.0616         estimate D2E/DX2                !
 ! A30   A(7,12,11)            117.2689         estimate D2E/DX2                !
 ! A31   A(7,12,37)            120.4862         estimate D2E/DX2                !
 ! A32   A(11,12,37)           122.2438         estimate D2E/DX2                !
 ! A33   A(2,13,14)            117.4763         estimate D2E/DX2                !
 ! A34   A(2,13,20)            124.5142         estimate D2E/DX2                !
 ! A35   A(14,13,20)           117.729          estimate D2E/DX2                !
 ! A36   A(13,14,15)           113.4524         estimate D2E/DX2                !
 ! A37   A(13,14,38)           107.3369         estimate D2E/DX2                !
 ! A38   A(13,14,39)           107.1435         estimate D2E/DX2                !
 ! A39   A(15,14,38)           110.2622         estimate D2E/DX2                !
 ! A40   A(15,14,39)           110.1481         estimate D2E/DX2                !
 ! A41   A(38,14,39)           108.3093         estimate D2E/DX2                !
 ! A42   A(14,15,16)           123.8693         estimate D2E/DX2                !
 ! A43   A(14,15,19)           123.4187         estimate D2E/DX2                !
 ! A44   A(16,15,19)           112.7119         estimate D2E/DX2                !
 ! A45   A(15,16,17)           112.2265         estimate D2E/DX2                !
 ! A46   A(15,16,40)           127.3423         estimate D2E/DX2                !
 ! A47   A(17,16,40)           120.4229         estimate D2E/DX2                !
 ! A48   A(16,17,18)            89.4437         estimate D2E/DX2                !
 ! A49   A(17,18,19)           111.5357         estimate D2E/DX2                !
 ! A50   A(17,18,41)           119.9587         estimate D2E/DX2                !
 ! A51   A(19,18,41)           128.5042         estimate D2E/DX2                !
 ! A52   A(15,19,18)           114.0819         estimate D2E/DX2                !
 ! A53   A(15,19,42)           122.8473         estimate D2E/DX2                !
 ! A54   A(18,19,42)           123.0703         estimate D2E/DX2                !
 ! A55   A(13,20,21)           120.1042         estimate D2E/DX2                !
 ! A56   A(13,20,25)           120.4037         estimate D2E/DX2                !
 ! A57   A(21,20,25)           119.4347         estimate D2E/DX2                !
 ! A58   A(20,21,22)           120.154          estimate D2E/DX2                !
 ! A59   A(20,21,43)           119.4108         estimate D2E/DX2                !
 ! A60   A(22,21,43)           120.4277         estimate D2E/DX2                !
 ! A61   A(21,22,23)           120.9825         estimate D2E/DX2                !
 ! A62   A(21,22,44)           119.3066         estimate D2E/DX2                !
 ! A63   A(23,22,44)           119.7091         estimate D2E/DX2                !
 ! A64   A(22,23,24)           118.3492         estimate D2E/DX2                !
 ! A65   A(22,23,26)           120.733          estimate D2E/DX2                !
 ! A66   A(24,23,26)           120.9175         estimate D2E/DX2                !
 ! A67   A(23,24,25)           120.81           estimate D2E/DX2                !
 ! A68   A(23,24,45)           119.8053         estimate D2E/DX2                !
 ! A69   A(25,24,45)           119.3804         estimate D2E/DX2                !
 ! A70   A(20,25,24)           120.2546         estimate D2E/DX2                !
 ! A71   A(20,25,46)           119.562          estimate D2E/DX2                !
 ! A72   A(24,25,46)           120.1805         estimate D2E/DX2                !
 ! A73   A(23,26,27)           121.1649         estimate D2E/DX2                !
 ! A74   A(23,26,31)           121.6219         estimate D2E/DX2                !
 ! A75   A(27,26,31)           117.2131         estimate D2E/DX2                !
 ! A76   A(26,27,28)           123.0893         estimate D2E/DX2                !
 ! A77   A(26,27,47)           120.7676         estimate D2E/DX2                !
 ! A78   A(28,27,47)           116.1356         estimate D2E/DX2                !
 ! A79   A(27,28,29)           119.2868         estimate D2E/DX2                !
 ! A80   A(28,29,30)           122.0066         estimate D2E/DX2                !
 ! A81   A(28,29,48)           116.5051         estimate D2E/DX2                !
 ! A82   A(30,29,48)           121.4883         estimate D2E/DX2                !
 ! A83   A(29,30,31)           118.7699         estimate D2E/DX2                !
 ! A84   A(29,30,49)           120.3401         estimate D2E/DX2                !
 ! A85   A(31,30,49)           120.8883         estimate D2E/DX2                !
 ! A86   A(26,31,30)           119.6337         estimate D2E/DX2                !
 ! A87   A(26,31,50)           120.0244         estimate D2E/DX2                !
 ! A88   A(30,31,50)           120.3288         estimate D2E/DX2                !
 ! D1    D(1,2,3,4)           -130.0975         estimate D2E/DX2                !
 ! D2    D(1,2,3,32)           108.3904         estimate D2E/DX2                !
 ! D3    D(1,2,3,33)            -8.5851         estimate D2E/DX2                !
 ! D4    D(13,2,3,4)            52.2701         estimate D2E/DX2                !
 ! D5    D(13,2,3,32)          -69.242          estimate D2E/DX2                !
 ! D6    D(13,2,3,33)          173.7825         estimate D2E/DX2                !
 ! D7    D(1,2,13,14)            4.8693         estimate D2E/DX2                !
 ! D8    D(1,2,13,20)         -168.8931         estimate D2E/DX2                !
 ! D9    D(3,2,13,14)         -177.6075         estimate D2E/DX2                !
 ! D10   D(3,2,13,20)            8.6302         estimate D2E/DX2                !
 ! D11   D(2,3,4,5)             46.351          estimate D2E/DX2                !
 ! D12   D(2,3,4,8)           -138.3929         estimate D2E/DX2                !
 ! D13   D(32,3,4,5)           168.764          estimate D2E/DX2                !
 ! D14   D(32,3,4,8)           -15.9799         estimate D2E/DX2                !
 ! D15   D(33,3,4,5)           -72.4924         estimate D2E/DX2                !
 ! D16   D(33,3,4,8)           102.7636         estimate D2E/DX2                !
 ! D17   D(3,4,5,6)            176.9974         estimate D2E/DX2                !
 ! D18   D(8,4,5,6)              0.8355         estimate D2E/DX2                !
 ! D19   D(3,4,8,7)           -176.2379         estimate D2E/DX2                !
 ! D20   D(3,4,8,9)              3.799          estimate D2E/DX2                !
 ! D21   D(5,4,8,7)             -0.5874         estimate D2E/DX2                !
 ! D22   D(5,4,8,9)            179.4496         estimate D2E/DX2                !
 ! D23   D(4,5,6,7)             -0.7077         estimate D2E/DX2                !
 ! D24   D(5,6,7,8)              0.333          estimate D2E/DX2                !
 ! D25   D(5,6,7,12)          -179.6818         estimate D2E/DX2                !
 ! D26   D(6,7,8,4)              0.1698         estimate D2E/DX2                !
 ! D27   D(6,7,8,9)           -179.8612         estimate D2E/DX2                !
 ! D28   D(12,7,8,4)          -179.817          estimate D2E/DX2                !
 ! D29   D(12,7,8,9)             0.152          estimate D2E/DX2                !
 ! D30   D(6,7,12,11)          179.979          estimate D2E/DX2                !
 ! D31   D(6,7,12,37)            0.3364         estimate D2E/DX2                !
 ! D32   D(8,7,12,11)           -0.0376         estimate D2E/DX2                !
 ! D33   D(8,7,12,37)         -179.6802         estimate D2E/DX2                !
 ! D34   D(4,8,9,10)           179.7757         estimate D2E/DX2                !
 ! D35   D(4,8,9,34)            -0.0779         estimate D2E/DX2                !
 ! D36   D(7,8,9,10)            -0.1823         estimate D2E/DX2                !
 ! D37   D(7,8,9,34)           179.9642         estimate D2E/DX2                !
 ! D38   D(8,9,10,11)            0.1093         estimate D2E/DX2                !
 ! D39   D(8,9,10,35)          179.9785         estimate D2E/DX2                !
 ! D40   D(34,9,10,11)         179.9644         estimate D2E/DX2                !
 ! D41   D(34,9,10,35)          -0.1664         estimate D2E/DX2                !
 ! D42   D(9,10,11,12)          -0.0022         estimate D2E/DX2                !
 ! D43   D(9,10,11,36)         179.5461         estimate D2E/DX2                !
 ! D44   D(35,10,11,12)       -179.872          estimate D2E/DX2                !
 ! D45   D(35,10,11,36)         -0.3236         estimate D2E/DX2                !
 ! D46   D(10,11,12,7)          -0.0358         estimate D2E/DX2                !
 ! D47   D(10,11,12,37)        179.6001         estimate D2E/DX2                !
 ! D48   D(36,11,12,7)        -179.5791         estimate D2E/DX2                !
 ! D49   D(36,11,12,37)          0.0567         estimate D2E/DX2                !
 ! D50   D(2,13,14,15)         -89.3145         estimate D2E/DX2                !
 ! D51   D(2,13,14,38)          32.7515         estimate D2E/DX2                !
 ! D52   D(2,13,14,39)         148.8998         estimate D2E/DX2                !
 ! D53   D(20,13,14,15)         84.8805         estimate D2E/DX2                !
 ! D54   D(20,13,14,38)       -153.0535         estimate D2E/DX2                !
 ! D55   D(20,13,14,39)        -36.9053         estimate D2E/DX2                !
 ! D56   D(2,13,20,21)        -106.7629         estimate D2E/DX2                !
 ! D57   D(2,13,20,25)          76.0086         estimate D2E/DX2                !
 ! D58   D(14,13,20,21)         79.4892         estimate D2E/DX2                !
 ! D59   D(14,13,20,25)        -97.7393         estimate D2E/DX2                !
 ! D60   D(13,14,15,16)         86.176          estimate D2E/DX2                !
 ! D61   D(13,14,15,19)        -93.6758         estimate D2E/DX2                !
 ! D62   D(38,14,15,16)        -34.2484         estimate D2E/DX2                !
 ! D63   D(38,14,15,19)        145.8998         estimate D2E/DX2                !
 ! D64   D(39,14,15,16)       -153.7298         estimate D2E/DX2                !
 ! D65   D(39,14,15,19)         26.4184         estimate D2E/DX2                !
 ! D66   D(14,15,16,17)       -179.656          estimate D2E/DX2                !
 ! D67   D(14,15,16,40)         -0.7136         estimate D2E/DX2                !
 ! D68   D(19,15,16,17)          0.2098         estimate D2E/DX2                !
 ! D69   D(19,15,16,40)        179.1523         estimate D2E/DX2                !
 ! D70   D(14,15,19,18)        179.7429         estimate D2E/DX2                !
 ! D71   D(14,15,19,42)         -0.5204         estimate D2E/DX2                !
 ! D72   D(16,15,19,18)         -0.1237         estimate D2E/DX2                !
 ! D73   D(16,15,19,42)        179.613          estimate D2E/DX2                !
 ! D74   D(15,16,17,18)         -0.1868         estimate D2E/DX2                !
 ! D75   D(40,16,17,18)       -179.2118         estimate D2E/DX2                !
 ! D76   D(16,17,18,19)          0.1149         estimate D2E/DX2                !
 ! D77   D(16,17,18,41)       -179.4898         estimate D2E/DX2                !
 ! D78   D(17,18,19,15)         -0.0225         estimate D2E/DX2                !
 ! D79   D(17,18,19,42)       -179.7586         estimate D2E/DX2                !
 ! D80   D(41,18,19,15)        179.5399         estimate D2E/DX2                !
 ! D81   D(41,18,19,42)         -0.1962         estimate D2E/DX2                !
 ! D82   D(13,20,21,22)       -178.2339         estimate D2E/DX2                !
 ! D83   D(13,20,21,43)          2.7518         estimate D2E/DX2                !
 ! D84   D(25,20,21,22)         -0.9785         estimate D2E/DX2                !
 ! D85   D(25,20,21,43)       -179.9928         estimate D2E/DX2                !
 ! D86   D(13,20,25,24)        178.6439         estimate D2E/DX2                !
 ! D87   D(13,20,25,46)         -0.7373         estimate D2E/DX2                !
 ! D88   D(21,20,25,24)          1.3968         estimate D2E/DX2                !
 ! D89   D(21,20,25,46)       -177.9843         estimate D2E/DX2                !
 ! D90   D(20,21,22,23)         -0.1045         estimate D2E/DX2                !
 ! D91   D(20,21,22,44)        179.4001         estimate D2E/DX2                !
 ! D92   D(43,21,22,23)        178.8997         estimate D2E/DX2                !
 ! D93   D(43,21,22,44)         -1.5957         estimate D2E/DX2                !
 ! D94   D(21,22,23,24)          0.7595         estimate D2E/DX2                !
 ! D95   D(21,22,23,26)       -179.0129         estimate D2E/DX2                !
 ! D96   D(44,22,23,24)       -178.7431         estimate D2E/DX2                !
 ! D97   D(44,22,23,26)          1.4845         estimate D2E/DX2                !
 ! D98   D(22,23,24,25)         -0.3378         estimate D2E/DX2                !
 ! D99   D(22,23,24,45)       -179.576          estimate D2E/DX2                !
 ! D100  D(26,23,24,25)        179.4342         estimate D2E/DX2                !
 ! D101  D(26,23,24,45)          0.196          estimate D2E/DX2                !
 ! D102  D(22,23,26,27)       -134.5346         estimate D2E/DX2                !
 ! D103  D(22,23,26,31)         45.5549         estimate D2E/DX2                !
 ! D104  D(24,23,26,27)         45.6988         estimate D2E/DX2                !
 ! D105  D(24,23,26,31)       -134.2117         estimate D2E/DX2                !
 ! D106  D(23,24,25,20)         -0.7397         estimate D2E/DX2                !
 ! D107  D(23,24,25,46)        178.6376         estimate D2E/DX2                !
 ! D108  D(45,24,25,20)        178.5017         estimate D2E/DX2                !
 ! D109  D(45,24,25,46)         -2.121          estimate D2E/DX2                !
 ! D110  D(23,26,27,28)       -179.7442         estimate D2E/DX2                !
 ! D111  D(23,26,27,47)          1.2926         estimate D2E/DX2                !
 ! D112  D(31,26,27,28)          0.1701         estimate D2E/DX2                !
 ! D113  D(31,26,27,47)       -178.7931         estimate D2E/DX2                !
 ! D114  D(23,26,31,30)        179.9436         estimate D2E/DX2                !
 ! D115  D(23,26,31,50)          1.2539         estimate D2E/DX2                !
 ! D116  D(27,26,31,30)          0.0298         estimate D2E/DX2                !
 ! D117  D(27,26,31,50)       -178.66           estimate D2E/DX2                !
 ! D118  D(26,27,28,29)         -0.1883         estimate D2E/DX2                !
 ! D119  D(47,27,28,29)        178.8193         estimate D2E/DX2                !
 ! D120  D(27,28,29,30)          0.0031         estimate D2E/DX2                !
 ! D121  D(27,28,29,48)        179.9764         estimate D2E/DX2                !
 ! D122  D(28,29,30,31)          0.1891         estimate D2E/DX2                !
 ! D123  D(28,29,30,49)        179.7255         estimate D2E/DX2                !
 ! D124  D(48,29,30,31)       -179.7829         estimate D2E/DX2                !
 ! D125  D(48,29,30,49)         -0.2464         estimate D2E/DX2                !
 ! D126  D(29,30,31,26)         -0.1996         estimate D2E/DX2                !
 ! D127  D(29,30,31,50)        178.4861         estimate D2E/DX2                !
 ! D128  D(49,30,31,26)       -179.7334         estimate D2E/DX2                !
 ! D129  D(49,30,31,50)         -1.0477         estimate D2E/DX2                !
 --------------------------------------------------------------------------------
 Trust Radius=3.00D-01 FncErr=1.00D-07 GrdErr=1.00D-06
 Number of steps in this run=    281 maximum allowed number of steps=    300.
 GradGradGradGradGradGradGradGradGradGradGradGradGradGradGradGradGradGrad

 Leave Link  103 at Wed Aug 31 03:38:07 2022, MaxMem=  209715200 cpu:       0.1
 (Enter /opt/gaussian/l202.exe)
                          Input orientation:                          
 ---------------------------------------------------------------------
 Center     Atomic      Atomic             Coordinates (Angstroms)
 Number     Number       Type             X           Y           Z
 ---------------------------------------------------------------------
      1          8           0        3.344160   -2.444960    0.171140
      2          6           0        2.231920   -1.923310    0.144150
      3          6           0        1.130160   -2.575920    0.967220
      4          7           0       -0.097130   -2.811830    0.246030
      5          7           0       -0.064570   -3.370140   -0.993530
      6          7           0       -1.250550   -3.543320   -1.414810
      7          6           0       -2.136820   -3.111380   -0.442850
      8          6           0       -1.394170   -2.640230    0.633150
      9          6           0       -2.010970   -2.134600    1.781980
     10          6           0       -3.385260   -2.125050    1.788250
     11          6           0       -4.144690   -2.601810    0.695530
     12          6           0       -3.531560   -3.098980   -0.428290
     13          7           0        1.990230   -0.781220   -0.547700
     14          6           0        3.092120   -0.234370   -1.367850
     15          6           0        3.983200    0.721740   -0.615200
     16          6           0        5.036430    0.337370    0.128780
     17         16           0        5.867760    1.723830    0.890910
     18          6           0        4.690410    2.830060    0.121980
     19          6           0        3.792240    2.158660   -0.614710
     20          6           0        0.792770   -0.005310   -0.438880
     21          6           0       -0.141210   -0.017430   -1.467170
     22          6           0       -1.281940    0.760600   -1.379180
     23          6           0       -1.518100    1.565980   -0.263920
     24          6           0       -0.568110    1.580600    0.754320
     25          6           0        0.580950    0.808240    0.665270
     26          6           0       -2.754320    2.381880   -0.165460
     27          6           0       -2.709020    3.712940    0.243480
     28          7           0       -3.792000    4.476870    0.349870
     29          6           0       -4.983520    3.962760    0.052070
     30          6           0       -5.133160    2.650940   -0.367240
     31          6           0       -4.005820    1.852420   -0.474710
     32          1           0        0.900540   -1.956300    1.821820
     33          1           0        1.544620   -3.508500    1.315800
     34          1           0       -1.449680   -1.769090    2.618070
     35          1           0       -3.901690   -1.746410    2.648810
     36          1           0       -5.214740   -2.577490    0.757270
     37          1           0       -4.087210   -3.471210   -1.265300
     38          1           0        3.665520   -1.069690   -1.732960
     39          1           0        2.642010    0.264300   -2.214290
     40          1           0        5.378670   -0.658140    0.300000
     41          1           0        4.768750    3.882270    0.276680
     42          1           0        3.005080    2.640540   -1.159070
     43          1           0        0.022750   -0.646140   -2.319910
     44          1           0       -1.989270    0.748260   -2.185270
     45          1           0       -0.729150    2.185940    1.625120
     46          1           0        1.316590    0.843800    1.445520
     47          1           0       -1.775300    4.183030    0.476580
     48          1           0       -5.824770    4.616620    0.153640
     49          1           0       -6.105630    2.263350   -0.595830
     50          1           0       -4.095480    0.825980   -0.773720
 ---------------------------------------------------------------------
                    Distance matrix (angstroms):
                    1          2          3          4          5
     1  O    0.000000
     2  C    1.228790   0.000000
     3  C    2.356415   1.522241   0.000000
     4  N    3.461601   2.494859   1.442917   0.000000
     5  N    3.719120   2.943042   2.429548   1.359882   0.000000
     6  N    4.983271   4.145164   3.503956   2.150313   1.270440
     7  C    5.555379   4.565300   3.598357   2.173619   2.159728
     8  C    4.764804   3.728488   2.547151   1.364412   2.224116
     9  C    5.600763   4.552938   3.274950   2.545696   3.608114
    10  C    6.928382   5.856319   4.611550   3.696202   4.507275
    11  C    7.508826   6.436267   5.281906   4.077855   4.482258
    12  C    6.932718   5.909957   4.894147   3.511762   3.523215
    13  N    2.262275   1.356997   2.501130   3.018353   3.335187
    14  C    2.705314   2.424584   3.845087   4.406725   4.465183
    15  C    3.324860   3.261883   4.638799   5.465979   5.768107
    16  C    3.256829   3.602247   4.944612   6.023674   6.405108
    17  S    4.925996   5.203711   6.398322   7.521170   8.043145
    18  C    5.444322   5.351560   6.527973   7.400463   7.892824
    19  C    4.691658   4.435419   5.657333   6.369760   6.751749
    20  C    3.582402   2.467752   2.949404   3.022843   3.516355
    21  C    4.552446   3.443904   3.753466   3.278059   3.386868
    22  C    5.837800   4.676657   4.738796   4.099675   4.323624
    23  C    6.318108   5.138513   5.067970   4.630813   5.197149
    24  C    5.643677   4.526573   4.495120   4.446754   5.274311
    25  C    4.296837   3.233981   3.441707   3.706813   4.541715
    26  C    7.784802   6.594931   6.399369   5.848470   6.403608
    27  C    8.635158   7.496004   7.403571   7.028129   7.661157
    28  N    9.943262   8.791600   8.622681   8.172392   8.790564
    29  C   10.508249   9.312189   8.998273   8.355208   8.891612
    30  C    9.905706   8.685027   8.266198   7.455170   7.895331
    31  C    8.538548   7.317686   6.933084   6.128014   6.563365
    32  H    2.989116   2.142017   1.080276   2.051924   3.294932
    33  H    2.383214   2.087576   1.078420   2.079687   2.818092
    34  H    5.424497   4.438270   3.167310   2.922888   4.186352
    35  H    7.689549   6.627653   5.369855   4.624192   5.534133
    36  H    8.579970   7.500441   6.348373   5.148419   5.497076
    37  H    7.638181   6.656872   5.745141   4.317365   4.033077
    38  H    2.370704   2.511457   3.998469   4.594452   4.444367
    39  H    3.677415   3.242846   4.524881   4.797774   4.693078
    40  H    2.710823   3.395141   4.708811   5.884359   6.217477
    41  H    6.486481   6.337021   7.444757   8.275790   8.807489
    42  H    5.267518   4.808834   5.936993   6.428557   6.751180
    43  H    4.524693   3.547279   3.969336   3.359856   3.031020
    44  H    6.647917   5.511980   5.542491   4.708041   4.699567
    45  H    6.336493   5.277039   5.154142   5.222934   6.178108
    46  H    4.068295   3.191910   3.458036   4.098904   5.061014
    47  H    8.380478   7.311341   7.373319   7.197046   7.882779
    48  H   11.573050  10.376947  10.038207   9.380632   9.913841
    49  H   10.585601   9.358976   8.844112   7.910010   8.269751
    50  H    8.181690   6.959675   6.473879   5.500941   5.822712
                    6          7          8          9         10
     6  N    0.000000
     7  C    1.384468   0.000000
     8  C    2.242842   1.389708   0.000000
     9  C    3.575220   2.433065   1.398540   0.000000
    10  C    4.102203   2.740302   2.358836   1.374337   0.000000
    11  C    3.703515   2.363707   2.751496   2.439553   1.413531
    12  C    2.524612   1.394871   2.430132   2.850880   2.425488
    13  N    4.345542   4.740589   4.037882   4.823759   6.013188
    14  C    5.459866   6.039423   5.469823   6.290773   7.449301
    15  C    6.798695   7.223376   6.463538   7.059407   8.256815
    16  C    7.547751   7.979734   7.104443   7.649154   8.929850
    17  S    9.150385   9.446241   8.476266   8.817929  10.061684
    18  C    8.847412   9.068121   8.198017   8.503643   9.620084
    19  C    7.653918   7.934520   7.175329   7.606146   8.697177
    20  C    4.200608   4.269682   3.588141   4.162578   5.187421
    21  C    3.696658   3.821546   3.586131   4.305274   5.056054
    22  C    4.304182   4.074281   3.953190   4.348172   4.773211
    23  C    5.244147   4.721496   4.302592   4.257102   4.617509
    24  C    5.605837   5.090063   4.302611   4.115901   4.768353
    25  C    5.159186   4.896695   3.974176   4.077425   5.059258
    26  C    6.239407   5.534813   5.263969   4.974302   4.952523
    27  C    7.584878   6.882573   6.499496   6.086705   6.076656
    28  N    8.596308   7.807020   7.515514   6.995323   6.769027
    29  C    8.510466   7.641473   7.537942   7.000460   6.529180
    30  C    7.385182   6.495237   6.555708   6.104802   5.523710
    31  C    6.131012   5.304101   5.313377   4.996839   4.618046
    32  H    4.197808   3.960871   2.673273   2.917236   4.289252
    33  H    3.907738   4.099214   3.139489   3.840201   5.142068
    34  H    4.410404   3.412204   2.168380   1.071303   2.135832
    35  H    5.174015   3.812646   3.339080   2.115870   1.072675
    36  H    4.622290   3.346478   3.823100   3.392687   2.148166
    37  H    2.841512   2.147073   3.398103   3.922144   3.410139
    38  H    5.512514   6.284905   5.802201   6.761019   7.951491
    39  H    5.503559   6.113136   5.730180   6.585979   7.619534
    40  H    7.430437   7.940579   7.064774   7.680038   9.009616
    41  H    9.707342   9.854733   8.980627   9.188757  10.240147
    42  H    7.511053   7.748335   7.102956   7.524128   8.499058
    43  H    3.291527   3.776838   3.834660   4.814253   5.538834
    44  H    4.422327   4.237289   4.447415   4.904123   5.098388
    45  H    6.506724   5.858296   4.971737   4.509405   5.066179
    46  H    5.832540   5.579913   4.488500   4.478474   5.571259
    47  H    7.971775   7.361010   6.835690   6.455390   6.641109
    48  H    9.485154   8.583633   8.515986   7.923101   7.353453
    49  H    7.613143   6.683007   6.910379   6.462367   5.687030
    50  H    5.253133   4.410060   4.614214   4.431909   3.971987
                   11         12         13         14         15
    11  C    0.000000
    12  C    1.373345   0.000000
    13  N    6.519004   5.989694   0.000000
    14  C    7.888836   7.277493   1.478463   0.000000
    15  C    8.878434   8.432346   2.497073   1.508195   0.000000
    16  C    9.656757   9.248204   3.314846   2.519351   1.345563
    17  S   10.908643  10.646455   4.835299   4.079304   2.612301
    18  C   10.387163  10.151704   4.558595   3.763623   2.342775
    19  C    9.347388   9.017515   3.448858   2.604608   1.449553
    20  C    5.692733   5.317023   1.431010   2.490475   3.276970
    21  C    5.232986   4.697839   2.443734   3.242121   4.275861
    22  C    4.879094   4.567422   3.711558   4.485810   5.320421
    23  C    5.018963   5.083590   4.230633   5.070902   5.576777
    24  C    5.503447   5.663839   3.717331   4.603803   4.829870
    25  C    5.827609   5.777108   2.446170   3.395083   3.636261
    26  C    5.245150   5.541932   5.715073   6.517006   6.953597
    27  C    6.491653   6.894208   6.550297   7.199366   7.380408
    28  N    7.095885   7.620162   7.866850   8.516892   8.688274
    29  C    6.649155   7.225448   8.455664   9.211299   9.557799
    30  C    5.449581   5.969123   7.909170   8.773908   9.321551
    31  C    4.607484   4.974278   6.549351   7.452056   8.069858
    32  H    5.209564   5.100218   2.860570   4.235807   4.755392
    33  H    5.794400   5.383044   3.333055   4.507401   5.250749
    34  H    3.413600   3.922135   4.778176   6.234651   6.795179
    35  H    2.146174   3.381566   6.772296   8.205681   8.883525
    36  H    1.072106   2.123817   7.539305   8.888772   9.867659
    37  H    2.145697   1.071395   6.684779   7.875940   9.117838
    38  H    8.321318   7.590662   2.072354   1.076964   2.135305
    39  H    7.920918   7.253579   2.072547   1.080616   2.136617
    40  H    9.727728   9.267163   3.495035   2.861750   2.165409
    41  H   11.030328  10.868762   5.490712   4.739440   3.376609
    42  H    9.057648   8.729478   3.621068   2.883795   2.221330
    43  H    5.503188   4.714634   2.651406   3.239908   4.523527
    44  H    4.916077   4.501877   4.566986   5.239681   6.175453
    45  H    5.954209   6.324585   4.573862   5.423825   5.419332
    46  H    6.500792   6.523897   2.658459   3.497143   3.372280
    47  H    7.189993   7.545257   6.314439   6.826941   6.806823
    48  H    7.431154   8.070188   9.523801  10.264403  10.580996
    49  H    5.402099   5.950503   8.649548   9.562072  10.205951
    50  H    3.729727   3.980281   6.298416   7.289645   8.080907
                   16         17         18         19         20
    16  C    0.000000
    17  S    1.787239   0.000000
    18  C    2.516601   1.789176   0.000000
    19  C    2.327635   2.600721   1.341715   0.000000
    20  C    4.295150   5.523929   4.852369   3.702770   0.000000
    21  C    5.429631   6.685824   5.829078   4.575378   1.389189
    22  C    6.509598   7.563024   6.496546   5.318486   2.403165
    23  C    6.680236   7.477264   6.347631   5.354814   2.799943
    24  C    5.774755   6.438913   5.441786   4.606631   2.406415
    25  C    4.512299   5.370249   4.612004   3.711383   1.387760
    26  C    8.059925   8.711441   7.463745   6.565752   4.284306
    27  C    8.449830   8.828187   7.452906   6.739337   5.153012
    28  N    9.753231  10.058972   8.643795   7.989068   6.460045
    29  C   10.655925  11.111559   9.740268   8.984060   7.025108
    30  C   10.441226  11.111378   9.837375   8.942390   6.494416
    31  C    9.188137   9.968402   8.771330   7.805327   5.145766
    32  H    5.023235   6.251658   6.337335   5.588515   2.988100
    33  H    5.328458   6.800540   7.176249   6.394949   3.989551
    34  H    7.259708   8.290265   8.067425   7.304506   4.181441
    35  H    9.517493  10.515462  10.057491   9.224787   5.882450
    36  H   10.676043  11.888693  11.302972  10.268356   6.643573
    37  H    9.984465  11.434120  10.893905   9.705897   6.042321
    38  H    2.706527   4.420216   4.438384   3.418886   3.325694
    39  H    3.350905   4.709348   4.029544   2.733182   2.577685
    40  H    1.066529   2.502432   3.559906   3.359735   4.690694
    41  H    3.558067   2.498793   1.066403   2.172321   5.606578
    42  H    3.330095   3.638367   2.125404   1.071521   3.523281
    43  H    5.665718   7.077448   6.311406   4.998366   2.131166
    44  H    7.408382   8.493971   7.367185   6.154815   3.370088
    45  H    6.236839   6.653708   5.660914   5.045845   3.373116
    46  H    3.978377   4.668532   4.132753   3.478828   2.132214
    47  H    7.830053   8.039633   6.615261   6.023827   4.997524
    48  H   11.673828  12.067604  10.665918   9.955843   8.093525
    49  H   11.330488  12.077398  10.834708   9.898442   7.263565
    50  H    9.189397  10.141168   9.055964   8.001090   4.969723
                   21         22         23         24         25
    21  C    0.000000
    22  C    1.383596   0.000000
    23  C    2.418848   1.395784   0.000000
    24  C    2.769650   2.394530   1.392662   0.000000
    25  C    2.398030   2.766298   2.417349   1.387375   0.000000
    26  C    3.778820   2.503911   1.484462   2.503509   3.780275
    27  C    4.841036   3.658674   2.507027   3.064527   4.408979
    28  N    6.068660   4.806316   3.744415   4.352634   5.716731
    29  C    6.449649   5.099412   4.225345   5.065934   6.425756
    30  C    5.766247   4.407868   3.775774   4.821121   6.092017
    31  C    4.406419   3.070775   2.513012   3.660908   4.840282
    32  H    3.957514   4.731930   4.754638   3.975695   3.013707
    33  H    4.772265   5.785981   6.134013   5.538757   4.470581
    34  H    4.633529   4.733442   4.408315   3.933339   3.818313
    35  H    5.837112   5.419676   5.013724   5.076499   5.527633
    36  H    6.102684   5.583384   5.645912   6.235454   6.712798
    37  H    5.247882   5.078457   5.742506   6.479484   6.620613
    38  H    3.958420   5.287011   5.997896   5.579805   4.335055
    39  H    2.895492   4.042413   4.775440   4.566198   3.582695
    40  H    5.831164   7.014000   7.268435   6.370444   5.030090
    41  H    6.508178   7.006964   6.721751   5.831629   5.209446
    42  H    4.130239   4.686274   4.734462   4.189537   3.544284
    43  H    1.072066   2.136845   3.390397   3.841663   3.367211
    44  H    2.125388   1.072497   2.140620   3.369521   3.838646
    45  H    3.842235   3.370903   2.138987   1.072690   2.129726
    46  H    3.369074   3.839038   3.388096   2.138393   1.072950
    47  H    4.908389   3.924319   2.731930   2.882202   4.120282
    48  H    7.510280   6.152701   5.294164   6.100058   7.469858
    49  H    6.444804   5.112717   4.652088   5.740486   6.958309
    50  H    4.102251   2.878691   2.729539   3.917486   4.892852
                   26         27         28         29         30
    26  C    0.000000
    27  C    1.393199   0.000000
    28  N    2.394019   1.329569   0.000000
    29  C    2.741502   2.296170   1.331433   0.000000
    30  C    2.402496   2.716114   2.376337   1.385310   0.000000
    31  C    1.393634   2.378870   2.759237   2.384728   1.385669
    32  H    6.010581   6.903649   8.097669   8.531673   7.900897
    33  H    7.441209   8.449409   9.652910  10.001667   9.239268
    34  H    5.165334   6.105511   7.045794   7.206003   6.482034
    35  H    5.126339   6.083796   6.635237   6.364592   5.472638
    36  H    5.612526   6.790591   7.207923   6.582221   5.348613
    37  H    6.102861   7.469126   8.115904   7.602812   6.275448
    38  H    7.455517   8.210641   9.524553  10.164535   9.650132
    39  H    6.148352   6.824022   8.106611   8.772896   8.340319
    40  H    8.695050   9.193490  10.510566  11.348532  11.040552
    41  H    7.683960   7.479761   8.581687   9.755188   9.998931
    42  H    5.850201   5.980646   7.200646   8.187360   8.176677
    43  H    4.639254   5.747618   6.922808   7.206316   6.423945
    44  H    2.708071   3.899512   4.855852   4.929932   4.099935
    45  H    2.710329   2.856666   4.031832   4.871472   4.856030
    46  H    4.640394   5.087475   6.363752   7.166659   6.939101
    47  H    2.148217   1.071052   2.041930   3.243671   3.786100
    48  H    3.810978   3.245398   2.046995   1.070304   2.147915
    49  H    3.380909   3.787177   3.338698   2.137031   1.071530
    50  H    2.142315   3.360284   3.831912   3.363024   2.138337
                   31         32         33         34         35
    31  C    0.000000
    32  H    6.622142   0.000000
    33  H    7.921665   1.755056   0.000000
    34  H    5.405042   2.488493   3.699633   0.000000
    35  H    4.766424   4.877436   5.877429   2.452308   0.000000
    36  H    4.754300   6.238252   6.845998   4.276887   2.448003
    37  H    5.382629   6.058293   6.195238   4.993430   4.281309
    38  H    8.304901   4.589951   4.443079   6.751733   8.770435
    39  H    7.052794   4.924832   5.282028   6.650436   8.397184
    40  H    9.745345   4.904570   4.884295   7.296165   9.634642
    41  H    9.037586   7.172127   8.130084   8.722892  10.605921
    42  H    7.088173   5.869049   6.787387   7.318231   9.024896
    43  H    5.086938   4.431812   4.871096   5.273776   6.426508
    44  H    2.865599   5.632266   6.547204   5.449797   5.766200
    45  H    3.906032   4.455641   6.139410   4.140939   5.155223
    46  H    5.747403   2.855741   4.360200   3.981748   5.948743
    47  H    3.363319   6.830898   8.419370   6.334015   6.663211
    48  H    3.368116   9.550701  11.030689   8.123553   7.100159
    49  H    2.143067   8.528593   9.772150   6.947488   5.609208
    50  H    1.072858   6.279978   7.413807   5.023832   4.285844
                   36         37         38         39         40
    36  H    0.000000
    37  H    2.482106   0.000000
    38  H    9.345251   8.129626   0.000000
    39  H    8.867607   7.754806   1.748937   0.000000
    40  H   10.775590   9.998320   2.690201   3.829081   0.000000
    41  H   11.900821  11.613759   5.456893   4.880334   4.581252
    42  H    9.922985   9.362978   3.811999   2.625229   4.317882
    43  H    6.374202   5.097548   3.713984   2.774992   5.962378
    44  H    5.488425   4.801211   5.957027   4.656588   7.901966
    45  H    6.600299   7.185711   6.417862   5.458799   6.866600
    46  H    7.405213   7.427578   4.391088   3.935323   4.479792
    47  H    7.590334   8.183304   7.878811   6.489211   8.639872
    48  H    7.245117   8.393182  11.223145   9.810002  12.383924
    49  H    5.104733   6.116158  10.386414   9.117939  11.883887
    50  H    3.896188   4.325224   8.046541   6.912633   9.649612
                   41         42         43         44         45
    41  H    0.000000
    42  H    2.591101   0.000000
    43  H    7.055019   4.587386   0.000000
    44  H    7.845639   5.438505   2.451674   0.000000
    45  H    5.909546   4.680048   4.914193   4.263086   0.000000
    46  H    4.745092   3.586525   4.251165   4.911260   2.453293
    47  H    6.554007   5.282675   5.862953   4.350733   2.530206
    48  H   10.619655   9.142995   8.246732   5.928387   5.834278
    49  H   11.028795   9.135893   6.999616   4.665430   5.817658
    50  H    9.434979   7.338874   4.638713   2.536658   4.351563
                   46         47         48         49         50
    46  H    0.000000
    47  H    4.652858   0.000000
    48  H    8.179373   4.085401   0.000000
    49  H    7.827617   4.856644   2.485652   0.000000
    50  H    5.849431   4.268052   4.268418   2.477576   0.000000
 Stoichiometry    C24H19N5OS
 Framework group  C1[X(C24H19N5OS)]
 Deg. of freedom   144
 Full point group                 C1      NOp   1
 Largest Abelian subgroup         C1      NOp   1
 Largest concise Abelian subgroup C1      NOp   1
                         Standard orientation:                         
 ---------------------------------------------------------------------
 Center     Atomic      Atomic             Coordinates (Angstroms)
 Number     Number       Type             X           Y           Z
 ---------------------------------------------------------------------
      1          8           0        3.344159   -2.444961    0.171140
      2          6           0        2.231919   -1.923311    0.144150
      3          6           0        1.130159   -2.575920    0.967220
      4          7           0       -0.097131   -2.811830    0.246030
      5          7           0       -0.064571   -3.370140   -0.993530
      6          7           0       -1.250551   -3.543320   -1.414810
      7          6           0       -2.136821   -3.111380   -0.442850
      8          6           0       -1.394171   -2.640230    0.633150
      9          6           0       -2.010971   -2.134600    1.781980
     10          6           0       -3.385261   -2.125049    1.788250
     11          6           0       -4.144691   -2.601809    0.695530
     12          6           0       -3.531561   -3.098979   -0.428290
     13          7           0        1.990229   -0.781221   -0.547700
     14          6           0        3.092120   -0.234371   -1.367850
     15          6           0        3.983200    0.721739   -0.615200
     16          6           0        5.036430    0.337368    0.128780
     17         16           0        5.867760    1.723828    0.890910
     18          6           0        4.690410    2.830059    0.121980
     19          6           0        3.792240    2.158659   -0.614710
     20          6           0        0.792770   -0.005310   -0.438880
     21          6           0       -0.141210   -0.017430   -1.467170
     22          6           0       -1.281940    0.760600   -1.379180
     23          6           0       -1.518100    1.565980   -0.263920
     24          6           0       -0.568110    1.580600    0.754320
     25          6           0        0.580950    0.808240    0.665270
     26          6           0       -2.754320    2.381881   -0.165460
     27          6           0       -2.709019    3.712941    0.243480
     28          7           0       -3.791999    4.476871    0.349870
     29          6           0       -4.983519    3.962761    0.052070
     30          6           0       -5.133160    2.650941   -0.367240
     31          6           0       -4.005820    1.852421   -0.474710
     32          1           0        0.900539   -1.956300    1.821820
     33          1           0        1.544619   -3.508501    1.315800
     34          1           0       -1.449681   -1.769090    2.618070
     35          1           0       -3.901691   -1.746409    2.648810
     36          1           0       -5.214741   -2.577489    0.757270
     37          1           0       -4.087211   -3.471209   -1.265300
     38          1           0        3.665519   -1.069691   -1.732960
     39          1           0        2.642010    0.264299   -2.214290
     40          1           0        5.378669   -0.658142    0.300000
     41          1           0        4.768751    3.882269    0.276680
     42          1           0        3.005080    2.640539   -1.159070
     43          1           0        0.022749   -0.646140   -2.319910
     44          1           0       -1.989270    0.748260   -2.185270
     45          1           0       -0.729150    2.185940    1.625120
     46          1           0        1.316590    0.843799    1.445520
     47          1           0       -1.775299    4.183030    0.476580
     48          1           0       -5.824769    4.616621    0.153640
     49          1           0       -6.105630    2.263351   -0.595830
     50          1           0       -4.095480    0.825981   -0.773720
 ---------------------------------------------------------------------
 Rotational constants (GHZ):      0.1818622      0.1027413      0.0717212
 Leave Link  202 at Wed Aug 31 03:38:07 2022, MaxMem=  209715200 cpu:       0.0
 (Enter /opt/gaussian/l301.exe)
 Standard basis: CC-pVDZ (5D, 7F)
 Ernie: Thresh=  0.10000D-02 Tol=  0.10000D-05 Strict=F.
 Ernie:  70 primitive shells out of 805 were deleted.
 There are   533 symmetry adapted basis functions of A   symmetry.
 Integral buffers will be    131072 words long.
 Raffenetti 2 integral format.
 Two-electron integral symmetry is turned on.
   533 basis functions,  1194 primitive gaussians,   564 cartesian basis functions
   111 alpha electrons      111 beta electrons
       nuclear repulsion energy      3057.3781253372 Hartrees.
 IExCor=  402 DFT=T Ex+Corr=B3LYP ExCW=0 ScaHFX=  0.200000
 ScaDFX=  0.800000  0.720000  1.000000  0.810000 ScalE2=  1.000000  1.000000
 IRadAn=      0 IRanWt=     -1 IRanGd=            0 ICorTp=0
 NAtoms=   50 NActive=   50 NUniq=   50 SFac= 1.00D+00 NAtFMM=   60 NAOKFM=F Big=F
 Leave Link  301 at Wed Aug 31 03:38:07 2022, MaxMem=  209715200 cpu:       0.3
 (Enter /opt/gaussian/l302.exe)
 NPDir=0 NMtPBC=     1 NCelOv=     1 NCel=       1 NClECP=     1 NCelD=      1
         NCelK=      1 NCelE2=     1 NClLst=     1 CellRange=     0.0.
 One-electron integrals computed using PRISM.
 NBasis=   533 RedAO= T  NBF=   533
 NBsUse=   533 1.00D-06 NBFU=   533
 Precomputing XC quadrature grid using
 IXCGrd= 2 IRadAn=           0 IRanWt=          -1 IRanGd=           0 AccXCQ= 0.00D+00.
 NRdTot=    3203 NPtTot=      408608 NUsed=      431692 NTot=      431724
 NSgBfM=   552   552   553   553   553 NAtAll=    50    50.
 Leave Link  302 at Wed Aug 31 03:38:08 2022, MaxMem=  209715200 cpu:       8.5
 (Enter /opt/gaussian/l303.exe)
 DipDrv:  MaxL=1.
 Leave Link  303 at Wed Aug 31 03:38:09 2022, MaxMem=  209715200 cpu:       1.2
 (Enter /opt/gaussian/l401.exe)
 Harris functional with IExCor=  402 diagonalized for initial guess.
 ExpMin= 1.22D-01 ExpMax= 1.11D+05 ExpMxC= 1.07D+03 IAcc=2 IRadAn=         4 AccDes= 0.00D+00
 HarFok:  IExCor=  402 AccDes= 0.00D+00 IRadAn=         4 IDoV= 1
 ScaDFX=  1.000000  1.000000  1.000000  1.000000
 FoFCou: FMM=F IPFlag=           0 FMFlag=      100000 FMFlg1=           0
         NFxFlg=           0 DoJE=T BraDBF=F KetDBF=T FulRan=T
         Omega=  0.000000  0.000000  1.000000  0.000000  0.000000 ICntrl=     500 IOpCl=  0
         NMat0=    1 NMatS0=    1 NMatT0=    0 NMatD0=    1 NMtDS0=    0 NMtDT0=    0
         I1Cent=           4 NGrid=           0.
 Petite list used in FoFCou.
 Harris En= -1673.02049307543    
 Initial guess orbital symmetries:
       Occupied  (A) (A) (A) (A) (A) (A) (A) (A) (A) (A) (A) (A)
                 (A) (A) (A) (A) (A) (A) (A) (A) (A) (A) (A) (A)
                 (A) (A) (A) (A) (A) (A) (A) (A) (A) (A) (A) (A)
                 (A) (A) (A) (A) (A) (A) (A) (A) (A) (A) (A) (A)
                 (A) (A) (A) (A) (A) (A) (A) (A) (A) (A) (A) (A)
                 (A) (A) (A) (A) (A) (A) (A) (A) (A) (A) (A) (A)
                 (A) (A) (A) (A) (A) (A) (A) (A) (A) (A) (A) (A)
                 (A) (A) (A) (A) (A) (A) (A) (A) (A) (A) (A) (A)
                 (A) (A) (A) (A) (A) (A) (A) (A) (A) (A) (A) (A)
                 (A) (A) (A)
       Virtual   (A) (A) (A) (A) (A) (A) (A) (A) (A) (A) (A) (A)
                 (A) (A) (A) (A) (A) (A) (A) (A) (A) (A) (A) (A)
                 (A) (A) (A) (A) (A) (A) (A) (A) (A) (A) (A) (A)
                 (A) (A) (A) (A) (A) (A) (A) (A) (A) (A) (A) (A)
                 (A) (A) (A) (A) (A) (A) (A) (A) (A) (A) (A) (A)
                 (A) (A) (A) (A) (A) (A) (A) (A) (A) (A) (A) (A)
                 (A) (A) (A) (A) (A) (A) (A) (A) (A) (A) (A) (A)
                 (A) (A) (A) (A) (A) (A) (A) (A) (A) (A) (A) (A)
                 (A) (A) (A) (A) (A) (A) (A) (A) (A) (A) (A) (A)
                 (A) (A) (A) (A) (A) (A) (A) (A) (A) (A) (A) (A)
                 (A) (A) (A) (A) (A) (A) (A) (A) (A) (A) (A) (A)
                 (A) (A) (A) (A) (A) (A) (A) (A) (A) (A) (A) (A)
                 (A) (A) (A) (A) (A) (A) (A) (A) (A) (A) (A) (A)
                 (A) (A) (A) (A) (A) (A) (A) (A) (A) (A) (A) (A)
                 (A) (A) (A) (A) (A) (A) (A) (A) (A) (A) (A) (A)
                 (A) (A) (A) (A) (A) (A) (A) (A) (A) (A) (A) (A)
                 (A) (A) (A) (A) (A) (A) (A) (A) (A) (A) (A) (A)
                 (A) (A) (A) (A) (A) (A) (A) (A) (A) (A) (A) (A)
                 (A) (A) (A) (A) (A) (A) (A) (A) (A) (A) (A) (A)
                 (A) (A) (A) (A) (A) (A) (A) (A) (A) (A) (A) (A)
                 (A) (A) (A) (A) (A) (A) (A) (A) (A) (A) (A) (A)
                 (A) (A) (A) (A) (A) (A) (A) (A) (A) (A) (A) (A)
                 (A) (A) (A) (A) (A) (A) (A) (A) (A) (A) (A) (A)
                 (A) (A) (A) (A) (A) (A) (A) (A) (A) (A) (A) (A)
                 (A) (A) (A) (A) (A) (A) (A) (A) (A) (A) (A) (A)
                 (A) (A) (A) (A) (A) (A) (A) (A) (A) (A) (A) (A)
                 (A) (A) (A) (A) (A) (A) (A) (A) (A) (A) (A) (A)
                 (A) (A) (A) (A) (A) (A) (A) (A) (A) (A) (A) (A)
                 (A) (A) (A) (A) (A) (A) (A) (A) (A) (A) (A) (A)
                 (A) (A) (A) (A) (A) (A) (A) (A) (A) (A) (A) (A)
                 (A) (A) (A) (A) (A) (A) (A) (A) (A) (A) (A) (A)
                 (A) (A) (A) (A) (A) (A) (A) (A) (A) (A) (A) (A)
                 (A) (A) (A) (A) (A) (A) (A) (A) (A) (A) (A) (A)
                 (A) (A) (A) (A) (A) (A) (A) (A) (A) (A) (A) (A)
                 (A) (A) (A) (A) (A) (A) (A) (A) (A) (A) (A) (A)
                 (A) (A)
 The electronic state of the initial guess is 1-A.
 Leave Link  401 at Wed Aug 31 03:38:12 2022, MaxMem=  209715200 cpu:      27.4
 (Enter /opt/gaussian/l502.exe)
 Closed shell SCF:
 Requested convergence on RMS density matrix=1.00D-08 within 128 cycles.
 Requested convergence on MAX density matrix=1.00D-06.
 Requested convergence on             energy=1.00D-06.
 No special actions if energy rises.
 Using DIIS extrapolation, IDIIS=  1040.
 Integral symmetry usage will be decided dynamically.
       431229 words used for storage of precomputed grid.
 IEnd=     1412437 IEndB=     1412437 NGot=   209715200 MDV=   208638064
 LenX=   208638064 LenY=   208319404
 Fock matrices will be formed incrementally for  20 cycles.
 Integral accuracy reduced to 1.0D-05 until final iterations.

 Cycle   1  Pass 0  IDiag  1:
 FoFCou: FMM=F IPFlag=           0 FMFlag=      100000 FMFlg1=           0
         NFxFlg=           0 DoJE=F BraDBF=F KetDBF=F FulRan=T
         Omega=  0.000000  0.000000  1.000000  0.000000  0.000000 ICntrl=       0 IOpCl=  0
         NMat0=    1 NMatS0=    1 NMatT0=    0 NMatD0=    1 NMtDS0=    0 NMtDT0=    0
         I1Cent=           0 NGrid=           0.
 Symmetry not used in FoFCou.
 E= -1672.52811280513    
 DIIS: error= 2.47D-02 at cycle   1 NSaved=   1.
 NSaved= 1 IEnMin= 1 EnMin= -1672.52811280513     IErMin= 1 ErrMin= 2.47D-02
 ErrMax= 2.47D-02 EMaxC= 1.00D-01 BMatC= 6.21D-01 BMatP= 6.21D-01
 IDIUse=3 WtCom= 7.53D-01 WtEn= 2.47D-01
 Coeff-Com:  0.100D+01
 Coeff-En:   0.100D+01
 Coeff:      0.100D+01
 Gap=     0.294 Goal=   None    Shift=    0.000
 GapD=    0.294 DampG=1.000 DampE=0.500 DampFc=0.5000 IDamp=-1.
 Damping current iteration by 5.00D-01
 RMSDP=4.27D-03 MaxDP=2.10D-01              OVMax= 3.03D-01

 Cycle   2  Pass 0  IDiag  1:
 RMSU=  1.49D-03    CP:  9.79D-01
 E= -1672.68972564541     Delta-E=       -0.161612840283 Rises=F Damp=T
 DIIS: error= 1.05D-02 at cycle   2 NSaved=   2.
 NSaved= 2 IEnMin= 2 EnMin= -1672.68972564541     IErMin= 2 ErrMin= 1.05D-02
 ErrMax= 1.05D-02 EMaxC= 1.00D-01 BMatC= 1.28D-01 BMatP= 6.21D-01
 IDIUse=3 WtCom= 8.95D-01 WtEn= 1.05D-01
 Coeff-Com:  0.250D+00 0.750D+00
 Coeff-En:   0.374D+00 0.626D+00
 Coeff:      0.263D+00 0.737D+00
 Gap=     0.240 Goal=   None    Shift=    0.000
 RMSDP=1.53D-03 MaxDP=6.87D-02 DE=-1.62D-01 OVMax= 2.58D-01

 Cycle   3  Pass 0  IDiag  1:
 RMSU=  1.01D-03    CP:  9.64D-01  7.59D-01
 E= -1673.11602127302     Delta-E=       -0.426295627605 Rises=F Damp=F
 DIIS: error= 1.19D-02 at cycle   3 NSaved=   3.
 NSaved= 3 IEnMin= 3 EnMin= -1673.11602127302     IErMin= 2 ErrMin= 1.05D-02
 ErrMax= 1.19D-02 EMaxC= 1.00D-01 BMatC= 1.05D-01 BMatP= 1.28D-01
 IDIUse=3 WtCom= 8.81D-01 WtEn= 1.19D-01
 Coeff-Com:  0.795D-01 0.465D+00 0.456D+00
 Coeff-En:   0.000D+00 0.000D+00 0.100D+01
 Coeff:      0.700D-01 0.409D+00 0.521D+00
 Gap=     0.195 Goal=   None    Shift=    0.000
 RMSDP=8.83D-04 MaxDP=5.94D-02 DE=-4.26D-01 OVMax= 1.06D-01

 Cycle   4  Pass 0  IDiag  1:
 RMSU=  4.67D-04    CP:  9.68D-01  8.41D-01  6.10D-01
 E= -1673.18524160497     Delta-E=       -0.069220331954 Rises=F Damp=F
 DIIS: error= 5.78D-03 at cycle   4 NSaved=   4.
 NSaved= 4 IEnMin= 4 EnMin= -1673.18524160497     IErMin= 4 ErrMin= 5.78D-03
 ErrMax= 5.78D-03 EMaxC= 1.00D-01 BMatC= 3.18D-02 BMatP= 1.05D-01
 IDIUse=3 WtCom= 9.42D-01 WtEn= 5.78D-02
 Coeff-Com:  0.237D-01 0.151D+00 0.356D+00 0.469D+00
 Coeff-En:   0.000D+00 0.000D+00 0.270D+00 0.730D+00
 Coeff:      0.224D-01 0.142D+00 0.351D+00 0.484D+00
 Gap=     0.188 Goal=   None    Shift=    0.000
 RMSDP=4.16D-04 MaxDP=2.33D-02 DE=-6.92D-02 OVMax= 4.29D-02

 Cycle   5  Pass 0  IDiag  1:
 RMSU=  1.63D-04    CP:  9.67D-01  8.16D-01  6.94D-01  5.16D-01
 E= -1673.21142996039     Delta-E=       -0.026188355411 Rises=F Damp=F
 DIIS: error= 2.08D-03 at cycle   5 NSaved=   5.
 NSaved= 5 IEnMin= 5 EnMin= -1673.21142996039     IErMin= 5 ErrMin= 2.08D-03
 ErrMax= 2.08D-03 EMaxC= 1.00D-01 BMatC= 3.10D-03 BMatP= 3.18D-02
 IDIUse=3 WtCom= 9.79D-01 WtEn= 2.08D-02
 Coeff-Com:  0.548D-02 0.259D-01 0.160D+00 0.324D+00 0.485D+00
 Coeff-En:   0.000D+00 0.000D+00 0.000D+00 0.889D-01 0.911D+00
 Coeff:      0.537D-02 0.253D-01 0.156D+00 0.319D+00 0.494D+00
 Gap=     0.186 Goal=   None    Shift=    0.000
 RMSDP=1.37D-04 MaxDP=7.93D-03 DE=-2.62D-02 OVMax= 1.59D-02

 Cycle   6  Pass 0  IDiag  1:
 RMSU=  4.34D-05    CP:  9.67D-01  8.12D-01  7.09D-01  6.09D-01  5.53D-01
 E= -1673.21462782487     Delta-E=       -0.003197864489 Rises=F Damp=F
 DIIS: error= 5.72D-04 at cycle   6 NSaved=   6.
 NSaved= 6 IEnMin= 6 EnMin= -1673.21462782487     IErMin= 6 ErrMin= 5.72D-04
 ErrMax= 5.72D-04 EMaxC= 1.00D-01 BMatC= 2.35D-04 BMatP= 3.10D-03
 IDIUse=3 WtCom= 9.94D-01 WtEn= 5.72D-03
 Coeff-Com:  0.837D-03-0.529D-02 0.455D-01 0.123D+00 0.284D+00 0.552D+00
 Coeff-En:   0.000D+00 0.000D+00 0.000D+00 0.000D+00 0.135D-01 0.986D+00
 Coeff:      0.832D-03-0.526D-02 0.452D-01 0.123D+00 0.282D+00 0.554D+00
 Gap=     0.186 Goal=   None    Shift=    0.000
 RMSDP=3.31D-05 MaxDP=2.27D-03 DE=-3.20D-03 OVMax= 4.20D-03

 Cycle   7  Pass 0  IDiag  1:
 RMSU=  1.52D-05    CP:  9.67D-01  8.13D-01  7.11D-01  6.04D-01  5.95D-01
                    CP:  6.30D-01
 E= -1673.21485205698     Delta-E=       -0.000224232102 Rises=F Damp=F
 DIIS: error= 1.69D-04 at cycle   7 NSaved=   7.
 NSaved= 7 IEnMin= 7 EnMin= -1673.21485205698     IErMin= 7 ErrMin= 1.69D-04
 ErrMax= 1.69D-04 EMaxC= 1.00D-01 BMatC= 2.49D-05 BMatP= 2.35D-04
 IDIUse=3 WtCom= 9.98D-01 WtEn= 1.69D-03
 Coeff-Com:  0.179D-03-0.519D-02 0.113D-01 0.389D-01 0.113D+00 0.317D+00
 Coeff-Com:  0.524D+00
 Coeff-En:   0.000D+00 0.000D+00 0.000D+00 0.000D+00 0.000D+00 0.326D-01
 Coeff-En:   0.967D+00
 Coeff:      0.178D-03-0.518D-02 0.113D-01 0.388D-01 0.113D+00 0.317D+00
 Coeff:      0.525D+00
 Gap=     0.185 Goal=   None    Shift=    0.000
 RMSDP=1.06D-05 MaxDP=6.83D-04 DE=-2.24D-04 OVMax= 1.10D-03

 Cycle   8  Pass 0  IDiag  1:
 RMSU=  4.08D-06    CP:  9.67D-01  8.13D-01  7.11D-01  6.08D-01  6.01D-01
                    CP:  6.86D-01  6.44D-01
 E= -1673.21487984739     Delta-E=       -0.000027790412 Rises=F Damp=F
 DIIS: error= 4.63D-05 at cycle   8 NSaved=   8.
 NSaved= 8 IEnMin= 8 EnMin= -1673.21487984739     IErMin= 8 ErrMin= 4.63D-05
 ErrMax= 4.63D-05 EMaxC= 1.00D-01 BMatC= 1.65D-06 BMatP= 2.49D-05
 IDIUse=1 WtCom= 1.00D+00 WtEn= 0.00D+00
 Coeff-Com:  0.156D-03-0.250D-02 0.355D-02 0.130D-01 0.428D-01 0.133D+00
 Coeff-Com:  0.280D+00 0.529D+00
 Coeff:      0.156D-03-0.250D-02 0.355D-02 0.130D-01 0.428D-01 0.133D+00
 Coeff:      0.280D+00 0.529D+00
 Gap=     0.185 Goal=   None    Shift=    0.000
 RMSDP=3.56D-06 MaxDP=2.12D-04 DE=-2.78D-05 OVMax= 3.89D-04

 Initial convergence to 1.0D-05 achieved.  Increase integral accuracy.
 Cycle   9  Pass 1  IDiag  1:
 E= -1673.21502660253     Delta-E=       -0.000146755140 Rises=F Damp=F
 DIIS: error= 1.71D-04 at cycle   1 NSaved=   1.
 NSaved= 1 IEnMin= 1 EnMin= -1673.21502660253     IErMin= 1 ErrMin= 1.71D-04
 ErrMax= 1.71D-04 EMaxC= 1.00D-01 BMatC= 1.15D-05 BMatP= 1.15D-05
 IDIUse=3 WtCom= 9.98D-01 WtEn= 1.71D-03
 Coeff-Com:  0.100D+01
 Coeff-En:   0.100D+01
 Coeff:      0.100D+01
 Gap=     0.185 Goal=   None    Shift=    0.000
 RMSDP=3.56D-06 MaxDP=2.12D-04 DE=-1.47D-04 OVMax= 7.18D-04

 Cycle  10  Pass 1  IDiag  1:
 RMSU=  8.96D-05    CP:  1.00D+00
 E= -1673.21503576394     Delta-E=       -0.000009161410 Rises=F Damp=F
 DIIS: error= 5.24D-05 at cycle   2 NSaved=   2.
 NSaved= 2 IEnMin= 2 EnMin= -1673.21503576394     IErMin= 2 ErrMin= 5.24D-05
 ErrMax= 5.24D-05 EMaxC= 1.00D-01 BMatC= 2.26D-06 BMatP= 1.15D-05
 IDIUse=1 WtCom= 1.00D+00 WtEn= 0.00D+00
 Coeff-Com:  0.203D+00 0.797D+00
 Coeff:      0.203D+00 0.797D+00
 Gap=     0.185 Goal=   None    Shift=    0.000
 RMSDP=7.45D-06 MaxDP=5.47D-04 DE=-9.16D-06 OVMax= 9.38D-04

 Cycle  11  Pass 1  IDiag  1:
 RMSU=  5.20D-06    CP:  1.00D+00  1.01D+00
 E= -1673.21503221637     Delta-E=        0.000003547570 Rises=F Damp=F
 DIIS: error= 8.89D-05 at cycle   3 NSaved=   3.
 NSaved= 3 IEnMin= 2 EnMin= -1673.21503576394     IErMin= 2 ErrMin= 5.24D-05
 ErrMax= 8.89D-05 EMaxC= 1.00D-01 BMatC= 5.94D-06 BMatP= 2.26D-06
 IDIUse=1 WtCom= 1.00D+00 WtEn= 0.00D+00
 Coeff-Com: -0.429D-02 0.621D+00 0.384D+00
 Coeff:     -0.429D-02 0.621D+00 0.384D+00
 Gap=     0.185 Goal=   None    Shift=    0.000
 RMSDP=4.58D-06 MaxDP=3.64D-04 DE= 3.55D-06 OVMax= 6.22D-04

 Cycle  12  Pass 1  IDiag  1:
 RMSU=  5.09D-07    CP:  1.00D+00  1.01D+00  3.88D-01
 E= -1673.21503794233     Delta-E=       -0.000005725966 Rises=F Damp=F
 DIIS: error= 5.98D-06 at cycle   4 NSaved=   4.
 NSaved= 4 IEnMin= 4 EnMin= -1673.21503794233     IErMin= 4 ErrMin= 5.98D-06
 ErrMax= 5.98D-06 EMaxC= 1.00D-01 BMatC= 3.65D-08 BMatP= 2.26D-06
 IDIUse=1 WtCom= 1.00D+00 WtEn= 0.00D+00
 Coeff-Com: -0.439D-02 0.380D+00 0.239D+00 0.385D+00
 Coeff:     -0.439D-02 0.380D+00 0.239D+00 0.385D+00
 Gap=     0.185 Goal=   None    Shift=    0.000
 RMSDP=3.89D-07 MaxDP=2.89D-05 DE=-5.73D-06 OVMax= 4.86D-05

 Cycle  13  Pass 1  IDiag  1:
 RMSU=  1.80D-07    CP:  1.00D+00  1.01D+00  3.94D-01  5.98D-01
 E= -1673.21503797841     Delta-E=       -0.000000036080 Rises=F Damp=F
 DIIS: error= 1.32D-06 at cycle   5 NSaved=   5.
 NSaved= 5 IEnMin= 5 EnMin= -1673.21503797841     IErMin= 5 ErrMin= 1.32D-06
 ErrMax= 1.32D-06 EMaxC= 1.00D-01 BMatC= 1.32D-09 BMatP= 3.65D-08
 IDIUse=1 WtCom= 1.00D+00 WtEn= 0.00D+00
 Coeff-Com: -0.229D-02 0.183D+00 0.116D+00 0.221D+00 0.482D+00
 Coeff:     -0.229D-02 0.183D+00 0.116D+00 0.221D+00 0.482D+00
 Gap=     0.185 Goal=   None    Shift=    0.000
 RMSDP=9.52D-08 MaxDP=4.00D-06 DE=-3.61D-08 OVMax= 1.10D-05

 Cycle  14  Pass 1  IDiag  1:
 RMSU=  5.80D-08    CP:  1.00D+00  1.01D+00  3.95D-01  6.34D-01  8.43D-01
 E= -1673.21503797952     Delta-E=       -0.000000001111 Rises=F Damp=F
 DIIS: error= 5.15D-07 at cycle   6 NSaved=   6.
 NSaved= 6 IEnMin= 6 EnMin= -1673.21503797952     IErMin= 6 ErrMin= 5.15D-07
 ErrMax= 5.15D-07 EMaxC= 1.00D-01 BMatC= 2.21D-10 BMatP= 1.32D-09
 IDIUse=1 WtCom= 1.00D+00 WtEn= 0.00D+00
 Coeff-Com: -0.670D-03 0.494D-01 0.315D-01 0.703D-01 0.306D+00 0.544D+00
 Coeff:     -0.670D-03 0.494D-01 0.315D-01 0.703D-01 0.306D+00 0.544D+00
 Gap=     0.185 Goal=   None    Shift=    0.000
 RMSDP=3.77D-08 MaxDP=1.57D-06 DE=-1.11D-09 OVMax= 3.95D-06

 Cycle  15  Pass 1  IDiag  1:
 RMSU=  1.74D-08    CP:  1.00D+00  1.01D+00  3.94D-01  6.34D-01  8.98D-01
                    CP:  6.99D-01
 E= -1673.21503797971     Delta-E=       -0.000000000182 Rises=F Damp=F
 DIIS: error= 1.66D-07 at cycle   7 NSaved=   7.
 NSaved= 7 IEnMin= 7 EnMin= -1673.21503797971     IErMin= 7 ErrMin= 1.66D-07
 ErrMax= 1.66D-07 EMaxC= 1.00D-01 BMatC= 4.61D-11 BMatP= 2.21D-10
 IDIUse=1 WtCom= 1.00D+00 WtEn= 0.00D+00
 Coeff-Com: -0.305D-04-0.761D-03-0.257D-03 0.609D-02 0.119D+00 0.369D+00
 Coeff-Com:  0.508D+00
 Coeff:     -0.305D-04-0.761D-03-0.257D-03 0.609D-02 0.119D+00 0.369D+00
 Coeff:      0.508D+00
 Gap=     0.185 Goal=   None    Shift=    0.000
 RMSDP=1.54D-08 MaxDP=9.72D-07 DE=-1.82D-10 OVMax= 1.57D-06

 Cycle  16  Pass 1  IDiag  1:
 RMSU=  6.96D-09    CP:  1.00D+00  1.01D+00  3.95D-01  6.37D-01  9.07D-01
                    CP:  7.40D-01  5.65D-01
 E= -1673.21503797970     Delta-E=        0.000000000002 Rises=F Damp=F
 DIIS: error= 7.41D-08 at cycle   8 NSaved=   8.
 NSaved= 8 IEnMin= 7 EnMin= -1673.21503797971     IErMin= 8 ErrMin= 7.41D-08
 ErrMax= 7.41D-08 EMaxC= 1.00D-01 BMatC= 5.48D-12 BMatP= 4.61D-11
 IDIUse=1 WtCom= 1.00D+00 WtEn= 0.00D+00
 Coeff-Com:  0.466D-04-0.540D-02-0.329D-02-0.316D-02 0.452D-01 0.187D+00
 Coeff-Com:  0.329D+00 0.450D+00
 Coeff:      0.466D-04-0.540D-02-0.329D-02-0.316D-02 0.452D-01 0.187D+00
 Coeff:      0.329D+00 0.450D+00
 Gap=     0.185 Goal=   None    Shift=    0.000
 RMSDP=5.68D-09 MaxDP=2.81D-07 DE= 1.82D-12 OVMax= 6.16D-07

 SCF Done:  E(RB3LYP) =  -1673.21503798     A.U. after   16 cycles
             Convg  =    0.5683D-08             -V/T =  2.0049
 KE= 1.664982212281D+03 PE=-1.002389887594D+04 EE= 3.628323500345D+03
 Leave Link  502 at Wed Aug 31 03:51:59 2022, MaxMem=  209715200 cpu:    6597.1
 (Enter /opt/gaussian/l601.exe)
 Copying SCF densities to generalized density rwf, IOpCl= 0 IROHF=0.

 **********************************************************************

            Population analysis using the SCF density.

 **********************************************************************

 Orbital symmetries:
       Occupied  (A) (A) (A) (A) (A) (A) (A) (A) (A) (A) (A) (A)
                 (A) (A) (A) (A) (A) (A) (A) (A) (A) (A) (A) (A)
                 (A) (A) (A) (A) (A) (A) (A) (A) (A) (A) (A) (A)
                 (A) (A) (A) (A) (A) (A) (A) (A) (A) (A) (A) (A)
                 (A) (A) (A) (A) (A) (A) (A) (A) (A) (A) (A) (A)
                 (A) (A) (A) (A) (A) (A) (A) (A) (A) (A) (A) (A)
                 (A) (A) (A) (A) (A) (A) (A) (A) (A) (A) (A) (A)
                 (A) (A) (A) (A) (A) (A) (A) (A) (A) (A) (A) (A)
                 (A) (A) (A) (A) (A) (A) (A) (A) (A) (A) (A) (A)
                 (A) (A) (A)
       Virtual   (A) (A) (A) (A) (A) (A) (A) (A) (A) (A) (A) (A)
                 (A) (A) (A) (A) (A) (A) (A) (A) (A) (A) (A) (A)
                 (A) (A) (A) (A) (A) (A) (A) (A) (A) (A) (A) (A)
                 (A) (A) (A) (A) (A) (A) (A) (A) (A) (A) (A) (A)
                 (A) (A) (A) (A) (A) (A) (A) (A) (A) (A) (A) (A)
                 (A) (A) (A) (A) (A) (A) (A) (A) (A) (A) (A) (A)
[...]
 196,0.00000154,0.00000106,-0.00000286,0.00000992,0.00001008,-0.0000148
 3,-0.00000167,-0.00001904,0.00001474,-0.00004010,0.00002542,0.00013071
 ,0.00042126,-0.00060596,0.00087929,0.00000392,-0.00003676,-0.00001133,
 0.09686783,0.10513013,0.00000713,0.00001876,-0.00000796,-0.00000697,-0
 .00004464,0.00001363,-0.00000653,-0.00000588,0.00000049,0.00001178,0.0
 0002114,0.00000382,0.00001481,-0.00000014,-0.00002039,0.00000129,0.000
 00057,0.00000169,-0.00000200,-0.00000082,0.00000483,-0.00002410,-0.000
 00007,0.00000639,0.00000132,-0.00000283,0.00000305,0.00000161,-0.00000
 379,-0.00000106,0.00000832,-0.00000584,-0.00000289,-0.00000500,-0.0000
 0142,0.00000539,-0.00000715,-0.00003245,0.00001297,-0.00001897,-0.0000
 0170,0.00002001,-0.00001229,-0.00000567,-0.00000893,-0.00000028,0.0000
 1426,-0.00000424,-0.00001159,0.00000634,-0.00000874,0.00001088,0.00000
 491,0.00000714,0.00001147,-0.00001440,0.00001476,0.00019244,0.00018639
 ,0.00046273,-0.00053771,0.00012972,-0.00019753,0.00051661,-0.00071660,
 -0.00047956,-0.00135865,0.00205726,-0.00184529,-0.00008245,0.00083587,
 0.00020231,0.00043659,-0.00029284,-0.00036526,-0.00936362,-0.00594173,
 0.00294965,-0.06911741,-0.03860551,-0.06622978,0.00334437,0.00459358,-
 0.00209454,0.00009676,-0.00279003,0.00985111,0.00058362,-0.00036754,-0
 .00052923,-0.00079934,-0.00395193,0.00467112,0.00000073,-0.00000415,0.
 00000203,0.00000280,0.00000182,0.00000061,-0.00000333,0.00000234,0.000
 00063,0.00000316,0.00000338,-0.00000345,0.00000214,0.00000333,-0.00000
 112,0.00000009,0.00000223,0.00000040,-0.00000320,-0.00000015,-0.000000
 98,0.00000077,0.00000055,-0.00001031,-0.00000214,-0.00000073,0.0000003
 4,0.00000378,0.00000004,0.00000402,0.00000380,-0.00000492,-0.00000924,
 0.00001090,-0.00000295,-0.00000686,0.00002771,0.00000145,-0.00000220,-
 0.00040474,0.00035611,0.00019337,-0.00000747,0.00002204,-0.00000548,0.
 07669964,0.04416314,0.05484009,-0.00005378,0.00004355,-0.00001562,0.00
 003567,-0.00008952,0.00005754,0.00000190,-0.00001391,-0.00000397,0.000
 00610,0.00001539,0.00000774,0.00000224,-0.00000057,-0.00002281,0.00000
 973,0.00000715,0.00000115,-0.00000114,-0.00000186,0.00000394,-0.000010
 88,-0.00000348,0.00000727,0.00000445,0.00000649,-0.00000087,-0.0000055
 3,0.00000509,0.00000326,-0.00000289,0.00000332,-0.00000217,-0.00000368
 ,-0.00000018,-0.00000544,-0.00004555,0.00005250,-0.00001473,0.00002310
 ,0.00002782,-0.00001688,-0.00000803,0.00000180,-0.00000101,0.00000476,
 0.00000382,0.00000939,-0.00000783,-0.00000377,-0.00000882,0.00000211,-
 0.00000246,0.00000893,-0.00000791,-0.00000247,0.00000086,0.00003975,-0
 .00003479,-0.00000791,0.00000391,0.00001526,0.00004526,-0.00010927,0.0
 0007379,-0.00005585,0.00015363,0.00004645,0.00038613,0.00001007,0.0000
 0588,-0.00002972,0.00002321,0.00002829,0.00001749,-0.00023763,-0.00023
 570,-0.00011335,-0.00195750,-0.00122015,-0.00265103,-0.03251896,0.0117
 6178,-0.00047729,-0.21025683,0.13441925,0.02274320,0.00573003,-0.00395
 155,-0.00172960,0.00116658,-0.00066130,-0.00127025,0.00000066,-0.00000
 301,0.00000821,0.00000044,0.00000479,0.00000345,-0.00000051,-0.0000047
 3,0.00000524,-0.00000002,-0.00000261,0.00000023,0.00000183,-0.00000196
 ,0.00000118,0.00000011,-0.00000168,0.00000133,-0.00000943,-0.00000127,
 0.00000072,0.00000385,-0.00000126,-0.00000687,0.00000415,-0.00000012,-
 0.00000068,0.00000281,0.00000014,-0.00000199,0.00000383,0.00000316,-0.
 00000709,-0.00001445,0.00000634,0.00000706,0.00000837,0.00000106,0.000
 00285,0.00002154,-0.00002341,0.00005830,-0.00000867,0.00000100,-0.0000
 0520,-0.00066546,0.00065337,0.00001917,0.23811455,0.00003802,-0.000028
 99,0.00001010,-0.00002696,0.00005772,-0.00003717,-0.00000536,0.0000081
 1,-0.00000198,-0.00000295,-0.00000679,-0.00000088,0.00000041,-0.000001
 38,0.00001045,-0.00000581,-0.00000610,0.00000325,-0.00000551,0.0000017
 5,0.00000027,0.00000154,0.00000367,-0.00000439,-0.00000532,-0.00000651
 ,0.00000054,0.00000560,-0.00000973,-0.00001372,0.00001409,-0.00000790,
 0.00000388,0.00000227,-0.00000255,0.00001221,0.00003593,-0.00002572,0.
 00001041,-0.00001465,-0.00001979,0.00001217,0.00000508,-0.00000268,0.0
 0000003,-0.00000359,-0.00000186,-0.00000599,0.00000528,0.00000336,0.00
 000560,-0.00000120,0.00000305,-0.00000409,0.00000489,0.00000061,0.0000
 0075,-0.00004306,-0.00001372,-0.00003327,0.00005431,0.00003926,0.00006
 256,-0.00010975,0.00003866,-0.00007345,-0.00017612,-0.00001384,0.00063
 633,0.00013377,-0.00005237,-0.00002546,-0.00000909,0.00004658,0.000043
 76,-0.00083241,-0.00039140,-0.00013788,-0.00336681,0.00269790,-0.00365
 001,-0.01156523,0.01171753,0.00418783,0.13483251,-0.16701898,-0.025557
 29,0.02335669,-0.01125804,-0.00278979,-0.00174258,-0.00351427,-0.00443
 367,-0.00000062,0.00000252,-0.00000488,0.00000093,-0.00000296,-0.00000
 155,0.00000172,0.00000316,-0.00000346,0.00000071,0.00000212,0.00000198
 ,-0.00000050,0.00000277,-0.00000379,0.00000138,0.00000572,-0.00000055,
 0.00000659,0.00000121,-0.00000063,-0.00000217,0.00000040,0.00000484,-0
 .00000283,0.00000001,0.00000008,-0.00000111,0.00000026,0.00000088,-0.0
 0000169,-0.00000210,0.00000296,-0.00000697,-0.00000113,-0.00000124,-0.
 00000908,0.00001782,0.00006090,0.00001337,-0.00000042,0.00002085,0.000
 00708,-0.00000637,0.00000525,-0.00038801,0.00028748,-0.00016403,-0.140
 85813,0.16799053,-0.00000930,0.00001461,-0.00001050,0.00000342,-0.0000
 3215,0.00003012,-0.00000449,-0.00000738,-0.00000308,0.00000778,0.00001
 007,0.00000134,0.00001141,-0.00000197,-0.00001387,0.00000351,0.0000016
 6,0.00000146,0.,0.00000151,0.00000343,-0.00001651,-0.00000026,0.000005
 09,-0.00000027,-0.00000201,-0.00000105,-0.00000144,-0.00000149,0.00000
 209,0.00000612,-0.00000740,-0.00000317,-0.00000547,-0.00000048,0.00000
 753,-0.00001346,0.00000669,0.00000555,-0.00000416,0.00000987,-0.000005
 76,-0.00000287,0.00000096,0.00000025,0.00000189,0.00000096,0.00000076,
 -0.00000282,-0.00000115,-0.00000231,0.00000134,-0.00000079,0.00000031,
 -0.00000021,-0.00000082,0.00000004,0.00004890,0.00008815,0.00014974,-0
 .00018268,-0.00000143,-0.00011359,0.00026409,-0.00012733,0.00002714,0.
 00054266,0.00049902,-0.00140440,-0.00030335,0.00013363,-0.00001885,0.0
 0010107,-0.00018457,-0.00006026,-0.00040632,0.00033628,-0.00041278,-0.
 00355610,-0.00355668,0.00833217,-0.00945505,0.00875904,-0.00240506,0.0
 2263477,-0.02593301,-0.04703893,0.00912817,-0.00741673,0.00510289,-0.0
 0171804,-0.00438818,0.00496138,0.00000104,-0.00000122,0.00000143,0.000
 00188,0.00000165,0.00000143,-0.00000205,0.00000054,0.00000134,0.000001
 24,0.00000305,-0.00000436,0.00000245,0.00000403,0.00000053,0.00000013,
 0.00000100,0.00000011,-0.00000439,-0.00000131,0.00000103,0.00000042,0.
 00000091,-0.00000423,0.,-0.00000013,0.00000052,-0.00000007,-0.00000007
 ,0.00000059,0.00000010,0.00000056,-0.00000044,0.00001865,-0.00000018,-
 0.00000470,-0.00001199,-0.00001997,0.00001110,-0.00001415,0.00000582,-
 0.00001515,-0.00000109,0.00000826,-0.00000692,-0.00035754,0.00006232,0
 .00050467,-0.01763273,0.03063553,0.03511890,-0.00006414,0.00006919,-0.
 00003042,0.00003269,-0.00014962,0.00010681,-0.00001539,-0.00002858,-0.
 00002344,0.00002781,0.00003808,0.00002107,0.00002544,-0.00000982,-0.00
 005842,0.00002753,0.00001175,0.00000957,-0.00000775,0.00000150,0.00001
 474,-0.00003658,-0.00000285,0.00001866,0.00000699,0.00000669,-0.000001
 48,-0.00000780,-0.00000549,-0.00000455,-0.00000449,-0.00001683,-0.0000
 0205,-0.00001539,-0.00000664,0.00000950,-0.00006519,0.00008353,-0.0000
 2010,0.00002258,0.00004275,-0.00002916,-0.00000882,0.00000234,0.000000
 99,0.00000555,0.00000248,0.00001138,-0.00000805,-0.00000539,-0.0000099
 0,0.00000137,-0.00000324,0.00000863,-0.00000935,-0.00000045,-0.0000000
 8,0.00005674,-0.00004825,-0.00002292,0.00000959,0.00002428,0.00000705,
 -0.00006534,0.00004514,-0.00007320,-0.00030086,-0.00096907,-0.00061315
 ,-0.00026616,0.00021724,0.00018797,-0.00003098,0.00003670,-0.00008702,
 -0.00124315,0.00442159,-0.00001315,0.00052597,0.00065618,0.00040853,0.
 00174050,-0.00044613,-0.00123304,-0.00008069,0.00234414,0.00075543,-0.
 28757263,-0.08061752,-0.07558722,-0.01688627,-0.01074039,-0.00744547,0
 .00000146,-0.00000295,0.00001381,0.00000574,0.00000818,0.00000830,0.00
 000190,-0.00000499,0.00000946,-0.00000291,0.00000260,-0.00000958,0.000
 01465,0.00001722,-0.00000599,-0.00000225,0.00000931,0.00000463,-0.0000
 1560,-0.00000304,0.00000256,0.00000636,-0.00000152,-0.00001036,0.00000
 429,-0.00000066,-0.00000065,0.00000211,-0.00000003,-0.00000226,0.00000
 404,0.00000437,-0.00000726,-0.00001846,0.00001093,0.00000925,-0.000004
 11,-0.00002130,0.00000614,0.00000401,-0.00002672,0.00001298,-0.0000353
 7,0.00002354,-0.00000632,-0.00011465,-0.00017086,0.00023315,0.00037428
 ,-0.00052076,0.00037031,0.30310189,-0.00000501,-0.00001250,0.00000988,
 0.00001526,0.00003253,-0.00002695,0.00001601,0.00000858,0.00001651,-0.
 00001890,-0.00001450,-0.00000624,-0.00002676,0.00000547,0.00002248,-0.
 00000755,-0.00000297,-0.00000629,0.00000589,-0.00000245,-0.00000878,0.
 00002265,-0.00000131,-0.00000844,-0.00000216,0.00000111,-0.00000016,-0
 .00000107,0.00001190,0.00001046,0.00000433,0.00002054,-0.00000072,0.00
 000829,0.00000512,-0.00001732,-0.00000404,-0.00002201,0.00001022,0.000
 00417,-0.00000264,-0.00000105,-0.00000084,0.00000012,0.00000020,-0.000
 00027,0.00000116,0.00000026,0.00000026,-0.00000034,0.,-0.00000056,-0.0
 0000098,0.00000098,-0.00000082,-0.00000018,0.,0.00000314,0.00000821,-0
 .00000204,-0.00001228,-0.00001834,-0.00001764,-0.00002885,-0.00002896,
 0.00007367,0.00067782,0.00065039,0.00028550,0.00014163,-0.00019331,-0.
 00006008,0.00000335,-0.00000417,0.00008971,0.00390192,-0.00069409,-0.0
 0287182,0.00180821,-0.00163937,-0.00021735,-0.00108879,-0.00470817,-0.
 00512348,-0.02771049,-0.00125870,-0.00576460,-0.08071316,-0.08467843,-
 0.03263554,0.01788632,0.00972087,0.00573305,-0.00000036,-0.00000010,-0
 .00000326,-0.00000452,-0.00000202,-0.00000373,-0.00000228,-0.00000096,
 -0.00000261,0.00000232,-0.00000467,0.00000792,-0.00001199,-0.00002003,
 0.00000839,0.00000316,-0.00001054,-0.00000389,0.00000204,0.00000077,-0
 .00000107,-0.00000104,-0.00000066,0.00000174,0.00000103,0.00000036,-0.
 00000019,0.00000099,0.,-0.00000055,0.00000024,-0.00000077,-0.00000065,
 0.00000783,0.00000054,-0.00000438,-0.00001751,0.00001877,-0.00003179,0
 .00000364,0.00001730,0.00001549,0.00002142,-0.00001065,-0.00000179,-0.
 00033676,-0.00005504,0.00063711,0.00024361,0.00023324,0.00129065,0.085
 94147,0.08222523,-0.00001072,0.00001930,-0.00001168,-0.00000132,-0.000
 04164,0.00003278,-0.00000576,-0.00000697,-0.00000765,0.00000981,0.0000
 0509,-0.00000623,0.00002690,0.00000162,-0.00001035,-0.00000420,0.00000
 614,-0.00000060,0.00000925,-0.00000088,-0.00000008,-0.00001607,-0.0000
 0156,0.00000506,-0.00000379,-0.00000400,-0.00000464,0.00000053,0.00000
 257,0.00002008,-0.00001165,-0.00000949,-0.00001072,-0.00000450,0.00000
 585,0.00001006,-0.00000160,0.00003151,-0.00002277,0.00000230,0.0000041
 0,0.00000061,-0.00000121,0.00000035,-0.00000137,0.00000130,0.00000199,
 0.00000106,-0.00000299,-0.00000047,-0.00000230,0.00000199,-0.00000055,
 0.00000202,-0.00000083,-0.00000127,0.00000044,-0.00000084,-0.00000288,
 0.00000707,0.00000914,-0.00001586,0.00001303,-0.00000456,0.00006327,-0
 .00004600,0.00018990,-0.00014643,0.00037625,0.00011134,0.00000627,-0.0
 0006563,0.00002549,-0.00003753,0.00000182,-0.00039430,-0.00253081,0.00
 718724,0.00081463,-0.00028914,-0.00028082,-0.00120654,-0.00526083,0.00
 557406,-0.01125651,-0.00071826,-0.00115225,-0.07555340,-0.03232930,-0.
 06243058,0.00355068,0.00087048,0.00379105,0.00000031,-0.00000128,0.000
 00307,0.00000165,0.00000227,0.00000259,-0.00000260,0.00000010,0.000002
 28,-0.00000259,0.00000566,-0.00001532,0.00000661,0.00001239,0.00000637
 ,-0.00000159,-0.00000507,0.00000002,-0.00000217,-0.00000064,0.00000069
 ,0.00000122,0.00000072,-0.00000282,0.00000029,-0.00000036,0.00000038,0
 .00000056,0.00000007,0.00000006,0.00000026,0.00000083,-0.00000117,-0.0
 0000017,-0.00000258,0.00000496,0.00005027,-0.00002205,-0.00000457,0.00
 001008,-0.00000312,-0.00001446,-0.00000034,-0.00000761,0.00000324,0.00
 016044,0.00061934,-0.00151534,0.00069344,0.00115861,-0.00244131,0.0822
 0197,0.03700474,0.05445765,0.00009892,-0.00008603,0.00002901,-0.000051
 46,0.00017830,-0.00010550,0.00000145,0.00002363,0.00001494,-0.00004625
 ,-0.00002347,0.00000161,-0.00003554,-0.00000785,0.00003779,-0.00002285
 ,-0.00001861,0.00000834,0.00000088,0.00001108,-0.00000892,0.00003314,-
 0.00001726,-0.00002958,-0.00004554,0.00001853,-0.00002933,0.00001619,-
 0.00001210,0.00002160,0.00001660,0.00003498,0.00000945,0.00005800,0.00
 001423,-0.00001358,0.00009534,-0.00011689,0.00009086,-0.00005677,-0.00
 005126,0.00002677,0.00000815,-0.00000942,0.00000089,-0.00001185,0.0000
 0110,-0.00001796,0.00001496,0.00000943,0.00001517,-0.00000243,0.000007
 59,-0.00000732,0.00001381,0.00000007,0.00000518,-0.00002691,0.00015292
 ,0.00021435,-0.00014413,0.00042585,0.00009178,-0.00055099,0.00000361,-
 0.00031174,0.00128451,-0.00085172,0.00056176,-0.00012733,0.00007288,-0
 .00023488,0.00022653,-0.00015973,-0.00000901,0.00264646,-0.02516578,-0
 .00975468,-0.00523719,-0.00077226,-0.00263031,-0.00054049,-0.00009649,
 0.00056884,-0.00405716,0.00320562,-0.00099228,0.00700887,0.02402754,0.
 00929690,-0.05967601,-0.02350308,-0.01251170,-0.00000036,0.00000575,-0
 .00001948,-0.00000061,-0.00001037,-0.00000916,-0.00000394,0.00000758,-
 0.00001178,0.00000398,-0.00000058,0.00001409,-0.00003659,-0.00005162,0
 .00001701,0.00001047,-0.00001071,-0.00001194,0.00001600,0.00000305,-0.
 00000141,-0.00000763,0.00000131,0.00001103,-0.00000711,-0.00000035,0.0
 0000053,0.00000097,0.00000097,0.00000114,-0.00000464,-0.00000935,0.000
 00466,-0.00003257,-0.00002015,0.00000145,-0.00077646,0.00001813,0.0007
 5861,0.00003415,-0.00002487,0.00010524,0.00001426,-0.00000568,0.000008
 97,0.00006013,-0.00147807,-0.00047191,0.00017230,0.00118609,0.00055517
 ,0.00087884,-0.00073096,0.00060990,0.05878794,0.00001193,-0.00002209,0
 .00000862,0.00000265,0.00005025,-0.00002591,0.00001042,0.00000717,0.00
 001021,-0.00002402,-0.00000958,-0.00000244,-0.00002743,-0.00000094,0.0
 0001611,-0.00000296,-0.00000982,0.00000487,0.00006429,-0.00000840,-0.0
 0000526,-0.00000564,0.00003237,-0.00001736,-0.00000879,-0.00012296,0.0
 0004905,0.00007885,-0.00000407,0.00007070,-0.00008960,0.00000771,0.000
 04974,0.00000285,-0.00001608,-0.00011492,0.00003962,-0.00003297,0.0000
 4812,-0.00001209,-0.00000099,-0.00000524,0.00000111,-0.00000374,0.0000
 0296,-0.00000330,0.00000163,-0.00000244,0.00000480,0.00000165,0.000003
 41,-0.00000160,0.00000117,0.00000087,0.00000080,0.00000099,0.00000155,
 -0.00006904,-0.00006648,-0.00002060,0.00020294,0.00013280,0.00035217,-
 0.00003132,0.00023943,-0.00068515,0.00069383,-0.00024762,0.00131557,-0
 .00004772,0.00014149,-0.00009352,0.00006759,0.00003107,0.00004803,0.00
 190241,-0.00669967,-0.00407479,-0.00200222,0.00256254,-0.00234374,-0.0
 0011871,-0.00018373,0.00143863,0.00437689,0.00122647,-0.00200056,-0.00
 473185,-0.01199512,-0.00724337,-0.02400283,-0.29915171,-0.09706769,-0.
 00000065,0.00000218,-0.00000483,-0.00000282,-0.00000254,-0.00000372,-0
 .00000443,0.00000294,-0.00000449,0.00000242,-0.00000063,-0.00001469,0.
 00000071,-0.00002035,0.00000809,-0.00000258,-0.00002734,0.00000231,0.0
 0000042,0.00000069,0.00000064,-0.00000099,-0.00000224,0.00000340,-0.00
 000044,-0.00000004,-0.00000038,0.00000173,0.00000031,-0.00000097,-0.00
 000027,-0.00000304,-0.00000163,-0.00000857,0.00005495,-0.00003581,0.00
 030067,0.00020933,0.00047812,0.00004314,-0.00002466,0.00006570,-0.0000
 1964,-0.00001373,0.00001507,0.00011422,-0.00044569,-0.00009957,-0.0003
 1120,-0.00076986,-0.00019007,-0.00021807,0.00042665,0.00161729,0.02382
 440,0.31475235,0.00002655,0.00002624,-0.00002314,-0.00003751,-0.000074
 36,0.00006166,-0.00003882,-0.00002053,-0.00003462,0.00004078,0.0000140
 5,-0.00001879,0.00012226,0.00000995,-0.00003139,-0.00003191,0.00001664
 ,0.00000666,0.00001526,0.00003293,0.00000658,-0.00006721,-0.00000941,0
 .00001934,-0.00009443,0.00002191,-0.00002951,-0.00001781,-0.00011361,-
 0.00009344,0.00015609,-0.00010249,0.00002218,-0.00010440,0.00004131,0.
 00016475,-0.00002250,0.00003472,-0.00001241,-0.00002836,-0.00001381,0.
 00000756,-0.00000304,-0.00000288,-0.00000368,-0.00000207,0.00000258,-0
 .00000435,-0.00000037,0.00000296,0.00000025,0.00000337,0.00000463,0.00
 000182,0.00000409,-0.00000333,0.00000404,0.00016923,0.00015345,0.00038
 010,-0.00043715,0.00020419,-0.00028857,0.00094476,0.00021372,0.0003302
 9,0.00227850,0.00021292,-0.00319636,-0.00094987,0.00032226,-0.00027032
 ,0.00016363,-0.00044340,-0.00023081,-0.00115283,-0.00851760,0.00170534
 ,-0.00297962,-0.00258350,0.00631092,0.00017666,0.00158699,-0.00330578,
 -0.00031684,-0.00220325,0.00796227,-0.00114800,-0.00261127,0.00384938,
 -0.01219365,-0.09594663,-0.07728662,-0.00000063,-0.00000275,0.00000141
 ,0.00001091,0.00000319,0.00000637,-0.00000075,0.00000953,-0.00000283,0
 .00000503,0.00004160,-0.00004081,0.00001475,0.00006173,-0.00001182,-0.
 00000244,-0.00001661,-0.00000693,0.00000096,-0.00000014,0.00000049,0.0
 0000162,0.00000474,-0.00000606,-0.00000348,-0.00000141,0.00000079,0.00
 000114,0.00000059,0.00000051,-0.00000062,-0.00000147,-0.00000094,0.000
 03220,-0.00000270,0.00000011,0.00049196,-0.00018079,-0.00002454,0.0000
 0876,0.00005670,-0.00001108,-0.00002234,0.00001283,-0.00000346,0.00003
 584,-0.00034891,-0.00042689,-0.00001146,0.00005714,-0.00030225,0.00086
 428,0.00160345,-0.00345529,0.01409944,0.10844792,0.06827988\\0.0000063
 8,-0.00000392,-0.00000053,-0.00000976,0.00000356,-0.00000425,-0.000002
 95,-0.00000278,-0.00000623,-0.00000437,0.00000428,0.00000946,-0.000003
 42,-0.00000277,-0.00001020,0.00000481,-0.00000303,0.00000487,-0.000002
 31,0.00000656,-0.00000828,0.00000539,-0.00000281,-0.00000407,-0.000000
 59,-0.00000320,-0.00000007,-0.00000189,0.00000036,-0.00000006,-0.00000
 357,-0.00000018,-0.00000214,-0.00000118,0.00000224,-0.00000355,0.00000
 247,0.00000082,0.00001168,-0.00000085,-0.00000099,-0.00000388,-0.00000
 155,-0.00000163,0.00000555,0.00000151,-0.00000302,0.00000248,0.0000044
 8,-0.00000221,0.00000608,0.00000157,0.00000298,0.00000296,0.00000193,-
 0.00000432,-0.00000450,0.00000280,-0.00000376,-0.00000486,-0.00000166,
 0.00000203,-0.00000162,-0.00000067,-0.00000045,0.00000033,-0.00000249,
 0.00000227,0.00000162,0.00000140,0.00000168,0.00000090,0.00000014,-0.0
 0000101,0.00000235,0.00000012,-0.00000160,0.00000060,0.00000582,0.0000
 0309,0.00000140,-0.00000017,-0.00000265,0.00000104,-0.00000170,0.00000
 699,0.00000730,0.00000361,-0.00000419,-0.00000096,-0.00000043,0.000002
 93,-0.00000007,0.00000112,-0.00000181,-0.00000020,-0.00000078,-0.00000
 026,-0.00000363,-0.00000171,-0.00000080,-0.00000133,-0.00000025,-0.000
 00037,-0.00000175,-0.00000047,0.00000055,-0.00000282,-0.00000099,0.000
 00183,-0.00000257,-0.00000090,0.00000129,-0.00000159,0.00000032,0.0000
 0154,0.00000148,-0.00000215,-0.00000366,-0.00000269,-0.00000248,-0.000
 00132,0.00000106,0.00000121,0.00000188,0.00000247,-0.00000067,0.000001
 14,-0.00000079,0.00000163,0.00000143,-0.00000035,0.00000133,-0.0000024
 0,0.00000175,0.00000059,-0.00000108,0.00000056,-0.00000205,0.00000096,
 0.00000364,0.00000336,0.00000140,0.00000203,0.00000055,0.00000217,0.00
 000032,-0.00000050,0.00000221,0.00000110\\\@


 THESE ARE THE TIMES THAT TRY MENS SOULS.
 THE SUMMER SOLDIER AND THE SUNSHINE PATRIOT WILL IN THIS CRISIS,
 SHRINK FROM THE SERVICE OF HIS COUNTRY.  BUT HE THAT STANDS NOW,
 DESERVES THE LOVE AND THANKS OF MAN AND WOMAN.
 TYRANNY, LIKE HELL, IS NOT EASILY CONQUERED,
 YET WE HAVE THIS CONSOLATION WITH US,
 THAT THE HARDER THE CONFLICT, THE MORE GLORIOUS THE TRIUMPH.
 WHAT WE OBTAIN TOO CHEAP, WE ESTEEM TOO LIGHTLY, 
 'TIS DEARNESS ONLY THAT GIVES EVERYTHING ITS VALUE.

                                              -- TOM PAINE
 Job cpu time:  1 days  0 hours 19 minutes 44.4 seconds.
 File lengths (MBytes):  RWF=   1603 Int=      0 D2E=      0 Chk=     23 Scr=      1
 Normal termination of Gaussian 09 at Wed Aug 31 10:33:53 2022.
