 Entering Gaussian System, Link 0=g09
 Input=Mol09.gjf
 Output=Mol09.log
 Initial command:
 /opt/gaussian/l1.exe /home/scr/lqcapf-6/Gau-50615.inp -scrdir=/home/scr/lqcapf-6/
 Entering Link 1 = /opt/gaussian/l1.exe PID=     50617.
  
 Copyright (c) 1988,1990,1992,1993,1995,1998,2003,2009,2011,
            Gaussian, Inc.  All Rights Reserved.
  
 This is part of the Gaussian(R) 09 program.  It is based on
 the Gaussian(R) 03 system (copyright 2003, Gaussian, Inc.),
 the Gaussian(R) 98 system (copyright 1998, Gaussian, Inc.),
 the Gaussian(R) 94 system (copyright 1995, Gaussian, Inc.),
 the Gaussian 92(TM) system (copyright 1992, Gaussian, Inc.),
 the Gaussian 90(TM) system (copyright 1990, Gaussian, Inc.),
 the Gaussian 88(TM) system (copyright 1988, Gaussian, Inc.),
 the Gaussian 86(TM) system (copyright 1986, Carnegie Mellon
 University), and the Gaussian 82(TM) system (copyright 1983,
 Carnegie Mellon University). Gaussian is a federally registered
 trademark of Gaussian, Inc.
  
 This software contains proprietary and confidential information,
 including trade secrets, belonging to Gaussian, Inc.
  
 This software is provided under written license and may be
 used, copied, transmitted, or stored only in accord with that
 written license.
  
 The following legend is applicable only to US Government
 contracts under FAR:
  
                    RESTRICTED RIGHTS LEGEND
  
 Use, reproduction and disclosure by the US Government is
 subject to restrictions as set forth in subparagraphs (a)
 and (c) of the Commercial Computer Software - Restricted
 Rights clause in FAR 52.227-19.
  
 Gaussian, Inc.
 340 Quinnipiac St., Bldg. 40, Wallingford CT 06492
  
  
 ---------------------------------------------------------------
 Warning -- This program may not be used in any manner that
 competes with the business of Gaussian, Inc. or will provide
 assistance to any competitor of Gaussian, Inc.  The licensee
 of this program is prohibited from giving any competitor of
 Gaussian, Inc. access to this program.  By using this program,
 the user acknowledges that Gaussian, Inc. is engaged in the
 business of creating and licensing software in the field of
 computational chemistry and represents and warrants to the
 licensee that it is not a competitor of Gaussian, Inc. and that
 it will not use this program in any manner prohibited above.
 ---------------------------------------------------------------
  

 Cite this work as:
 Gaussian 09, Revision C.01,
 M. J. Frisch, G. W. Trucks, H. B. Schlegel, G. E. Scuseria, 
 M. A. Robb, J. R. Cheeseman, G. Scalmani, V. Barone, B. Mennucci, 
 G. A. Petersson, H. Nakatsuji, M. Caricato, X. Li, H. P. Hratchian, 
 A. F. Izmaylov, J. Bloino, G. Zheng, J. L. Sonnenberg, M. Hada, 
 M. Ehara, K. Toyota, R. Fukuda, J. Hasegawa, M. Ishida, T. Nakajima, 
 Y. Honda, O. Kitao, H. Nakai, T. Vreven, J. A. Montgomery, Jr., 
 J. E. Peralta, F. Ogliaro, M. Bearpark, J. J. Heyd, E. Brothers, 
 K. N. Kudin, V. N. Staroverov, T. Keith, R. Kobayashi, J. Normand, 
 K. Raghavachari, A. Rendell, J. C. Burant, S. S. Iyengar, J. Tomasi, 
 M. Cossi, N. Rega, J. M. Millam, M. Klene, J. E. Knox, J. B. Cross, 
 V. Bakken, C. Adamo, J. Jaramillo, R. Gomperts, R. E. Stratmann, 
 O. Yazyev, A. J. Austin, R. Cammi, C. Pomelli, J. W. Ochterski, 
 R. L. Martin, K. Morokuma, V. G. Zakrzewski, G. A. Voth, 
 P. Salvador, J. J. Dannenberg, S. Dapprich, A. D. Daniels, 
 O. Farkas, J. B. Foresman, J. V. Ortiz, J. Cioslowski, 
 and D. J. Fox, Gaussian, Inc., Wallingford CT, 2010.
 
 ******************************************
 Gaussian 09:  EM64L-G09RevC.01 23-Sep-2011
                31-Aug-2022 
 ******************************************
 %nprocshared=8
 Will use up to    8 processors via shared memory.
 %mem=1600MB
 -------------------------
 #p opt freq b3lyp/cc-pvdz
 -------------------------
 1/14=-1,18=20,19=15,26=3,38=1/1,3;
 2/9=110,12=2,17=6,18=5,40=1/2;
 3/5=16,11=2,16=1,25=1,30=1,71=1,74=-5/1,2,3;
 4//1;
 5/5=2,38=5/2;
 6/7=2,8=2,9=2,10=2,28=1/1;
 7//1,2,3,16;
 1/14=-1,18=20,19=15/3(2);
 2/9=110/2;
 99//99;
 2/9=110/2;
 3/5=16,11=2,16=1,25=1,30=1,71=1,74=-5/1,2,3;
 4/5=5,16=3/1;
 5/5=2,38=5/2;
 7//1,2,3,16;
 1/14=-1,18=20,19=15/3(-5);
 2/9=110/2;
 6/7=2,8=2,9=2,10=2,19=2,28=1/1;
 99/9=1/99;
 Leave Link    1 at Wed Aug 31 10:33:53 2022, MaxMem=  209715200 cpu:       0.2
 (Enter /opt/gaussian/l101.exe)
 ---------
 Mol09.log
 ---------
 Charge =  0 Multiplicity = 1
 Symbolic Z-Matrix:
 O                     0.23401  -1.70829  -0.04476 
 C                     0.08867  -0.49793  -0.23537 
 C                     1.04743   0.20068  -1.18695 
 N                     2.35317   0.34555  -0.58398 
 N                     2.79695   1.58596  -0.22926 
 N                     3.98138   1.50099   0.2186 
 C                     4.3843    0.1767    0.17452 
 C                     5.5945   -0.41447   0.53952 
 C                     5.70572  -1.77145   0.36809 
 C                     4.63107  -2.53169  -0.14831 
 C                     3.43351  -1.96042  -0.50542 
 C                     3.33407  -0.57483  -0.33903 
 N                    -0.87459   0.21567   0.39155 
 C                    -1.73432  -0.49279   1.36403 
 C                    -2.95674  -1.12684   0.74861 
 C                    -4.25901  -0.49072   0.72189 
 C                    -5.21355  -1.22261   0.12726 
 S                    -4.57237  -2.78608  -0.45998 
 C                    -2.96001  -2.34135   0.16925 
 C                    -1.14725   1.60258   0.14043 
 C                    -0.50392   2.58222   0.8852 
 C                    -0.79149   3.9207    0.66206 
 C                    -1.72329   4.28188  -0.30075 
 C                    -2.36662   3.3024   -1.0442 
 C                    -2.0803    1.96242  -0.82483 
 H                     1.12838  -0.41787  -2.06934 
 H                     0.7242    1.18463  -1.47173 
 H                     6.39355   0.18017   0.93397 
 H                     6.61577  -2.27251   0.6332 
 H                     4.75481  -3.59203  -0.25397 
 H                     2.60686  -2.54258  -0.85381 
 H                    -1.1278   -1.24579   1.83928 
 H                    -2.02649   0.23055   2.1115 
 H                    -4.4416    0.47698   1.14421 
 H                    -6.24318  -0.98296  -0.01284 
 H                    -2.13268  -3.00411   0.05221 
 H                     0.22672   2.29675   1.61562 
 H                    -0.28382   4.6745    1.23085 
 H                    -1.94255   5.31759  -0.47338 
 H                    -3.08536   3.57762  -1.79126 
 H                    -2.57618   1.19856  -1.39113 
 
 NAtoms=     41 NQM=        0 NQMF=       0 NMMI=     41 NMMIF=      0
                NMic=       0 NMicF=      0.
                    Isotopes and Nuclear Properties:
 (Nuclear quadrupole moments (NQMom) in fm**2, nuclear magnetic moments (NMagM)
  in nuclear magnetons)

  Atom         1           2           3           4           5           6           7           8           9          10
 IAtWgt=          16          12          12          14          14          14          12          12          12          12
 AtmWgt=  15.9949146  12.0000000  12.0000000  14.0030740  14.0030740  14.0030740  12.0000000  12.0000000  12.0000000  12.0000000
 NucSpn=           0           0           0           2           2           2           0           0           0           0
 AtZEff=   0.0000000   0.0000000   0.0000000   0.0000000   0.0000000   0.0000000   0.0000000   0.0000000   0.0000000   0.0000000
 NQMom=    0.0000000   0.0000000   0.0000000   2.0440000   2.0440000   2.0440000   0.0000000   0.0000000   0.0000000   0.0000000
 NMagM=    0.0000000   0.0000000   0.0000000   0.4037610   0.4037610   0.4037610   0.0000000   0.0000000   0.0000000   0.0000000

  Atom        11          12          13          14          15          16          17          18          19          20
 IAtWgt=          12          12          14          12          12          12          12          32          12          12
 AtmWgt=  12.0000000  12.0000000  14.0030740  12.0000000  12.0000000  12.0000000  12.0000000  31.9720718  12.0000000  12.0000000
 NucSpn=           0           0           2           0           0           0           0           0           0           0
 AtZEff=   0.0000000   0.0000000   0.0000000   0.0000000   0.0000000   0.0000000   0.0000000   0.0000000   0.0000000   0.0000000
 NQMom=    0.0000000   0.0000000   2.0440000   0.0000000   0.0000000   0.0000000   0.0000000   0.0000000   0.0000000   0.0000000
 NMagM=    0.0000000   0.0000000   0.4037610   0.0000000   0.0000000   0.0000000   0.0000000   0.0000000   0.0000000   0.0000000

  Atom        21          22          23          24          25          26          27          28          29          30
 IAtWgt=          12          12          12          12          12           1           1           1           1           1
 AtmWgt=  12.0000000  12.0000000  12.0000000  12.0000000  12.0000000   1.0078250   1.0078250   1.0078250   1.0078250   1.0078250
 NucSpn=           0           0           0           0           0           1           1           1           1           1
 AtZEff=   0.0000000   0.0000000   0.0000000   0.0000000   0.0000000   0.0000000   0.0000000   0.0000000   0.0000000   0.0000000
 NQMom=    0.0000000   0.0000000   0.0000000   0.0000000   0.0000000   0.0000000   0.0000000   0.0000000   0.0000000   0.0000000
 NMagM=    0.0000000   0.0000000   0.0000000   0.0000000   0.0000000   2.7928460   2.7928460   2.7928460   2.7928460   2.7928460

  Atom        31          32          33          34          35          36          37          38          39          40
 IAtWgt=           1           1           1           1           1           1           1           1           1           1
 AtmWgt=   1.0078250   1.0078250   1.0078250   1.0078250   1.0078250   1.0078250   1.0078250   1.0078250   1.0078250   1.0078250
 NucSpn=           1           1           1           1           1           1           1           1           1           1
 AtZEff=   0.0000000   0.0000000   0.0000000   0.0000000   0.0000000   0.0000000   0.0000000   0.0000000   0.0000000   0.0000000
 NQMom=    0.0000000   0.0000000   0.0000000   0.0000000   0.0000000   0.0000000   0.0000000   0.0000000   0.0000000   0.0000000
 NMagM=    2.7928460   2.7928460   2.7928460   2.7928460   2.7928460   2.7928460   2.7928460   2.7928460   2.7928460   2.7928460

  Atom        41
 IAtWgt=           1
 AtmWgt=   1.0078250
 NucSpn=           1
 AtZEff=   0.0000000
 NQMom=    0.0000000
 NMagM=    2.7928460
 Leave Link  101 at Wed Aug 31 10:33:53 2022, MaxMem=  209715200 cpu:       0.9
 (Enter /opt/gaussian/l103.exe)

 GradGradGradGradGradGradGradGradGradGradGradGradGradGradGradGradGradGrad
 Berny optimization.
 Initialization pass.
                           ----------------------------
                           !    Initial Parameters    !
                           ! (Angstroms and Degrees)  !
 --------------------------                            --------------------------
 ! Name  Definition              Value          Derivative Info.                !
 --------------------------------------------------------------------------------
 ! R1    R(1,2)                  1.2339         estimate D2E/DX2                !
 ! R2    R(2,3)                  1.5208         estimate D2E/DX2                !
 ! R3    R(2,13)                 1.3528         estimate D2E/DX2                !
 ! R4    R(3,4)                  1.4455         estimate D2E/DX2                !
 ! R5    R(3,26)                 1.0806         estimate D2E/DX2                !
 ! R6    R(3,27)                 1.0741         estimate D2E/DX2                !
 ! R7    R(4,5)                  1.3643         estimate D2E/DX2                !
 ! R8    R(4,12)                 1.3672         estimate D2E/DX2                !
 ! R9    R(5,6)                  1.2691         estimate D2E/DX2                !
 ! R10   R(6,7)                  1.3849         estimate D2E/DX2                !
 ! R11   R(7,8)                  1.3955         estimate D2E/DX2                !
 ! R12   R(7,12)                 1.3898         estimate D2E/DX2                !
 ! R13   R(8,9)                  1.3723         estimate D2E/DX2                !
 ! R14   R(8,28)                 1.0713         estimate D2E/DX2                !
 ! R15   R(9,10)                 1.414          estimate D2E/DX2                !
 ! R16   R(9,29)                 1.0722         estimate D2E/DX2                !
 ! R17   R(10,11)                1.3741         estimate D2E/DX2                !
 ! R18   R(10,30)                1.0728         estimate D2E/DX2                !
 ! R19   R(11,12)                1.3991         estimate D2E/DX2                !
 ! R20   R(11,31)                1.0694         estimate D2E/DX2                !
 ! R21   R(13,14)                1.4788         estimate D2E/DX2                !
 ! R22   R(13,20)                1.4356         estimate D2E/DX2                !
 ! R23   R(14,15)                1.5083         estimate D2E/DX2                !
 ! R24   R(14,32)                1.0774         estimate D2E/DX2                !
 ! R25   R(14,33)                1.0804         estimate D2E/DX2                !
 ! R26   R(15,16)                1.4496         estimate D2E/DX2                !
 ! R27   R(15,19)                1.3456         estimate D2E/DX2                !
 ! R28   R(16,17)                1.3418         estimate D2E/DX2                !
 ! R29   R(16,34)                1.0715         estimate D2E/DX2                !
 ! R30   R(17,18)                1.789          estimate D2E/DX2                !
 ! R31   R(17,35)                1.0664         estimate D2E/DX2                !
 ! R32   R(18,19)                1.787          estimate D2E/DX2                !
 ! R33   R(19,36)                1.0665         estimate D2E/DX2                !
 ! R34   R(20,21)                1.3886         estimate D2E/DX2                !
 ! R35   R(20,25)                1.3899         estimate D2E/DX2                !
 ! R36   R(21,22)                1.3871         estimate D2E/DX2                !
 ! R37   R(21,37)                1.0718         estimate D2E/DX2                !
 ! R38   R(22,23)                1.3877         estimate D2E/DX2                !
 ! R39   R(22,38)                1.0721         estimate D2E/DX2                !
 ! R40   R(23,24)                1.3878         estimate D2E/DX2                !
 ! R41   R(23,39)                1.0726         estimate D2E/DX2                !
 ! R42   R(24,25)                1.3877         estimate D2E/DX2                !
 ! R43   R(24,40)                1.0726         estimate D2E/DX2                !
 ! R44   R(25,41)                1.0724         estimate D2E/DX2                !
 ! A1    A(1,2,3)              118.2308         estimate D2E/DX2                !
 ! A2    A(1,2,13)             121.9868         estimate D2E/DX2                !
 ! A3    A(3,2,13)             119.7719         estimate D2E/DX2                !
 ! A4    A(2,3,4)              110.7634         estimate D2E/DX2                !
 ! A5    A(2,3,26)             107.1701         estimate D2E/DX2                !
 ! A6    A(2,3,27)             113.3903         estimate D2E/DX2                !
 ! A7    A(4,3,26)             109.2874         estimate D2E/DX2                !
 ! A8    A(4,3,27)             106.8947         estimate D2E/DX2                !
 ! A9    A(26,3,27)            109.2928         estimate D2E/DX2                !
 ! A10   A(3,4,5)              119.5638         estimate D2E/DX2                !
 ! A11   A(3,4,12)             130.9453         estimate D2E/DX2                !
 ! A12   A(5,4,12)             109.3957         estimate D2E/DX2                !
 ! A13   A(4,5,6)              109.5389         estimate D2E/DX2                !
 ! A14   A(5,6,7)              108.9235         estimate D2E/DX2                !
 ! A15   A(6,7,8)              130.4719         estimate D2E/DX2                !
 ! A16   A(6,7,12)             107.9981         estimate D2E/DX2                !
 ! A17   A(8,7,12)             121.5286         estimate D2E/DX2                !
 ! A18   A(7,8,9)              117.1634         estimate D2E/DX2                !
 ! A19   A(7,8,28)             120.5317         estimate D2E/DX2                !
 ! A20   A(9,8,28)             122.3049         estimate D2E/DX2                !
 ! A21   A(8,9,10)             121.0422         estimate D2E/DX2                !
 ! A22   A(8,9,29)             120.0019         estimate D2E/DX2                !
 ! A23   A(10,9,29)            118.9547         estimate D2E/DX2                !
 ! A24   A(9,10,11)            122.2595         estimate D2E/DX2                !
 ! A25   A(9,10,30)            118.6673         estimate D2E/DX2                !
 ! A26   A(11,10,30)           119.07           estimate D2E/DX2                !
 ! A27   A(10,11,12)           116.2815         estimate D2E/DX2                !
 ! A28   A(10,11,31)           122.1439         estimate D2E/DX2                !
 ! A29   A(12,11,31)           121.5289         estimate D2E/DX2                !
 ! A30   A(4,12,7)             104.1426         estimate D2E/DX2                !
 ! A31   A(4,12,11)            134.1368         estimate D2E/DX2                !
 ! A32   A(7,12,11)            121.7202         estimate D2E/DX2                !
 ! A33   A(2,13,14)            117.7754         estimate D2E/DX2                !
 ! A34   A(2,13,20)            124.3174         estimate D2E/DX2                !
 ! A35   A(14,13,20)           117.8692         estimate D2E/DX2                !
 ! A36   A(13,14,15)           113.844          estimate D2E/DX2                !
 ! A37   A(13,14,32)           107.3159         estimate D2E/DX2                !
 ! A38   A(13,14,33)           106.9442         estimate D2E/DX2                !
 ! A39   A(15,14,32)           110.0249         estimate D2E/DX2                !
 ! A40   A(15,14,33)           110.1543         estimate D2E/DX2                !
 ! A41   A(32,14,33)           108.3599         estimate D2E/DX2                !
 ! A42   A(14,15,16)           123.4451         estimate D2E/DX2                !
 ! A43   A(14,15,19)           123.8517         estimate D2E/DX2                !
 ! A44   A(16,15,19)           112.703          estimate D2E/DX2                !
 ! A45   A(15,16,17)           114.0734         estimate D2E/DX2                !
 ! A46   A(15,16,34)           122.8294         estimate D2E/DX2                !
 ! A47   A(17,16,34)           123.0967         estimate D2E/DX2                !
 ! A48   A(16,17,18)           111.5434         estimate D2E/DX2                !
 ! A49   A(16,17,35)           128.4996         estimate D2E/DX2                !
 ! A50   A(18,17,35)           119.9556         estimate D2E/DX2                !
 ! A51   A(17,18,19)            89.4441         estimate D2E/DX2                !
 ! A52   A(15,19,18)           112.2355         estimate D2E/DX2                !
 ! A53   A(15,19,36)           127.3187         estimate D2E/DX2                !
 ! A54   A(18,19,36)           120.4395         estimate D2E/DX2                !
 ! A55   A(13,20,21)           119.9832         estimate D2E/DX2                !
 ! A56   A(13,20,25)           119.9407         estimate D2E/DX2                !
 ! A57   A(21,20,25)           120.0559         estimate D2E/DX2                !
 ! A58   A(20,21,22)           119.896          estimate D2E/DX2                !
 ! A59   A(20,21,37)           119.565          estimate D2E/DX2                !
 ! A60   A(22,21,37)           120.5275         estimate D2E/DX2                !
 ! A61   A(21,22,23)           120.1307         estimate D2E/DX2                !
 ! A62   A(21,22,38)           119.6653         estimate D2E/DX2                !
 ! A63   A(23,22,38)           120.2016         estimate D2E/DX2                !
 ! A64   A(22,23,24)           119.9508         estimate D2E/DX2                !
 ! A65   A(22,23,39)           120.0151         estimate D2E/DX2                !
 ! A66   A(24,23,39)           120.0334         estimate D2E/DX2                !
 ! A67   A(23,24,25)           120.0787         estimate D2E/DX2                !
 ! A68   A(23,24,40)           120.1759         estimate D2E/DX2                !
 ! A69   A(25,24,40)           119.7453         estimate D2E/DX2                !
 ! A70   A(20,25,24)           119.8875         estimate D2E/DX2                !
 ! A71   A(20,25,41)           119.5205         estimate D2E/DX2                !
 ! A72   A(24,25,41)           120.5915         estimate D2E/DX2                !
 ! D1    D(1,2,3,4)            -73.0466         estimate D2E/DX2                !
 ! D2    D(1,2,3,26)            46.0886         estimate D2E/DX2                !
 ! D3    D(1,2,3,27)           166.7801         estimate D2E/DX2                !
 ! D4    D(13,2,3,4)           105.7995         estimate D2E/DX2                !
 ! D5    D(13,2,3,26)         -135.0653         estimate D2E/DX2                !
 ! D6    D(13,2,3,27)          -14.3738         estimate D2E/DX2                !
 ! D7    D(1,2,13,14)            2.1351         estimate D2E/DX2                !
 ! D8    D(1,2,13,20)         -175.5688         estimate D2E/DX2                !
 ! D9    D(3,2,13,14)         -176.6662         estimate D2E/DX2                !
 ! D10   D(3,2,13,20)            5.6299         estimate D2E/DX2                !
 ! D11   D(2,3,4,5)           -110.522          estimate D2E/DX2                !
 ! D12   D(2,3,4,12)            73.4348         estimate D2E/DX2                !
 ! D13   D(26,3,4,5)           131.6275         estimate D2E/DX2                !
 ! D14   D(26,3,4,12)          -44.4157         estimate D2E/DX2                !
 ! D15   D(27,3,4,5)            13.4556         estimate D2E/DX2                !
 ! D16   D(27,3,4,12)         -162.5877         estimate D2E/DX2                !
 ! D17   D(3,4,5,6)           -176.8763         estimate D2E/DX2                !
 ! D18   D(12,4,5,6)            -0.0438         estimate D2E/DX2                !
 ! D19   D(3,4,12,7)           176.1785         estimate D2E/DX2                !
 ! D20   D(3,4,12,11)           -3.5963         estimate D2E/DX2                !
 ! D21   D(5,4,12,7)            -0.1733         estimate D2E/DX2                !
 ! D22   D(5,4,12,11)         -179.9481         estimate D2E/DX2                !
 ! D23   D(4,5,6,7)              0.2471         estimate D2E/DX2                !
 ! D24   D(5,6,7,8)            179.1969         estimate D2E/DX2                !
 ! D25   D(5,6,7,12)            -0.3582         estimate D2E/DX2                !
 ! D26   D(6,7,8,9)           -179.4058         estimate D2E/DX2                !
 ! D27   D(6,7,8,28)             0.5061         estimate D2E/DX2                !
 ! D28   D(12,7,8,9)             0.0977         estimate D2E/DX2                !
 ! D29   D(12,7,8,28)         -179.9904         estimate D2E/DX2                !
 ! D30   D(6,7,12,4)             0.314          estimate D2E/DX2                !
 ! D31   D(6,7,12,11)         -179.876          estimate D2E/DX2                !
 ! D32   D(8,7,12,4)          -179.2889         estimate D2E/DX2                !
 ! D33   D(8,7,12,11)            0.5211         estimate D2E/DX2                !
 ! D34   D(7,8,9,10)            -0.4352         estimate D2E/DX2                !
 ! D35   D(7,8,9,29)           179.9731         estimate D2E/DX2                !
 ! D36   D(28,8,9,10)          179.6545         estimate D2E/DX2                !
 ! D37   D(28,8,9,29)            0.0628         estimate D2E/DX2                !
 ! D38   D(8,9,10,11)            0.1752         estimate D2E/DX2                !
 ! D39   D(8,9,10,30)         -179.1709         estimate D2E/DX2                !
 ! D40   D(29,9,10,11)         179.7711         estimate D2E/DX2                !
 ! D41   D(29,9,10,30)           0.425          estimate D2E/DX2                !
 ! D42   D(9,10,11,12)           0.4215         estimate D2E/DX2                !
 ! D43   D(9,10,11,31)        -177.1556         estimate D2E/DX2                !
 ! D44   D(30,10,11,12)        179.765          estimate D2E/DX2                !
 ! D45   D(30,10,11,31)          2.188          estimate D2E/DX2                !
 ! D46   D(10,11,12,4)         178.9829         estimate D2E/DX2                !
 ! D47   D(10,11,12,7)          -0.7605         estimate D2E/DX2                !
 ! D48   D(31,11,12,4)          -3.4239         estimate D2E/DX2                !
 ! D49   D(31,11,12,7)         176.8327         estimate D2E/DX2                !
 ! D50   D(2,13,14,15)         -88.4328         estimate D2E/DX2                !
 ! D51   D(2,13,14,32)          33.5692         estimate D2E/DX2                !
 ! D52   D(2,13,14,33)         149.6665         estimate D2E/DX2                !
 ! D53   D(20,13,14,15)         89.4221         estimate D2E/DX2                !
 ! D54   D(20,13,14,32)       -148.576          estimate D2E/DX2                !
 ! D55   D(20,13,14,33)        -32.4786         estimate D2E/DX2                !
 ! D56   D(2,13,20,21)         -90.7255         estimate D2E/DX2                !
 ! D57   D(2,13,20,25)          90.9084         estimate D2E/DX2                !
 ! D58   D(14,13,20,21)         91.5726         estimate D2E/DX2                !
 ! D59   D(14,13,20,25)        -86.7935         estimate D2E/DX2                !
 ! D60   D(13,14,15,16)        -95.8014         estimate D2E/DX2                !
 ! D61   D(13,14,15,19)         84.3709         estimate D2E/DX2                !
 ! D62   D(32,14,15,16)        143.7055         estimate D2E/DX2                !
 ! D63   D(32,14,15,19)        -36.1222         estimate D2E/DX2                !
 ! D64   D(33,14,15,16)         24.3066         estimate D2E/DX2                !
 ! D65   D(33,14,15,19)       -155.5211         estimate D2E/DX2                !
 ! D66   D(14,15,16,17)        179.978          estimate D2E/DX2                !
 ! D67   D(14,15,16,34)         -0.2698         estimate D2E/DX2                !
 ! D68   D(19,15,16,17)         -0.1771         estimate D2E/DX2                !
 ! D69   D(19,15,16,34)        179.575          estimate D2E/DX2                !
 ! D70   D(14,15,19,18)       -179.8775         estimate D2E/DX2                !
 ! D71   D(14,15,19,36)         -0.7989         estimate D2E/DX2                !
 ! D72   D(16,15,19,18)          0.2784         estimate D2E/DX2                !
 ! D73   D(16,15,19,36)        179.357          estimate D2E/DX2                !
 ! D74   D(15,16,17,18)         -0.0102         estimate D2E/DX2                !
 ! D75   D(15,16,17,35)        179.5541         estimate D2E/DX2                !
 ! D76   D(34,16,17,18)       -179.7616         estimate D2E/DX2                !
 ! D77   D(34,16,17,35)         -0.1973         estimate D2E/DX2                !
 ! D78   D(16,17,18,19)          0.1362         estimate D2E/DX2                !
 ! D79   D(35,17,18,19)       -179.4703         estimate D2E/DX2                !
 ! D80   D(17,18,19,15)         -0.2389         estimate D2E/DX2                !
 ! D81   D(17,18,19,36)       -179.3891         estimate D2E/DX2                !
 ! D82   D(13,20,21,22)       -178.523          estimate D2E/DX2                !
 ! D83   D(13,20,21,37)          2.6981         estimate D2E/DX2                !
 ! D84   D(25,20,21,22)         -0.1589         estimate D2E/DX2                !
 ! D85   D(25,20,21,37)       -178.9377         estimate D2E/DX2                !
 ! D86   D(13,20,25,24)        178.447          estimate D2E/DX2                !
 ! D87   D(13,20,25,41)         -1.2842         estimate D2E/DX2                !
 ! D88   D(21,20,25,24)          0.0821         estimate D2E/DX2                !
 ! D89   D(21,20,25,41)       -179.6491         estimate D2E/DX2                !
 ! D90   D(20,21,22,23)          0.1932         estimate D2E/DX2                !
 ! D91   D(20,21,22,38)       -179.2533         estimate D2E/DX2                !
 ! D92   D(37,21,22,23)        178.9601         estimate D2E/DX2                !
 ! D93   D(37,21,22,38)         -0.4864         estimate D2E/DX2                !
 ! D94   D(21,22,23,24)         -0.1505         estimate D2E/DX2                !
 ! D95   D(21,22,23,39)       -179.8555         estimate D2E/DX2                !
 ! D96   D(38,22,23,24)        179.293          estimate D2E/DX2                !
 ! D97   D(38,22,23,39)         -0.412          estimate D2E/DX2                !
 ! D98   D(22,23,24,25)          0.0734         estimate D2E/DX2                !
 ! D99   D(22,23,24,40)       -179.8226         estimate D2E/DX2                !
 ! D100  D(39,23,24,25)        179.7783         estimate D2E/DX2                !
 ! D101  D(39,23,24,40)         -0.1176         estimate D2E/DX2                !
 ! D102  D(23,24,25,20)         -0.0393         estimate D2E/DX2                !
 ! D103  D(23,24,25,41)        179.689          estimate D2E/DX2                !
 ! D104  D(40,24,25,20)        179.8571         estimate D2E/DX2                !
 ! D105  D(40,24,25,41)         -0.4146         estimate D2E/DX2                !
 --------------------------------------------------------------------------------
 Trust Radius=3.00D-01 FncErr=1.00D-07 GrdErr=1.00D-06
 Number of steps in this run=    231 maximum allowed number of steps=    246.
 GradGradGradGradGradGradGradGradGradGradGradGradGradGradGradGradGradGrad

 Leave Link  103 at Wed Aug 31 10:33:53 2022, MaxMem=  209715200 cpu:       0.1
 (Enter /opt/gaussian/l202.exe)
                          Input orientation:                          
 ---------------------------------------------------------------------
 Center     Atomic      Atomic             Coordinates (Angstroms)
 Number     Number       Type             X           Y           Z
 ---------------------------------------------------------------------
      1          8           0        0.234010   -1.708290   -0.044760
      2          6           0        0.088670   -0.497930   -0.235370
      3          6           0        1.047430    0.200680   -1.186950
      4          7           0        2.353170    0.345550   -0.583980
      5          7           0        2.796950    1.585960   -0.229260
      6          7           0        3.981380    1.500990    0.218600
      7          6           0        4.384300    0.176700    0.174520
      8          6           0        5.594500   -0.414470    0.539520
      9          6           0        5.705720   -1.771450    0.368090
     10          6           0        4.631070   -2.531690   -0.148310
     11          6           0        3.433510   -1.960420   -0.505420
     12          6           0        3.334070   -0.574830   -0.339030
     13          7           0       -0.874590    0.215670    0.391550
     14          6           0       -1.734320   -0.492790    1.364030
     15          6           0       -2.956740   -1.126840    0.748610
     16          6           0       -4.259010   -0.490720    0.721890
     17          6           0       -5.213550   -1.222610    0.127260
     18         16           0       -4.572370   -2.786080   -0.459980
     19          6           0       -2.960010   -2.341350    0.169250
     20          6           0       -1.147250    1.602580    0.140430
     21          6           0       -0.503920    2.582220    0.885200
     22          6           0       -0.791490    3.920700    0.662060
     23          6           0       -1.723290    4.281880   -0.300750
     24          6           0       -2.366620    3.302400   -1.044200
     25          6           0       -2.080300    1.962420   -0.824830
     26          1           0        1.128380   -0.417870   -2.069340
     27          1           0        0.724200    1.184630   -1.471730
     28          1           0        6.393550    0.180170    0.933970
     29          1           0        6.615770   -2.272510    0.633200
     30          1           0        4.754810   -3.592030   -0.253970
     31          1           0        2.606860   -2.542580   -0.853810
     32          1           0       -1.127800   -1.245790    1.839280
     33          1           0       -2.026490    0.230550    2.111500
     34          1           0       -4.441600    0.476980    1.144210
     35          1           0       -6.243180   -0.982960   -0.012840
     36          1           0       -2.132680   -3.004110    0.052210
     37          1           0        0.226720    2.296750    1.615620
     38          1           0       -0.283820    4.674500    1.230850
     39          1           0       -1.942550    5.317590   -0.473380
     40          1           0       -3.085360    3.577620   -1.791260
     41          1           0       -2.576180    1.198560   -1.391130
 ---------------------------------------------------------------------
                    Distance matrix (angstroms):
                    1          2          3          4          5
     1  O    0.000000
     2  C    1.233867   0.000000
     3  C    2.368632   1.520783   0.000000
     4  N    2.999976   2.441505   1.445516   0.000000
     5  N    4.177892   3.417223   2.428372   1.364325   0.000000
     6  N    4.940812   4.399427   3.503490   2.151800   1.269123
     7  C    4.563571   4.367559   3.604008   2.174700   2.160725
     8  C    5.545287   5.560718   4.902546   3.513702   3.524064
     9  C    5.487627   5.791137   5.292175   4.077710   4.482184
    10  C    4.474690   4.977666   4.624618   3.695558   4.508391
    11  C    3.242311   3.660568   3.290625   2.547706   3.613625
    12  C    3.313865   3.247966   2.559122   1.367211   2.229251
    13  N    2.262959   1.352821   2.487177   3.374457   3.967783
    14  C    2.708589   2.425160   3.837516   4.604903   5.233754
    15  C    3.338923   3.261636   4.641345   5.669116   6.435873
    16  C    4.717781   4.451822   5.681550   6.791581   7.416459
    17  C    5.471872   5.363786   6.553837   7.760170   8.496075
    18  S    4.943210   5.197247   6.405574   7.601683   8.571747
    19  C    3.263178   3.585577   4.935663   6.001389   6.980341
    20  C    3.592219   2.465941   2.922992   3.789173   3.961523
    21  C    4.451724   3.330790   3.517417   3.914607   3.623575
    22  C    5.765134   4.593947   4.543018   4.921707   4.372913
    23  C    6.307035   5.112148   5.011829   5.673838   5.263617
    24  C    5.733164   4.596212   4.614844   5.588487   5.502068
    25  C    4.408929   3.332449   3.607985   4.725244   4.927879
    26  H    2.562032   2.109704   1.080634   2.071042   3.191450
    27  H    3.262747   2.182543   1.074121   2.036099   2.449712
    28  H    6.516450   6.448154   5.751497   4.319282   4.032974
    29  H    6.442425   6.819573   6.358933   5.148352   5.496819
    30  H    4.902028   5.598809   5.385143   4.623994   5.535829
    31  H    2.642162   3.302172   3.173055   2.911780   4.179837
    32  H    2.370240   2.518584   3.997745   4.530089   5.263205
    33  H    3.676740   3.242281   4.508841   5.143954   5.530087
    34  H    5.296261   4.834981   5.969933   7.012333   7.450695
    35  H    6.517754   6.354298   7.478806   8.717131   9.400539
    36  H    2.699958   3.361255   4.681805   5.634520   6.741604
    37  H    4.335581   3.354916   3.594645   3.628665   3.242667
    38  H    6.529574   5.389117   5.256715   5.383970   4.600233
    39  H    7.367776   6.164639   5.969249   6.571653   6.037178
    40  H    6.481460   5.394939   5.371114   6.440606   6.403759
    41  H    4.261415   3.363820   3.764041   5.067308   5.510948
                    6          7          8          9         10
     6  N    0.000000
     7  C    1.384930   0.000000
     8  C    2.524704   1.395454   0.000000
     9  C    3.701967   2.361971   1.372280   0.000000
    10  C    4.101125   2.738702   2.425681   1.414039   0.000000
    11  C    3.578509   2.435899   2.855125   2.441653   1.374055
    12  C    2.244770   1.389789   2.430455   2.748935   2.355395
    13  N    5.026172   5.263511   6.501392   6.873840   6.176708
    14  C    6.160876   6.269024   7.375470   7.614530   6.852917
    15  C    7.438004   7.477945   8.583408   8.694742   7.768715
    16  C    8.492599   8.686304   9.855492  10.052924   9.162769
    17  C    9.590260   9.699434  10.846059  10.935707   9.935098
    18  S    9.591980   9.455294  10.487554  10.361192   9.212229
    19  C    7.934035   7.763987   8.776651   8.686725   7.600103
    20  C    5.130232   5.712472   7.048330   7.641931   7.110875
    21  C    4.661687   5.494205   6.803703   7.601413   7.320406
    22  C    5.369538   6.406562   7.719429   8.642958   8.467242
    23  C    6.367600   7.374350   8.735663   9.606266   9.318040
    24  C    6.718396   7.538581   8.927638   9.638526   9.154610
    25  C    6.168114   6.780748   8.149455   8.717049   8.105380
    26  H    4.129928   3.998679   5.172271   5.359597   4.519671
    27  H    3.683276   4.137921   5.506548   6.077737   5.552126
    28  H    2.841634   2.147990   1.071293   2.145262   3.410550
    29  H    4.620737   3.344918   2.122282   1.072164   2.148713
    30  H    5.173043   3.811064   3.381064   2.146089   1.072752
    31  H    4.403388   3.407527   3.923801   3.419154   2.143659
    32  H    6.022883   5.931117   6.897085   7.009830   6.226447
    33  H    6.425853   6.697240   7.808115   8.175240   7.553795
    34  H    8.535335   8.884086  10.093742  10.422375   9.645519
    35  H   10.524505  10.692205  11.864188  11.980945  10.984818
    36  H    7.596403   7.252830   8.164130   7.941017   6.783193
    37  H    4.084406   4.884348   6.109154   6.937292   6.769312
    38  H    5.411815   6.567905   7.805780   8.841336   8.831048
    39  H    7.080835   8.177870   9.523109  10.462246  10.243503
    40  H    7.634837   8.439572   9.834088  10.514677   9.978289
    41  H    6.759015   7.207201   8.549227   8.972496   8.209983
                   11         12         13         14         15
    11  C    0.000000
    12  C    1.399083   0.000000
    13  N    4.909139   4.344129   0.000000
    14  C    5.688167   5.347497   1.478773   0.000000
    15  C    6.565268   6.407961   2.503033   1.508334   0.000000
    16  C    7.927242   7.667300   3.473098   2.605073   1.449576
    17  C    8.701511   8.584804   4.578763   3.763945   2.342742
    18  S    8.048472   8.210728   4.838304   4.079304   2.612284
    19  C    6.440294   6.557010   3.307075   2.519323   1.345624
    20  C    5.839131   5.005320   1.435592   2.496482   3.330746
    21  C    6.170313   5.118190   2.445740   3.346468   4.448832
    22  C    7.334931   6.183221   3.715821   4.567339   5.493037
    23  C    8.099431   7.011846   4.211132   5.056589   5.645955
    24  C    7.850418   6.930227   3.716912   4.539035   4.814621
    25  C    6.774422   5.999087   2.446314   3.307396   3.575946
    26  H    3.184169   2.807789   3.235621   4.470872   5.013151
    27  H    4.262095   3.345165   2.639474   4.110911   4.880791
    28  H    3.926297   3.398672   7.288439   8.167013   9.443016
    29  H    3.394206   3.820589   7.896514   8.568869   9.641516
    30  H    2.114524   3.336051   6.826816   7.371026   8.157839
    31  H    1.069409   2.160063   4.612956   5.288317   5.960345
    32  H    5.178210   5.010340   2.072656   1.077376   2.132776
    33  H    6.438961   5.948894   2.070102   1.080414   2.136666
    34  H    8.407113   7.985446   3.654906   2.884119   2.221159
    35  H    9.738398   9.591490   5.515615   4.739816   3.376566
    36  H    5.690581   5.994983   3.473460   2.861169   2.165223
    37  H    5.736359   4.660714   2.653700   3.419139   4.754692
    38  H    7.800983   6.565753   4.575434   5.368666   6.405670
    39  H    9.048341   7.910840   5.283770   6.097536   6.637207
    40  H    8.649794   7.782088   4.577649   5.324416   5.347843
    41  H    6.846898   6.259623   2.653192   3.340703   3.182892
                   16         17         18         19         20
    16  C    0.000000
    17  C    1.341788   0.000000
    18  S    2.600709   1.788966   0.000000
    19  C    2.327583   2.516304   1.787014   0.000000
    20  C    3.795135   4.951431   5.599310   4.340681   0.000000
    21  C    4.854929   6.101788   6.868802   5.548559   1.388615
    22  C    5.611408   6.803989   7.780419   6.645195   2.402570
    23  C    5.500307   6.531808   7.622248   6.754077   2.775808
    24  C    4.592164   5.472937   6.502018   5.803145   2.404080
    25  C    3.627260   4.568167   5.375108   4.503834   1.389890
    26  H    6.067969   6.759640   6.379421   5.042419   3.760824
    27  H    5.696591   6.603669   6.696554   5.357122   2.505208
    28  H   10.675772  11.719358  11.445223   9.717610   7.714702
    29  H   11.020140  11.886592  11.253145   9.587260   8.690433
    30  H    9.582243  10.253179   9.364202   7.826989   7.872346
    31  H    7.337106   7.991472   7.194146   5.663673   5.680159
    32  H    3.409277   4.430000   4.418614   2.710396   3.316577
    33  H    2.726792   4.025697   4.711058   3.355364   2.557469
    34  H    1.071511   2.125723   3.638418   3.329961   3.623160
    35  H    2.172340   1.066395   2.498556   3.557750   5.716381
    36  H    3.359595   3.559654   2.502391   1.066501   4.711735
    37  H    5.356353   6.648131   7.292088   5.810267   2.132100
    38  H    6.537635   7.765053   8.769881   7.583610   3.372124
    39  H    6.366406   7.337195   8.519718   7.752907   3.848450
    40  H    4.923898   5.590360   6.669347   6.236467   3.374682
    41  H    3.185975   3.888868   4.552930   3.887554   2.133248
                   21         22         23         24         25
    21  C    0.000000
    22  C    1.387089   0.000000
    23  C    2.404617   1.387698   0.000000
    24  C    2.776850   2.403051   1.387794   0.000000
    25  C    2.406933   2.776100   2.404581   1.387677   0.000000
    26  H    4.515999   5.474453   5.774737   5.206376   4.184521
    27  H    3.002775   3.786351   4.117567   3.771061   2.981385
    28  H    7.303925   8.104955   9.177780   9.508000   8.836058
    29  H    8.621015   9.655267  10.647639  10.704047   9.781724
    30  H    8.189830   9.383052  10.196393   9.943460   8.825901
    31  H    6.242170   7.457924   8.101193   7.676949   6.501179
    32  H    3.994140   5.309573   5.957304   5.525863   4.277540
    33  H    3.058167   4.152506   4.724844   4.417057   3.409443
    34  H    4.472633   5.041327   4.894321   4.132515   3.414585
    35  H    6.815870   7.363579   6.944843   5.869900   5.163735
    36  H    5.878249   7.079809   7.306013   6.405381   5.043646
    37  H    1.071840   2.140851   3.378721   3.848556   3.374895
    38  H    2.132030   1.072131   2.138229   3.375880   3.848186
    39  H    3.376040   2.136695   1.072647   2.136975   3.376338
    40  H    3.849427   3.376140   2.138419   1.072582   2.133777
    41  H    3.374975   3.848474   3.379824   2.142526   1.072415
                   26         27         28         29         30
    26  H    0.000000
    27  H    1.757414   0.000000
    28  H    6.090939   6.240021   0.000000
    29  H    6.391781   7.147947   2.481025   0.000000
    30  H    5.149937   6.367514   4.280907   2.447729   0.000000
    31  H    2.859687   4.221176   4.994852   4.284331   2.464720
    32  H    4.588367   4.505511   7.708674   7.903902   6.670205
    33  H    5.277601   4.616936   8.502128   9.118078   8.135945
    34  H    6.492483   5.833472  10.841253  11.405536  10.153113
    35  H    7.673879   7.441182  12.725418  12.939587  11.305803
    36  H    4.671630   5.294308   9.144055   8.798191   6.919315
    37  H    4.664878   3.319040   6.555482   7.916012   7.660072
    38  H    6.230393   4.527608   8.054465   9.809306   9.794284
    39  H    6.698746   5.018926   9.892638  11.492562  11.148278
    40  H    5.813508   4.510127  10.431648  11.585074  10.734776
    41  H    4.098363   3.301393   9.321977  10.031858   8.830985
                   31         32         33         34         35
    31  H    0.000000
    32  H    4.783522   0.000000
    33  H    6.160458   1.749665   0.000000
    34  H    7.924053   3.798991   2.613261   0.000000
    35  H    9.025677   5.446700   4.875028   2.591501   0.000000
    36  H    4.847383   2.700943   3.836011   4.317588   4.580992
    37  H    5.931464   3.799255   3.097101   5.032594   7.434244
    38  H    8.049104   6.011017   4.853981   5.908791   8.310691
    39  H    9.089782   7.006438   5.706718   5.682724   7.642280
    40  H    8.410531   6.346507   5.249345   4.479993   5.825246
    41  H    6.414729   4.302116   3.675271   3.229306   4.483927
                   36         37         38         39         40
    36  H    0.000000
    37  H    6.009171   0.000000
    38  H    7.985520   2.462193   0.000000
    39  H    8.340449   4.265575   2.463605   0.000000
    40  H    6.901098   4.921111   4.264378   2.463802   0.000000
    41  H    4.465687   4.254740   4.920554   4.267336   2.465623
                   41
    41  H    0.000000
 Stoichiometry    C19H16N4OS
 Framework group  C1[X(C19H16N4OS)]
 Deg. of freedom   117
 Full point group                 C1      NOp   1
 Largest Abelian subgroup         C1      NOp   1
 Largest concise Abelian subgroup C1      NOp   1
                         Standard orientation:                         
 ---------------------------------------------------------------------
 Center     Atomic      Atomic             Coordinates (Angstroms)
 Number     Number       Type             X           Y           Z
 ---------------------------------------------------------------------
      1          8           0        0.234012   -1.708290   -0.044760
      2          6           0        0.088671   -0.497930   -0.235370
      3          6           0        1.047431    0.200680   -1.186950
      4          7           0        2.353171    0.345551   -0.583980
      5          7           0        2.796951    1.585961   -0.229260
      6          7           0        3.981381    1.500991    0.218600
      7          6           0        4.384301    0.176701    0.174520
      8          6           0        5.594501   -0.414469    0.539520
      9          6           0        5.705722   -1.771449    0.368090
     10          6           0        4.631072   -2.531689   -0.148310
     11          6           0        3.433512   -1.960419   -0.505420
     12          6           0        3.334071   -0.574829   -0.339030
     13          7           0       -0.874589    0.215670    0.391550
     14          6           0       -1.734319   -0.492790    1.364030
     15          6           0       -2.956739   -1.126840    0.748610
     16          6           0       -4.259009   -0.490721    0.721890
     17          6           0       -5.213549   -1.222611    0.127260
     18         16           0       -4.572368   -2.786081   -0.459980
     19          6           0       -2.960008   -2.341350    0.169250
     20          6           0       -1.147249    1.602580    0.140430
     21          6           0       -0.503919    2.582220    0.885200
     22          6           0       -0.791490    3.920700    0.662060
     23          6           0       -1.723290    4.281880   -0.300750
     24          6           0       -2.366619    3.302400   -1.044200
     25          6           0       -2.080299    1.962420   -0.824830
     26          1           0        1.128381   -0.417870   -2.069340
     27          1           0        0.724201    1.184630   -1.471730
     28          1           0        6.393551    0.180171    0.933970
     29          1           0        6.615772   -2.272509    0.633200
     30          1           0        4.754812   -3.592029   -0.253970
     31          1           0        2.606862   -2.542579   -0.853810
     32          1           0       -1.127799   -1.245790    1.839280
     33          1           0       -2.026489    0.230550    2.111500
     34          1           0       -4.441599    0.476979    1.144210
     35          1           0       -6.243179   -0.982961   -0.012840
     36          1           0       -2.132678   -3.004110    0.052210
     37          1           0        0.226721    2.296750    1.615620
     38          1           0       -0.283820    4.674500    1.230850
     39          1           0       -1.942550    5.317590   -0.473380
     40          1           0       -3.085359    3.577620   -1.791260
     41          1           0       -2.576179    1.198560   -1.391130
 ---------------------------------------------------------------------
 Rotational constants (GHZ):      0.3193979      0.1278430      0.0962857
 Leave Link  202 at Wed Aug 31 10:33:53 2022, MaxMem=  209715200 cpu:       0.0
 (Enter /opt/gaussian/l301.exe)
 Standard basis: CC-pVDZ (5D, 7F)
 Ernie: Thresh=  0.10000D-02 Tol=  0.10000D-05 Strict=F.
 Ernie:  58 primitive shells out of 658 were deleted.
 There are   434 symmetry adapted basis functions of A   symmetry.
 Integral buffers will be    131072 words long.
 Raffenetti 2 integral format.
 Two-electron integral symmetry is turned on.
   434 basis functions,   975 primitive gaussians,   459 cartesian basis functions
    91 alpha electrons       91 beta electrons
       nuclear repulsion energy      2186.3595093979 Hartrees.
 IExCor=  402 DFT=T Ex+Corr=B3LYP ExCW=0 ScaHFX=  0.200000
 ScaDFX=  0.800000  0.720000  1.000000  0.810000 ScalE2=  1.000000  1.000000
 IRadAn=      0 IRanWt=     -1 IRanGd=            0 ICorTp=0
 NAtoms=   41 NActive=   41 NUniq=   41 SFac= 1.00D+00 NAtFMM=   60 NAOKFM=F Big=F
 Leave Link  301 at Wed Aug 31 10:33:53 2022, MaxMem=  209715200 cpu:       0.3
 (Enter /opt/gaussian/l302.exe)
 NPDir=0 NMtPBC=     1 NCelOv=     1 NCel=       1 NClECP=     1 NCelD=      1
         NCelK=      1 NCelE2=     1 NClLst=     1 CellRange=     0.0.
 One-electron integrals computed using PRISM.
 NBasis=   434 RedAO= T  NBF=   434
 NBsUse=   434 1.00D-06 NBFU=   434
 Precomputing XC quadrature grid using
 IXCGrd= 2 IRadAn=           0 IRanWt=          -1 IRanGd=           0 AccXCQ= 0.00D+00.
 NRdTot=    2626 NPtTot=      334660 NUsed=      353588 NTot=      353620
 NSgBfM=   455   455   455   455   455 NAtAll=    41    41.
 Leave Link  302 at Wed Aug 31 10:33:54 2022, MaxMem=  209715200 cpu:       5.4
 (Enter /opt/gaussian/l303.exe)
 DipDrv:  MaxL=1.
 Leave Link  303 at Wed Aug 31 10:33:54 2022, MaxMem=  209715200 cpu:       0.9
 (Enter /opt/gaussian/l401.exe)
 Harris functional with IExCor=  402 diagonalized for initial guess.
 ExpMin= 1.22D-01 ExpMax= 1.11D+05 ExpMxC= 1.07D+03 IAcc=2 IRadAn=         4 AccDes= 0.00D+00
 HarFok:  IExCor=  402 AccDes= 0.00D+00 IRadAn=         4 IDoV= 1
 ScaDFX=  1.000000  1.000000  1.000000  1.000000
 FoFCou: FMM=F IPFlag=           0 FMFlag=      100000 FMFlg1=           0
         NFxFlg=           0 DoJE=T BraDBF=F KetDBF=T FulRan=T
         Omega=  0.000000  0.000000  1.000000  0.000000  0.000000 ICntrl=     500 IOpCl=  0
         NMat0=    1 NMatS0=    1 NMatT0=    0 NMatD0=    1 NMtDS0=    0 NMtDT0=    0
         I1Cent=           4 NGrid=           0.
 Petite list used in FoFCou.
 Harris En= -1425.96385749643    
 Initial guess orbital symmetries:
       Occupied  (A) (A) (A) (A) (A) (A) (A) (A) (A) (A) (A) (A)
                 (A) (A) (A) (A) (A) (A) (A) (A) (A) (A) (A) (A)
                 (A) (A) (A) (A) (A) (A) (A) (A) (A) (A) (A) (A)
                 (A) (A) (A) (A) (A) (A) (A) (A) (A) (A) (A) (A)
                 (A) (A) (A) (A) (A) (A) (A) (A) (A) (A) (A) (A)
                 (A) (A) (A) (A) (A) (A) (A) (A) (A) (A) (A) (A)
                 (A) (A) (A) (A) (A) (A) (A) (A) (A) (A) (A) (A)
                 (A) (A) (A) (A) (A) (A) (A)
       Virtual   (A) (A) (A) (A) (A) (A) (A) (A) (A) (A) (A) (A)
                 (A) (A) (A) (A) (A) (A) (A) (A) (A) (A) (A) (A)
                 (A) (A) (A) (A) (A) (A) (A) (A) (A) (A) (A) (A)
                 (A) (A) (A) (A) (A) (A) (A) (A) (A) (A) (A) (A)
                 (A) (A) (A) (A) (A) (A) (A) (A) (A) (A) (A) (A)
                 (A) (A) (A) (A) (A) (A) (A) (A) (A) (A) (A) (A)
                 (A) (A) (A) (A) (A) (A) (A) (A) (A) (A) (A) (A)
                 (A) (A) (A) (A) (A) (A) (A) (A) (A) (A) (A) (A)
                 (A) (A) (A) (A) (A) (A) (A) (A) (A) (A) (A) (A)
                 (A) (A) (A) (A) (A) (A) (A) (A) (A) (A) (A) (A)
                 (A) (A) (A) (A) (A) (A) (A) (A) (A) (A) (A) (A)
                 (A) (A) (A) (A) (A) (A) (A) (A) (A) (A) (A) (A)
                 (A) (A) (A) (A) (A) (A) (A) (A) (A) (A) (A) (A)
                 (A) (A) (A) (A) (A) (A) (A) (A) (A) (A) (A) (A)
                 (A) (A) (A) (A) (A) (A) (A) (A) (A) (A) (A) (A)
                 (A) (A) (A) (A) (A) (A) (A) (A) (A) (A) (A) (A)
                 (A) (A) (A) (A) (A) (A) (A) (A) (A) (A) (A) (A)
                 (A) (A) (A) (A) (A) (A) (A) (A) (A) (A) (A) (A)
                 (A) (A) (A) (A) (A) (A) (A) (A) (A) (A) (A) (A)
                 (A) (A) (A) (A) (A) (A) (A) (A) (A) (A) (A) (A)
                 (A) (A) (A) (A) (A) (A) (A) (A) (A) (A) (A) (A)
                 (A) (A) (A) (A) (A) (A) (A) (A) (A) (A) (A) (A)
                 (A) (A) (A) (A) (A) (A) (A) (A) (A) (A) (A) (A)
                 (A) (A) (A) (A) (A) (A) (A) (A) (A) (A) (A) (A)
                 (A) (A) (A) (A) (A) (A) (A) (A) (A) (A) (A) (A)
                 (A) (A) (A) (A) (A) (A) (A) (A) (A) (A) (A) (A)
                 (A) (A) (A) (A) (A) (A) (A) (A) (A) (A) (A) (A)
                 (A) (A) (A) (A) (A) (A) (A) (A) (A) (A) (A) (A)
                 (A) (A) (A) (A) (A) (A) (A)
 The electronic state of the initial guess is 1-A.
 Leave Link  401 at Wed Aug 31 10:33:56 2022, MaxMem=  209715200 cpu:      17.5
 (Enter /opt/gaussian/l502.exe)
 Closed shell SCF:
 Requested convergence on RMS density matrix=1.00D-08 within 128 cycles.
 Requested convergence on MAX density matrix=1.00D-06.
 Requested convergence on             energy=1.00D-06.
 No special actions if energy rises.
 Using DIIS extrapolation, IDIIS=  1040.
 Integral symmetry usage will be decided dynamically.
       353206 words used for storage of precomputed grid.
 IEnd=     1010537 IEndB=     1010537 NGot=   209715200 MDV=   208932444
 LenX=   208932444 LenY=   208721304
 Fock matrices will be formed incrementally for  20 cycles.
 Integral accuracy reduced to 1.0D-05 until final iterations.

 Cycle   1  Pass 0  IDiag  1:
 FoFCou: FMM=F IPFlag=           0 FMFlag=      100000 FMFlg1=           0
         NFxFlg=           0 DoJE=F BraDBF=F KetDBF=F FulRan=T
         Omega=  0.000000  0.000000  1.000000  0.000000  0.000000 ICntrl=       0 IOpCl=  0
         NMat0=    1 NMatS0=    1 NMatT0=    0 NMatD0=    1 NMtDS0=    0 NMtDT0=    0
         I1Cent=           0 NGrid=           0.
 Symmetry not used in FoFCou.
 E= -1425.49997969456    
 DIIS: error= 2.57D-02 at cycle   1 NSaved=   1.
 NSaved= 1 IEnMin= 1 EnMin= -1425.49997969456     IErMin= 1 ErrMin= 2.57D-02
 ErrMax= 2.57D-02 EMaxC= 1.00D-01 BMatC= 5.59D-01 BMatP= 5.59D-01
 IDIUse=3 WtCom= 7.43D-01 WtEn= 2.57D-01
 Coeff-Com:  0.100D+01
 Coeff-En:   0.100D+01
 Coeff:      0.100D+01
 Gap=     0.314 Goal=   None    Shift=    0.000
 GapD=    0.314 DampG=1.000 DampE=0.500 DampFc=0.5000 IDamp=-1.
 Damping current iteration by 5.00D-01
 RMSDP=4.90D-03 MaxDP=1.96D-01              OVMax= 3.20D-01

 Cycle   2  Pass 0  IDiag  1:
 RMSU=  1.71D-03    CP:  9.79D-01
 E= -1425.62701383083     Delta-E=       -0.127034136267 Rises=F Damp=T
 DIIS: error= 9.33D-03 at cycle   2 NSaved=   2.
 NSaved= 2 IEnMin= 2 EnMin= -1425.62701383083     IErMin= 2 ErrMin= 9.33D-03
 ErrMax= 9.33D-03 EMaxC= 1.00D-01 BMatC= 1.21D-01 BMatP= 5.59D-01
 IDIUse=3 WtCom= 9.07D-01 WtEn= 9.33D-02
 Coeff-Com:  0.264D+00 0.736D+00
 Coeff-En:   0.397D+00 0.603D+00
 Coeff:      0.277D+00 0.723D+00
 Gap=     0.244 Goal=   None    Shift=    0.000
 RMSDP=1.72D-03 MaxDP=6.53D-02 DE=-1.27D-01 OVMax= 3.13D-01

 Cycle   3  Pass 0  IDiag  1:
 RMSU=  1.11D-03    CP:  9.65D-01  7.34D-01
 E= -1426.03548492628     Delta-E=       -0.408471095450 Rises=F Damp=F
 DIIS: error= 8.24D-03 at cycle   3 NSaved=   3.
 NSaved= 3 IEnMin= 3 EnMin= -1426.03548492628     IErMin= 3 ErrMin= 8.24D-03
 ErrMax= 8.24D-03 EMaxC= 1.00D-01 BMatC= 8.41D-02 BMatP= 1.21D-01
 IDIUse=3 WtCom= 9.18D-01 WtEn= 8.24D-02
 Coeff-Com:  0.934D-01 0.446D+00 0.461D+00
 Coeff-En:   0.000D+00 0.000D+00 0.100D+01
 Coeff:      0.857D-01 0.409D+00 0.505D+00
 Gap=     0.204 Goal=   None    Shift=    0.000
 RMSDP=8.91D-04 MaxDP=4.84D-02 DE=-4.08D-01 OVMax= 1.09D-01

 Cycle   4  Pass 0  IDiag  1:
 RMSU=  4.86D-04    CP:  9.69D-01  7.99D-01  6.55D-01
 E= -1426.09743016869     Delta-E=       -0.061945242414 Rises=F Damp=F
 DIIS: error= 3.87D-03 at cycle   4 NSaved=   4.
 NSaved= 4 IEnMin= 4 EnMin= -1426.09743016869     IErMin= 4 ErrMin= 3.87D-03
 ErrMax= 3.87D-03 EMaxC= 1.00D-01 BMatC= 1.85D-02 BMatP= 8.41D-02
 IDIUse=3 WtCom= 9.61D-01 WtEn= 3.87D-02
 Coeff-Com:  0.239D-01 0.139D+00 0.328D+00 0.509D+00
 Coeff-En:   0.000D+00 0.000D+00 0.206D+00 0.794D+00
 Coeff:      0.229D-01 0.134D+00 0.324D+00 0.520D+00
 Gap=     0.194 Goal=   None    Shift=    0.000
 RMSDP=4.03D-04 MaxDP=2.12D-02 DE=-6.19D-02 OVMax= 4.50D-02

 Cycle   5  Pass 0  IDiag  1:
 RMSU=  1.74D-04    CP:  9.68D-01  7.90D-01  7.09D-01  5.54D-01
 E= -1426.11231168228     Delta-E=       -0.014881513590 Rises=F Damp=F
 DIIS: error= 1.71D-03 at cycle   5 NSaved=   5.
 NSaved= 5 IEnMin= 5 EnMin= -1426.11231168228     IErMin= 5 ErrMin= 1.71D-03
 ErrMax= 1.71D-03 EMaxC= 1.00D-01 BMatC= 2.31D-03 BMatP= 1.85D-02
 IDIUse=3 WtCom= 9.83D-01 WtEn= 1.71D-02
 Coeff-Com:  0.428D-02 0.258D-01 0.143D+00 0.341D+00 0.486D+00
 Coeff-En:   0.000D+00 0.000D+00 0.000D+00 0.117D+00 0.883D+00
 Coeff:      0.421D-02 0.254D-01 0.141D+00 0.337D+00 0.493D+00
 Gap=     0.193 Goal=   None    Shift=    0.000
 RMSDP=1.44D-04 MaxDP=7.98D-03 DE=-1.49D-02 OVMax= 1.75D-02

 Cycle   6  Pass 0  IDiag  1:
 RMSU=  4.51D-05    CP:  9.67D-01  7.84D-01  7.29D-01  6.48D-01  5.68D-01
 E= -1426.11466892433     Delta-E=       -0.002357242049 Rises=F Damp=F
 DIIS: error= 4.92D-04 at cycle   6 NSaved=   6.
 NSaved= 6 IEnMin= 6 EnMin= -1426.11466892433     IErMin= 6 ErrMin= 4.92D-04
 ErrMax= 4.92D-04 EMaxC= 1.00D-01 BMatC= 1.93D-04 BMatP= 2.31D-03
 IDIUse=3 WtCom= 9.95D-01 WtEn= 4.92D-03
 Coeff-Com:  0.295D-04-0.382D-02 0.412D-01 0.134D+00 0.288D+00 0.541D+00
 Coeff-En:   0.000D+00 0.000D+00 0.000D+00 0.000D+00 0.168D-01 0.983D+00
 Coeff:      0.294D-04-0.381D-02 0.410D-01 0.134D+00 0.286D+00 0.543D+00
 Gap=     0.193 Goal=   None    Shift=    0.000
 RMSDP=3.67D-05 MaxDP=2.22D-03 DE=-2.36D-03 OVMax= 4.59D-03

 Cycle   7  Pass 0  IDiag  1:
 RMSU=  1.74D-05    CP:  9.67D-01  7.85D-01  7.30D-01  6.44D-01  6.05D-01
                    CP:  6.05D-01
 E= -1426.11484857634     Delta-E=       -0.000179652015 Rises=F Damp=F
 DIIS: error= 1.74D-04 at cycle   7 NSaved=   7.
 NSaved= 7 IEnMin= 7 EnMin= -1426.11484857634     IErMin= 7 ErrMin= 1.74D-04
 ErrMax= 1.74D-04 EMaxC= 1.00D-01 BMatC= 2.07D-05 BMatP= 1.93D-04
 IDIUse=3 WtCom= 9.98D-01 WtEn= 1.74D-03
 Coeff-Com: -0.178D-03-0.447D-02 0.106D-01 0.447D-01 0.117D+00 0.314D+00
 Coeff-Com:  0.518D+00
 Coeff-En:   0.000D+00 0.000D+00 0.000D+00 0.000D+00 0.000D+00 0.465D-01
 Coeff-En:   0.953D+00
 Coeff:     -0.178D-03-0.446D-02 0.106D-01 0.446D-01 0.117D+00 0.314D+00
 Coeff:      0.519D+00
 Gap=     0.193 Goal=   None    Shift=    0.000
 RMSDP=1.23D-05 MaxDP=6.46D-04 DE=-1.80D-04 OVMax= 1.15D-03

 Cycle   8  Pass 0  IDiag  1:
 RMSU=  4.94D-06    CP:  9.67D-01  7.85D-01  7.30D-01  6.47D-01  6.11D-01
                    CP:  6.71D-01  6.46D-01
 E= -1426.11486910717     Delta-E=       -0.000020530824 Rises=F Damp=F
 DIIS: error= 5.04D-05 at cycle   8 NSaved=   8.
 NSaved= 8 IEnMin= 8 EnMin= -1426.11486910717     IErMin= 8 ErrMin= 5.04D-05
 ErrMax= 5.04D-05 EMaxC= 1.00D-01 BMatC= 2.12D-06 BMatP= 2.07D-05
 IDIUse=1 WtCom= 1.00D+00 WtEn= 0.00D+00
 Coeff-Com: -0.955D-05-0.244D-02 0.367D-02 0.171D-01 0.490D-01 0.147D+00
 Coeff-Com:  0.311D+00 0.474D+00
 Coeff:     -0.955D-05-0.244D-02 0.367D-02 0.171D-01 0.490D-01 0.147D+00
 Coeff:      0.311D+00 0.474D+00
 Gap=     0.193 Goal=   None    Shift=    0.000
 RMSDP=4.23D-06 MaxDP=2.52D-04 DE=-2.05D-05 OVMax= 4.22D-04

 Initial convergence to 1.0D-05 achieved.  Increase integral accuracy.
 Cycle   9  Pass 1  IDiag  1:
 E= -1426.11484367436     Delta-E=        0.000025432808 Rises=F Damp=F
 DIIS: error= 1.58D-04 at cycle   1 NSaved=   1.
 NSaved= 1 IEnMin= 1 EnMin= -1426.11484367436     IErMin= 1 ErrMin= 1.58D-04
 ErrMax= 1.58D-04 EMaxC= 1.00D-01 BMatC= 5.47D-06 BMatP= 5.47D-06
 IDIUse=3 WtCom= 9.98D-01 WtEn= 1.58D-03
 Coeff-Com:  0.100D+01
 Coeff-En:   0.100D+01
 Coeff:      0.100D+01
 Gap=     0.193 Goal=   None    Shift=    0.000
 RMSDP=4.23D-06 MaxDP=2.52D-04 DE= 2.54D-05 OVMax= 5.91D-04

 Cycle  10  Pass 1  IDiag  1:
 RMSU=  7.18D-05    CP:  1.00D+00
 E= -1426.11484754175     Delta-E=       -0.000003867393 Rises=F Damp=F
 DIIS: error= 4.78D-05 at cycle   2 NSaved=   2.
 NSaved= 2 IEnMin= 2 EnMin= -1426.11484754175     IErMin= 2 ErrMin= 4.78D-05
 ErrMax= 4.78D-05 EMaxC= 1.00D-01 BMatC= 1.86D-06 BMatP= 5.47D-06
 IDIUse=1 WtCom= 1.00D+00 WtEn= 0.00D+00
 Coeff-Com:  0.295D+00 0.705D+00
 Coeff:      0.295D+00 0.705D+00
 Gap=     0.193 Goal=   None    Shift=    0.000
 RMSDP=7.11D-06 MaxDP=4.92D-04 DE=-3.87D-06 OVMax= 9.80D-04

 Cycle  11  Pass 1  IDiag  1:
 RMSU=  5.00D-06    CP:  1.00D+00  1.01D+00
 E= -1426.11484596497     Delta-E=        0.000001576777 Rises=F Damp=F
 DIIS: error= 6.98D-05 at cycle   3 NSaved=   3.
 NSaved= 3 IEnMin= 2 EnMin= -1426.11484754175     IErMin= 2 ErrMin= 4.78D-05
 ErrMax= 6.98D-05 EMaxC= 1.00D-01 BMatC= 3.59D-06 BMatP= 1.86D-06
 IDIUse=1 WtCom= 1.00D+00 WtEn= 0.00D+00
 Coeff-Com: -0.142D-02 0.582D+00 0.419D+00
 Coeff:     -0.142D-02 0.582D+00 0.419D+00
 Gap=     0.193 Goal=   None    Shift=    0.000
 RMSDP=4.17D-06 MaxDP=3.10D-04 DE= 1.58D-06 OVMax= 6.02D-04

 Cycle  12  Pass 1  IDiag  1:
 RMSU=  5.02D-07    CP:  1.00D+00  1.01D+00  4.23D-01
 E= -1426.11484925308     Delta-E=       -0.000003288109 Rises=F Damp=F
 DIIS: error= 4.74D-06 at cycle   4 NSaved=   4.
 NSaved= 4 IEnMin= 4 EnMin= -1426.11484925308     IErMin= 4 ErrMin= 4.74D-06
 ErrMax= 4.74D-06 EMaxC= 1.00D-01 BMatC= 2.87D-08 BMatP= 1.86D-06
 IDIUse=1 WtCom= 1.00D+00 WtEn= 0.00D+00
 Coeff-Com: -0.427D-02 0.347D+00 0.255D+00 0.403D+00
 Coeff:     -0.427D-02 0.347D+00 0.255D+00 0.403D+00
 Gap=     0.193 Goal=   None    Shift=    0.000
 RMSDP=3.87D-07 MaxDP=3.22D-05 DE=-3.29D-06 OVMax= 4.58D-05

 Cycle  13  Pass 1  IDiag  1:
 RMSU=  1.59D-07    CP:  1.00D+00  1.01D+00  4.32D-01  5.64D-01
 E= -1426.11484928134     Delta-E=       -0.000000028253 Rises=F Damp=F
 DIIS: error= 6.23D-07 at cycle   5 NSaved=   5.
 NSaved= 5 IEnMin= 5 EnMin= -1426.11484928134     IErMin= 5 ErrMin= 6.23D-07
 ErrMax= 6.23D-07 EMaxC= 1.00D-01 BMatC= 5.54D-10 BMatP= 2.87D-08
 IDIUse=1 WtCom= 1.00D+00 WtEn= 0.00D+00
 Coeff-Com: -0.209D-02 0.154D+00 0.113D+00 0.207D+00 0.528D+00
 Coeff:     -0.209D-02 0.154D+00 0.113D+00 0.207D+00 0.528D+00
 Gap=     0.193 Goal=   None    Shift=    0.000
 RMSDP=7.23D-08 MaxDP=3.78D-06 DE=-2.83D-08 OVMax= 7.41D-06

 Cycle  14  Pass 1  IDiag  1:
 RMSU=  4.63D-08    CP:  1.00D+00  1.01D+00  4.30D-01  5.86D-01  9.00D-01
 E= -1426.11484928178     Delta-E=       -0.000000000442 Rises=F Damp=F
 DIIS: error= 2.63D-07 at cycle   6 NSaved=   6.
 NSaved= 6 IEnMin= 6 EnMin= -1426.11484928178     IErMin= 6 ErrMin= 2.63D-07
 ErrMax= 2.63D-07 EMaxC= 1.00D-01 BMatC= 9.41D-11 BMatP= 5.54D-10
 IDIUse=1 WtCom= 1.00D+00 WtEn= 0.00D+00
 Coeff-Com: -0.689D-03 0.460D-01 0.336D-01 0.702D-01 0.314D+00 0.537D+00
 Coeff:     -0.689D-03 0.460D-01 0.336D-01 0.702D-01 0.314D+00 0.537D+00
 Gap=     0.193 Goal=   None    Shift=    0.000
 RMSDP=2.88D-08 MaxDP=1.55D-06 DE=-4.42D-10 OVMax= 3.04D-06

 Cycle  15  Pass 1  IDiag  1:
 RMSU=  1.42D-08    CP:  1.00D+00  1.01D+00  4.30D-01  5.91D-01  9.31D-01
                    CP:  7.12D-01
 E= -1426.11484928194     Delta-E=       -0.000000000157 Rises=F Damp=F
 DIIS: error= 1.54D-07 at cycle   7 NSaved=   7.
 NSaved= 7 IEnMin= 7 EnMin= -1426.11484928194     IErMin= 7 ErrMin= 1.54D-07
 ErrMax= 1.54D-07 EMaxC= 1.00D-01 BMatC= 1.86D-11 BMatP= 9.41D-11
 IDIUse=1 WtCom= 1.00D+00 WtEn= 0.00D+00
 Coeff-Com: -0.626D-04 0.138D-02 0.984D-03 0.714D-02 0.104D+00 0.350D+00
 Coeff-Com:  0.537D+00
 Coeff:     -0.626D-04 0.138D-02 0.984D-03 0.714D-02 0.104D+00 0.350D+00
 Coeff:      0.537D+00
 Gap=     0.193 Goal=   None    Shift=    0.000
 RMSDP=1.15D-08 MaxDP=8.26D-07 DE=-1.57D-10 OVMax= 1.08D-06

 Cycle  16  Pass 1  IDiag  1:
 RMSU=  5.53D-09    CP:  1.00D+00  1.01D+00  4.30D-01  5.95D-01  9.40D-01
                    CP:  7.57D-01  6.46D-01
 E= -1426.11484928194     Delta-E=       -0.000000000006 Rises=F Damp=F
 DIIS: error= 4.90D-08 at cycle   8 NSaved=   8.
 NSaved= 8 IEnMin= 8 EnMin= -1426.11484928194     IErMin= 8 ErrMin= 4.90D-08
 ErrMax= 4.90D-08 EMaxC= 1.00D-01 BMatC= 2.31D-12 BMatP= 1.86D-11
 IDIUse=1 WtCom= 1.00D+00 WtEn= 0.00D+00
 Coeff-Com:  0.408D-04-0.438D-02-0.322D-02-0.371D-02 0.279D-01 0.163D+00
 Coeff-Com:  0.333D+00 0.488D+00
 Coeff:      0.408D-04-0.438D-02-0.322D-02-0.371D-02 0.279D-01 0.163D+00
 Coeff:      0.333D+00 0.488D+00
 Gap=     0.193 Goal=   None    Shift=    0.000
 RMSDP=4.76D-09 MaxDP=2.06D-07 DE=-5.91D-12 OVMax= 5.44D-07

 SCF Done:  E(RB3LYP) =  -1426.11484928     A.U. after   16 cycles
             Convg  =    0.4758D-08             -V/T =  2.0048
 KE= 1.419269634762D+03 PE=-7.708842039436D+03 EE= 2.677098045994D+03
 Leave Link  502 at Wed Aug 31 10:41:31 2022, MaxMem=  209715200 cpu:    3630.0
 (Enter /opt/gaussian/l601.exe)
 Copying SCF densities to generalized density rwf, IOpCl= 0 IROHF=0.

 **********************************************************************

            Population analysis using the SCF density.

 **********************************************************************

 Orbital symmetries:
       Occupied  (A) (A) (A) (A) (A) (A) (A) (A) (A) (A) (A) (A)
                 (A) (A) (A) (A) (A) (A) (A) (A) (A) (A) (A) (A)
                 (A) (A) (A) (A) (A) (A) (A) (A) (A) (A) (A) (A)
                 (A) (A) (A) (A) (A) (A) (A) (A) (A) (A) (A) (A)
                 (A) (A) (A) (A) (A) (A) (A) (A) (A) (A) (A) (A)
                 (A) (A) (A) (A) (A) (A) (A) (A) (A) (A) (A) (A)
                 (A) (A) (A) (A) (A) (A) (A) (A) (A) (A) (A) (A)
                 (A) (A) (A) (A) (A) (A) (A)
       Virtual   (A) (A) (A) (A) (A) (A) (A) (A) (A) (A) (A) (A)
                 (A) (A) (A) (A) (A) (A) (A) (A) (A) (A) (A) (A)
                 (A) (A) (A) (A) (A) (A) (A) (A) (A) (A) (A) (A)
                 (A) (A) (A) (A) (A) (A) (A) (A) (A) (A) (A) (A)
                 (A) (A) (A) (A) (A) (A) (A) (A) (A) (A) (A) (A)
                 (A) (A) (A) (A) (A) (A) (A) (A) (A) (A) (A) (A)
                 (A) (A) (A) (A) (A) (A) (A) (A) (A) (A) (A) (A)
                 (A) (A) (A) (A) (A) (A) (A) (A) (A) (A) (A) (A)
                 (A) (A) (A) (A) (A) (A) (A) (A) (A) (A) (A) (A)
                 (A) (A) (A) (A) (A) (A) (A) (A) (A) (A) (A) (A)
                 (A) (A) (A) (A) (A) (A) (A) (A) (A) (A) (A) (A)
                 (A) (A) (A) (A) (A) (A) (A) (A) (A) (A) (A) (A)
                 (A) (A) (A) (A) (A) (A) (A) (A) (A) (A) (A) (A)
                 (A) (A) (A) (A) (A) (A) (A) (A) (A) (A) (A) (A)
                 (A) (A) (A) (A) (A) (A) (A) (A) (A) (A) (A) (A)
                 (A) (A) (A) (A) (A) (A) (A) (A) (A) (A) (A) (A)
                 (A) (A) (A) (A) (A) (A) (A) (A) (A) (A) (A) (A)
                 (A) (A) (A) (A) (A) (A) (A) (A) (A) (A) (A) (A)
                 (A) (A) (A) (A) (A) (A) (A) (A) (A) (A) (A) (A)
                 (A) (A) (A) (A) (A) (A) (A) (A) (A) (A) (A) (A)
                 (A) (A) (A) (A) (A) (A) (A) (A) (A) (A) (A) (A)
                 (A) (A) (A) (A) (A) (A) (A) (A) (A) (A) (A) (A)
                 (A) (A) (A) (A) (A) (A) (A) (A) (A) (A) (A) (A)
                 (A) (A) (A) (A) (A) (A) (A) (A) (A) (A) (A) (A)
                 (A) (A) (A) (A) (A) (A) (A) (A) (A) (A) (A) (A)
                 (A) (A) (A) (A) (A) (A) (A) (A) (A) (A) (A) (A)
                 (A) (A) (A) (A) (A) (A) (A) (A) (A) (A) (A) (A)
                 (A) (A) (A) (A) (A) (A) (A) (A) (A) (A) (A) (A)
                 (A) (A) (A) (A) (A) (A) (A)
 The electronic state is 1-A.
 Alpha  occ. eigenvalues --  -88.90762 -19.11775 -14.41003 -14.38832 -14.37826
 Alpha  occ. eigenvalues --  -14.34567 -10.29827 -10.24574 -10.24155 -10.23476
 Alpha  occ. eigenvalues --  -10.22638 -10.21741 -10.21270 -10.20621 -10.20571
 Alpha  occ. eigenvalues --  -10.20522 -10.20440 -10.20415 -10.20364 -10.20031
 Alpha  occ. eigenvalues --  -10.19513 -10.19364 -10.19256 -10.19237 -10.18853
 Alpha  occ. eigenvalues --   -7.96837  -5.93179  -5.92817  -5.92448  -1.10074
 Alpha  occ. eigenvalues --   -1.05039  -0.96059  -0.92638  -0.87883  -0.87031
 Alpha  occ. eigenvalues --   -0.86837  -0.78712  -0.77656  -0.76976  -0.76913
 Alpha  occ. eigenvalues --   -0.75625  -0.74087  -0.73379  -0.68851  -0.64877
 Alpha  occ. eigenvalues --   -0.64392  -0.63114  -0.62554  -0.60089  -0.57969
 Alpha  occ. eigenvalues --   -0.57388  -0.55174  -0.54167  -0.52895  -0.52749
 Alpha  occ. eigenvalues --   -0.51468  -0.50869  -0.49180  -0.47625  -0.47067
 Alpha  occ. eigenvalues --   -0.46697  -0.45872  -0.44920  -0.44785  -0.44169
 Alpha  occ. eigenvalues --   -0.43434  -0.42894  -0.42387  -0.41350  -0.39760
 Alpha  occ. eigenvalues --   -0.38884  -0.38224  -0.38042  -0.37631  -0.37508
 Alpha  occ. eigenvalues --   -0.36774  -0.36535  -0.36206  -0.35803  -0.34366
 Alpha  occ. eigenvalues --   -0.33328  -0.31320  -0.28079  -0.27436  -0.26882
 Alpha  occ. eigenvalues --   -0.26351  -0.26013  -0.25246  -0.25083  -0.24341
 Alpha  occ. eigenvalues --   -0.23152
 Alpha virt. eigenvalues --   -0.03818  -0.03107  -0.02737  -0.01821  -0.00017
 Alpha virt. eigenvalues --    0.01455   0.02273   0.03876   0.04929   0.05417
 Alpha virt. eigenvalues --    0.07222   0.07653   0.08524   0.08979   0.09305
 Alpha virt. eigenvalues --    0.10033   0.10680   0.10937   0.11412   0.11930
 Alpha virt. eigenvalues --    0.13091   0.13391   0.13680   0.13819   0.14674
 Alpha virt. eigenvalues --    0.14755   0.15782   0.16803   0.17315   0.18849
 Alpha virt. eigenvalues --    0.20374   0.20774   0.21400   0.23867   0.24564
 Alpha virt. eigenvalues --    0.25477   0.25627   0.27274   0.27296   0.28327
 Alpha virt. eigenvalues --    0.29091   0.30414   0.30890   0.31360   0.31794
 Alpha virt. eigenvalues --    0.33253   0.35759   0.36734   0.37802   0.38103
 Alpha virt. eigenvalues --    0.39173   0.40309   0.41062   0.41361   0.42541
 Alpha virt. eigenvalues --    0.43905   0.44690   0.44851   0.45292   0.45482
 Alpha virt. eigenvalues --    0.46360   0.46561   0.46727   0.46975   0.47389
 Alpha virt. eigenvalues --    0.48060   0.48564   0.48954   0.49396   0.49778
 Alpha virt. eigenvalues --    0.49926   0.50105   0.50347   0.50701   0.50882
 Alpha virt. eigenvalues --    0.51201   0.51293   0.51730   0.52379   0.52971
 Alpha virt. eigenvalues --    0.54296   0.54836   0.55183   0.55802   0.56025
 Alpha virt. eigenvalues --    0.56649   0.57060   0.57738   0.58490   0.58905
 Alpha virt. eigenvalues --    0.59599   0.60366   0.60643   0.61521   0.62476
 Alpha virt. eigenvalues --    0.63009   0.63405   0.63943   0.64474   0.65164
 Alpha virt. eigenvalues --    0.65272   0.65445   0.66360   0.66510   0.67125
 Alpha virt. eigenvalues --    0.67631   0.68798   0.69593   0.70198   0.70392
 Alpha virt. eigenvalues --    0.70658   0.71429   0.71940   0.72533   0.72700
 Alpha virt. eigenvalues --    0.73130   0.73753   0.74968   0.76461   0.77295
 Alpha virt. eigenvalues --    0.78058   0.79332   0.80703   0.81345   0.82710
 Alpha virt. eigenvalues --    0.83772   0.84794   0.85876   0.86069   0.86802
 Alpha virt. eigenvalues --    0.87121   0.87842   0.88896   0.89289   0.89822
 Alpha virt. eigenvalues --    0.90328   0.90922   0.91678   0.92296   0.93425
 Alpha virt. eigenvalues --    0.93635   0.94327   0.95327   0.95557   0.96345
 Alpha virt. eigenvalues --    0.97325   0.97930   0.98694   0.99505   1.00099
 Alpha virt. eigenvalues --    1.00802   1.01161   1.01634   1.02085   1.02427
 Alpha virt. eigenvalues --    1.03109   1.03822   1.04158   1.04213   1.05668
 Alpha virt. eigenvalues --    1.05891   1.07203   1.07420   1.09464   1.10237
 Alpha virt. eigenvalues --    1.11275   1.11791   1.14288   1.14827   1.17301
 Alpha virt. eigenvalues --    1.17613   1.19579   1.20269   1.21527   1.22065
 Alpha virt. eigenvalues --    1.23221   1.24723   1.25621   1.26331   1.27458
 Alpha virt. eigenvalues --    1.29042   1.30214   1.30833   1.32474   1.33325
 Alpha virt. eigenvalues --    1.36362   1.37446   1.38314   1.39895   1.41182
 Alpha virt. eigenvalues --    1.41936   1.43292   1.44126   1.45410   1.45846
 Alpha virt. eigenvalues --    1.47371   1.48207   1.48669   1.49130   1.49764
 Alpha virt. eigenvalues --    1.50985   1.51637   1.52553   1.53299   1.54836
 Alpha virt. eigenvalues --    1.56376   1.57174   1.57473   1.57842   1.58794
 Alpha virt. eigenvalues --    1.58996   1.59455   1.60491   1.61086   1.61578
 Alpha virt. eigenvalues --    1.62515   1.63050   1.63479   1.63694   1.64700
 Alpha virt. eigenvalues --    1.65224   1.65808   1.66062   1.66318   1.67160
 Alpha virt. eigenvalues --    1.67874   1.69839   1.70188   1.70682   1.70862
 Alpha virt. eigenvalues --    1.71497   1.72617   1.73117   1.73668   1.74026
 Alpha virt. eigenvalues --    1.75106   1.75401   1.76363   1.77363   1.77518
 Alpha virt. eigenvalues --    1.77846   1.78843   1.79582   1.80025   1.80209
 Alpha virt. eigenvalues --    1.80873   1.82640   1.83536   1.83573   1.84653
 Alpha virt. eigenvalues --    1.84888   1.85464   1.86065   1.86435   1.87200
 Alpha virt. eigenvalues --    1.87667   1.88375   1.90158   1.90933   1.92564
 Alpha virt. eigenvalues --    1.92856   1.95154   1.95212   1.96604   1.97557
 Alpha virt. eigenvalues --    1.97680   1.97899   1.99329   2.00132   2.00922
 Alpha virt. eigenvalues --    2.01990   2.02627   2.02818   2.04045   2.04378
 Alpha virt. eigenvalues --    2.04795   2.05969   2.07849   2.09616   2.11768
 Alpha virt. eigenvalues --    2.13109   2.15261   2.16425   2.16572   2.18461
 Alpha virt. eigenvalues --    2.19413   2.20441   2.21688   2.22620   2.23929
 Alpha virt. eigenvalues --    2.24293   2.27020   2.31619   2.33689   2.35849
 Alpha virt. eigenvalues --    2.36957   2.40268   2.41956   2.42060   2.42944
 Alpha virt. eigenvalues --    2.43818   2.44261   2.45154   2.45501   2.47199
 Alpha virt. eigenvalues --    2.47894   2.49037   2.49678   2.52526   2.53051
 Alpha virt. eigenvalues --    2.54931   2.55626   2.56348   2.61047   2.62819
 Alpha virt. eigenvalues --    2.65179   2.65800   2.67467   2.69015   2.70329
 Alpha virt. eigenvalues --    2.71637   2.72734   2.73075   2.75015   2.76409
 Alpha virt. eigenvalues --    2.77923   2.79273   2.80195   2.83002   2.85952
 Alpha virt. eigenvalues --    2.88205   2.95777   2.97206   2.99843   3.02634
 Alpha virt. eigenvalues --    3.09381   3.09738   3.11452   3.13150   3.41781
 Alpha virt. eigenvalues --    3.49734   3.60451   3.64412
          Condensed to atoms (all electrons):
              1          2          3          4          5          6
     1  O    7.688359   0.698870  -0.069073  -0.002066   0.000035   0.000000
     2  C    0.698870   4.613763   0.358331  -0.039246   0.000776  -0.000435
     3  C   -0.069073   0.358331   4.576297   0.366075  -0.045403   0.007216
     4  N   -0.002066  -0.039246   0.366075   6.531191   0.288323  -0.118344
     5  N    0.000035   0.000776  -0.045403   0.288323   6.545911   0.463958
     6  N    0.000000  -0.000435   0.007216  -0.118344   0.463958   6.433201
     7  C    0.000082  -0.000112   0.007931  -0.014873  -0.123128   0.503768
     8  C   -0.000003   0.000045  -0.000504   0.007040   0.000866  -0.051259
     9  C    0.000004  -0.000011   0.000055   0.000747   0.000126   0.004503
    10  C    0.000315   0.000130  -0.000519   0.002122  -0.000128  -0.000685
    11  C   -0.000348  -0.000313  -0.002861  -0.052593   0.003157   0.012282
    12  C   -0.001212  -0.003648  -0.053571   0.326234  -0.094483  -0.072190
    13  N   -0.081752   0.390496  -0.054495  -0.000849  -0.000047  -0.000001
    14  C    0.009922  -0.040796   0.008697  -0.000251  -0.000015   0.000000
    15  C   -0.012444  -0.010458  -0.001019  -0.000001   0.000000   0.000000
    16  C   -0.000033  -0.000106   0.000002   0.000000   0.000000   0.000000
    17  C   -0.000005  -0.000014  -0.000002   0.000000   0.000000   0.000000
    18  S    0.000116  -0.000017   0.000004   0.000000   0.000000   0.000000
    19  C    0.003447   0.002864   0.000030   0.000000   0.000000   0.000000
    20  C   -0.000078  -0.057281  -0.006777   0.000792  -0.001262   0.000010
    21  C   -0.000163  -0.006944  -0.002597  -0.000238   0.000971  -0.000054
    22  C    0.000001  -0.000013   0.000142  -0.000004  -0.000379   0.000000
    23  C    0.000000  -0.000004   0.000028   0.000001   0.000011   0.000000
    24  C    0.000000   0.000166  -0.000087   0.000004  -0.000004   0.000000
    25  C   -0.000095  -0.004149  -0.001481   0.000155   0.000005   0.000000
    26  H    0.001586  -0.020122   0.355565  -0.014774   0.002396  -0.000400
    27  H    0.003699  -0.005801   0.339491  -0.020087   0.014434   0.000710
    28  H    0.000000   0.000000   0.000001   0.000006  -0.000569  -0.000971
    29  H    0.000000   0.000000  -0.000001   0.000006   0.000009  -0.000110
    30  H   -0.000015   0.000001  -0.000015  -0.000156   0.000006  -0.000009
    31  H    0.020674  -0.001088   0.001069  -0.006064  -0.000289  -0.000259
    32  H    0.018518  -0.008702   0.001621  -0.000062   0.000001   0.000000
    33  H    0.001006   0.007026  -0.000416   0.000017   0.000000   0.000000
    34  H   -0.000002  -0.000035   0.000000   0.000000   0.000000   0.000000
    35  H    0.000000   0.000000   0.000000   0.000000   0.000000   0.000000
    36  H    0.013689   0.001454   0.000317   0.000000   0.000000   0.000000
    37  H   -0.000155  -0.000147  -0.001025  -0.000187   0.005753   0.000082
    38  H    0.000000  -0.000007  -0.000009   0.000000   0.000002  -0.000002
    39  H    0.000000   0.000000   0.000000   0.000000   0.000000   0.000000
    40  H    0.000000  -0.000010  -0.000008   0.000000   0.000000   0.000000
    41  H   -0.000165  -0.000030  -0.000249   0.000010  -0.000001   0.000000
              7          8          9         10         11         12
     1  O    0.000082  -0.000003   0.000004   0.000315  -0.000348  -0.001212
     2  C   -0.000112   0.000045  -0.000011   0.000130  -0.000313  -0.003648
     3  C    0.007931  -0.000504   0.000055  -0.000519  -0.002861  -0.053571
     4  N   -0.014873   0.007040   0.000747   0.002122  -0.052593   0.326234
     5  N   -0.123128   0.000866   0.000126  -0.000128   0.003157  -0.094483
     6  N    0.503768  -0.051259   0.004503  -0.000685   0.012282  -0.072190
     7  C    5.015272   0.432133   0.033304  -0.083440  -0.019110   0.270355
     8  C    0.432133   4.754299   0.502794   0.015992  -0.075355   0.014158
     9  C    0.033304   0.502794   4.744030   0.462870   0.009948  -0.093537
    10  C   -0.083440   0.015992   0.462870   4.719987   0.511267   0.019057
    11  C   -0.019110  -0.075355   0.009948   0.511267   4.817418   0.413184
    12  C    0.270355   0.014158  -0.093537   0.019057   0.413184   5.083043
    13  N   -0.000023   0.000000   0.000000   0.000001   0.000099  -0.000002
    14  C    0.000000   0.000000   0.000000   0.000000   0.000000  -0.000020
    15  C    0.000000   0.000000   0.000000   0.000000   0.000000   0.000000
[...]
 0259,0.,-0.00000331,0.00001561,-0.00001841,-0.00001404,-0.00002712,-0.
 00002957,-0.00002580,-0.00001352,0.00000108,-0.00002622,0.00000456,-0.
 00000102,-0.00001382,0.00000614,0.00000254,-0.00000069,-0.00001563,-0.
 00001524,-0.00000331,-0.06678578,0.08149587,0.00036461,-0.00017138,-0.
 00018112,-0.00076584,-0.00076658,0.00018454,-0.00010839,-0.00026679,-0
 .00015275,-0.00008559,-0.00046982,-0.00001616,-0.00026385,-0.00012004,
 0.00053204,0.00031108,-0.00004105,0.00029751,-0.00015642,0.00030347,-0
 .00023077,0.00020449,-0.00007945,0.00003791,0.00003247,0.00019547,0.00
 003756,-0.00015951,0.00004768,-0.00005927,-0.00000185,-0.00014542,-0.0
 0004116,0.00003223,0.00019447,-0.00007141,0.00325361,0.00060332,-0.001
 91940,-0.00018125,0.00021836,0.00021067,0.00004777,0.00002708,-0.00006
 716,-0.00002600,0.00000763,0.00001200,0.00004448,0.00002797,0.00004179
 ,0.00001976,-0.00002516,-0.00001314,0.00000007,-0.00000706,0.00000829,
 -0.01100019,0.00689658,-0.00452577,-0.13691193,0.04774405,-0.14513825,
 -0.00298259,-0.00084453,0.00125586,-0.00291018,0.00070992,0.00507956,0
 .00083658,-0.00019917,-0.00024857,-0.00344808,-0.00299938,0.00311307,0
 .00000103,0.00009228,-0.00002553,-0.00017924,0.00011823,-0.00011838,-0
 .00001375,-0.00001088,-0.00000441,-0.00001580,0.00001922,0.00000446,-0
 .00001549,0.00001745,0.00000450,-0.00000487,0.00001239,0.00000456,0.00
 007837,0.00002671,-0.00002610,0.00005290,0.00000490,-0.00008198,0.0000
 1553,-0.00000363,-0.00001914,0.00000349,0.00000107,-0.00000067,-0.0000
 0899,-0.00000637,-0.00000108,0.15188991,-0.05150781,0.14510891,-0.0000
 4788,0.00002377,0.00000325,0.00009789,-0.00003691,-0.00000950,0.000004
 46,0.00000910,-0.00000864,0.00000300,-0.00002948,0.00001088,0.00004908
 ,0.00000717,-0.00000530,-0.00004119,0.00000388,-0.00002435,-0.00000339
 ,-0.00001253,-0.00000060,-0.00001570,0.00000799,-0.00000588,-0.0000044
 6,-0.00001616,-0.00000346,0.00001365,-0.00000585,0.00000505,-0.0000000
 6,0.00001214,0.00000465,-0.00000410,-0.00003238,-0.00000170,0.00020931
 ,0.00043423,0.00022973,-0.00003282,0.00004102,-0.00006159,-0.00002384,
 -0.00004888,0.00001456,-0.00000030,-0.00002412,0.00000490,0.00000735,0
 .00000295,0.00001690,-0.00001044,-0.00000408,-0.00001516,0.00000242,0.
 00001746,0.00002146,0.00355373,0.00180655,-0.00316103,0.00659124,0.005
 79025,0.00249811,-0.13987911,-0.10939763,-0.08320987,-0.00790322,-0.01
 757810,-0.00951177,0.00001165,0.00243948,-0.00557026,-0.00048074,0.000
 79929,0.00030743,-0.00000370,-0.00001029,0.00000177,0.00000315,-0.0000
 0765,0.00000448,-0.00000092,0.00000310,0.00000026,0.00000231,-0.000002
 56,0.00000044,0.00000147,-0.00000312,-0.00000033,0.00000114,-0.0000024
 6,-0.00000243,0.00000641,-0.00000132,-0.00000936,-0.00000877,-0.000022
 31,-0.00001687,0.00000280,0.00000332,-0.00001473,0.00000102,0.00000180
 ,-0.00000320,-0.00000023,0.00000084,-0.00000046,-0.00109433,-0.0002610
 0,0.00243722,0.14074124,0.00031451,-0.00051377,-0.00001892,-0.00081466
 ,0.00041952,0.00041492,-0.00011793,-0.00002323,-0.00002263,0.00004441,
 0.00009734,-0.00001058,-0.00014104,-0.00012762,-0.00002101,0.00015632,
 -0.00000920,0.00009480,0.00001004,0.00004674,-0.00000079,0.00002633,-0
 .00001953,0.00000989,0.00001619,0.00003203,0.00001213,-0.00003603,0.00
 001468,-0.00001483,0.00000905,-0.00004751,-0.00000929,-0.00003994,0.00
 012774,-0.00000168,-0.00032842,-0.00157990,-0.00082461,0.00025099,-0.0
 0002771,-0.00028300,-0.00000637,-0.00001642,0.00004210,0.00000519,-0.0
 0003169,-0.00001020,-0.00002901,0.00000001,-0.00000546,-0.00003089,-0.
 00000528,-0.00001551,0.00000645,0.00001654,0.00002053,0.00230733,-0.00
 313621,0.00203086,-0.01856333,-0.01598863,-0.01529610,-0.10898779,-0.1
 9067880,-0.08917271,0.00664136,0.00928408,0.00541390,0.00173619,0.0006
 9950,0.00142906,0.00070992,-0.00039617,0.00057529,0.00003468,0.0000068
 3,-0.00000076,-0.00001438,-0.00001446,0.00002320,0.00000620,-0.0000031
 3,-0.00000032,0.00000163,0.00000181,0.00000051,-0.00000210,0.00000181,
 -0.00000010,-0.00001726,0.00001966,0.00001128,-0.00002487,-0.00004279,
 0.00001242,-0.00002541,0.00003549,-0.00000213,0.00000403,0.00000202,-0
 .00000111,-0.00000271,-0.00000036,-0.00000285,0.00000827,0.00001388,0.
 00000066,0.00004766,0.00112147,0.00009226,0.11691830,0.19956553,0.0000
 2597,-0.00000530,-0.00002574,-0.00011965,0.00009051,0.00002278,-0.0000
 0569,-0.00000224,-0.00000174,0.00000241,0.00005336,-0.00001487,-0.0000
 2144,-0.00002059,-0.00005502,0.00004752,0.00001000,-0.00000226,-0.0000
 0329,0.00001790,0.00001242,0.00001101,-0.00000546,0.00000387,0.0000052
 3,0.00001389,0.00000061,-0.00001178,0.00000706,-0.00000639,0.00000007,
 -0.00001284,-0.00000341,-0.00000984,0.00005067,0.00001085,0.00004745,0
 .00032554,-0.00001787,0.00005933,-0.00001393,0.00008535,0.00002198,0.0
 0004500,-0.00002801,-0.00000430,0.00000986,-0.00000010,-0.00000365,0.0
 0000084,0.00000077,0.00000821,0.00000087,0.00000892,0.00000090,-0.0000
 1206,-0.00000838,-0.00326735,0.00110854,0.00491838,0.00231935,0.004427
 27,0.00561446,-0.08276451,-0.08907620,-0.10540532,-0.00949558,-0.01436
 293,-0.00411487,-0.00566635,0.00196295,0.00234814,0.00037315,0.0005713
 0,-0.00053333,0.00000586,0.00000151,0.00000388,-0.00002176,-0.00001004
 ,0.00000224,-0.00000028,-0.00000240,0.00000280,-0.00000104,0.00000147,
 0.00000073,-0.00000162,0.00000165,0.00000060,-0.00000393,0.00000443,0.
 00000470,-0.00001187,-0.00000748,0.00001261,0.00002425,0.00001587,0.00
 000105,0.00000264,-0.00000003,-0.00000090,0.00000175,0.00000166,-0.000
 00147,0.00000008,0.00000220,-0.00000169,0.00231895,-0.00012030,-0.0022
 1963,0.09360423,0.09553269,0.10225682,-0.00005274,0.00006278,0.0000129
 4,0.00007141,0.00003514,-0.00006364,0.00000024,0.00001053,-0.00000726,
 0.00000247,-0.00003479,0.00000417,-0.00001262,0.00001230,0.00004133,-0
 .00000738,-0.00000250,0.00001126,-0.00000179,0.00000251,-0.00001022,0.
 00000562,-0.00000033,0.00000174,-0.00000081,0.00000259,0.00000138,-0.0
 0000205,-0.00000031,0.00000075,-0.00000078,-0.00000105,0.00000060,0.00
 000632,-0.00000628,-0.00000497,-0.00029423,0.00011197,0.00085013,0.000
 01489,-0.00008633,-0.00000424,-0.00002882,-0.00001517,-0.00000209,0.00
 000880,-0.00002093,0.00000335,0.00000675,0.00000172,0.00000491,-0.0000
 0006,0.00000554,-0.00000369,-0.00000343,0.00001272,0.00002336,-0.00102
 216,-0.00048237,-0.00059674,-0.00036713,0.00061991,-0.00614386,0.00007
 022,0.02333459,-0.00251897,-0.05981311,0.05130740,-0.01737743,0.006846
 58,-0.01755039,0.00265306,0.00120351,-0.00228932,-0.00492877,-0.000009
 34,0.00000853,-0.00000134,0.00000535,-0.00000699,-0.00002519,-0.000000
 68,0.00000044,-0.00000182,-0.00000049,0.00000072,-0.00000052,-0.000000
 07,0.00000027,-0.00000038,0.00000242,-0.00000178,-0.00000294,-0.000020
 52,-0.00001726,0.00001465,-0.00001198,-0.00000437,0.00000801,0.0000034
 1,0.00000035,-0.00000246,-0.00000021,-0.00000189,-0.00000045,-0.000002
 76,-0.00000007,-0.00000261,-0.00003781,0.00112036,-0.00015633,-0.00089
 089,-0.00033339,0.00253130,0.05507267,0.00006432,-0.00016922,-0.000017
 43,-0.00020756,0.00020707,0.00014583,-0.00004175,0.00001025,0.00000287
 ,0.00003496,0.00003464,0.00000375,0.00000649,-0.00005115,-0.00005062,0
 .00003439,-0.00000001,0.00000436,0.00000649,0.00000375,0.00001078,-0.0
 0000836,-0.00000022,-0.00000279,0.00000338,-0.00000430,-0.00000027,0.0
 0000007,0.00000120,-0.00000215,0.00000495,-0.00000616,-0.00000053,-0.0
 0002305,0.00003134,0.00000256,0.00017633,-0.00014978,-0.00002206,0.000
 05488,0.00004345,-0.00007644,-0.00001025,-0.00002005,0.00000051,-0.000
 00727,-0.00004883,0.00000006,0.00000126,0.00001653,0.00002730,-0.00001
 652,-0.00001480,-0.00002270,0.00000631,0.00002897,0.00004166,-0.000454
 69,0.00081570,-0.00032655,0.00135823,0.00153410,0.00104290,-0.00102579
 ,-0.00483228,-0.00089704,0.05142403,-0.32325264,0.03857399,0.00672511,
 -0.01586446,0.00529830,-0.00305560,-0.00092290,-0.00259809,0.00000884,
 -0.00000655,0.00000222,-0.00002280,-0.00000601,0.00002504,0.00000186,0
 .00000104,0.00000222,0.00000310,-0.00000217,0.00000142,0.00000037,-0.0
 0000264,0.00000042,-0.00000811,0.00000665,0.00000463,-0.00000221,-0.00
 001075,0.00000192,0.00000099,0.00000603,-0.00000804,0.00001729,0.00000
 109,-0.00001901,-0.00000058,-0.00000098,-0.00000335,0.00000241,0.00000
 902,-0.00000351,-0.00010039,-0.00032128,-0.00006590,0.00009133,0.00079
 275,0.00013897,-0.05532755,0.34198668,0.00004509,-0.00000185,-0.000022
 53,-0.00003956,-0.00015754,0.00001511,0.00000319,-0.00001851,0.0000005
 8,-0.00001658,-0.00002402,-0.00000300,-0.00002140,0.00001301,0.0000213
 4,0.00001298,-0.00000151,0.00000846,-0.00000621,0.00000937,-0.00000772
 ,0.00001253,-0.00000386,0.00000360,0.00000082,0.00001006,0.00000110,-0
 .00000689,0.00000208,-0.00000250,-0.00000189,-0.00000767,-0.00000269,0
 .00000930,-0.00000156,-0.00000168,0.00075948,0.00007294,-0.00065166,-0
 .00008101,0.00007226,0.00001108,0.00000984,0.00002114,-0.00000625,-0.0
 0001592,0.00000316,0.00000322,0.00001485,0.00001151,0.00002068,0.00001
 348,-0.00000691,-0.00000114,0.00000815,-0.00000428,-0.00000221,-0.0005
 1149,-0.00031898,-0.00077952,-0.00618879,0.00056751,0.00224657,-0.0027
 0670,0.01893051,0.00146289,-0.01739366,0.03869687,-0.05152889,0.002906
 46,-0.01469663,0.00557711,-0.00492318,-0.00206259,0.00304456,-0.000002
 94,0.00000430,0.00000044,-0.00001643,0.00000532,-0.00000460,-0.0000010
 3,-0.00000092,-0.00000010,-0.00000155,0.00000158,0.00000013,-0.0000010
 2,0.00000167,0.00000021,-0.00000037,0.,0.00000071,0.00002589,0.0000167
 6,-0.00001542,-0.00000743,-0.00000199,-0.00000474,0.00000322,-0.000000
 77,-0.00000730,0.00000146,0.00000067,0.00000105,-0.00000190,-0.0000014
 2,-0.00000121,-0.00012796,0.00092737,-0.00003936,0.00251463,-0.0002400
 8,-0.00198360,0.02319182,-0.04144613,0.04443004,-0.00008863,0.00020698
 ,0.00003585,0.00027788,-0.00028600,-0.00023425,0.00001892,0.00000823,0
 .00000553,-0.00002974,-0.00002674,0.00001417,-0.00001051,0.00003457,0.
 00003985,-0.00002056,0.00000053,0.00000007,-0.00000293,-0.00000327,-0.
 00000709,0.00000510,0.00000013,0.00000178,-0.00000289,0.00000350,0.000
 00054,-0.00000115,-0.00000198,0.00000236,-0.00000379,0.00000556,0.0000
 0284,0.00001912,-0.00001451,-0.00000260,-0.00025703,0.00009886,0.00000
 279,-0.00010737,-0.00002641,0.00005766,-0.00000212,-0.00001083,0.00001
 111,-0.00000059,0.00000915,-0.00000018,0.00001388,-0.00000644,0.000000
 70,0.00001267,0.00001165,0.00000643,-0.00001037,-0.00001094,-0.0000103
 6,0.00435811,0.00072773,-0.00264471,-0.00002603,-0.00038178,0.00065349
 ,0.00206069,-0.00323461,-0.00402959,-0.00835701,0.00741164,-0.00972479
 ,-0.20466092,0.05823361,-0.13696075,-0.00089633,-0.00061171,-0.0035559
 5,-0.00002054,0.00002288,-0.00000116,-0.00000697,0.00000107,-0.0000446
 7,-0.00000055,-0.00000093,-0.00000209,-0.00000211,0.00000140,-0.000001
 44,-0.00000018,0.00000219,-0.00000090,0.00000843,-0.00000613,-0.000006
 40,0.00000962,0.00002799,-0.00000476,0.00000546,-0.00000089,0.00001067
 ,-0.00000669,-0.00000654,0.00001067,0.00000024,-0.00000214,0.00000088,
 -0.00000489,-0.00000718,-0.00000005,-0.00040642,0.00003935,0.00045018,
 -0.00048618,0.00034929,-0.00050156,-0.00103472,-0.00008936,0.00244828,
 0.21086604,0.00012656,-0.00054139,-0.00014460,-0.00048359,0.00042101,0
 .00065122,-0.00005713,-0.00002395,0.00001434,0.00004348,0.00003340,-0.
 00001583,-0.00003756,-0.00006245,-0.00002497,0.00005309,0.00000044,0.0
 0002906,0.00000077,0.00001883,0.00000027,0.00000375,-0.00000549,0.0000
 0091,0.00000658,0.00000613,0.00000341,-0.00000955,0.00000587,-0.000005
 93,0.00000647,-0.00001879,-0.00000407,-0.00002932,0.00004186,-0.000001
 26,0.00160905,-0.00107702,0.00055010,0.00027934,0.00009519,-0.00013729
 ,0.00005014,-0.00000166,0.00000936,0.00002289,-0.00000804,-0.00003477,
 -0.00005332,0.00000270,-0.00005379,-0.00004580,-0.00001805,-0.00001735
 ,-0.00000284,0.00004834,0.00002073,-0.00032596,-0.00434639,-0.00033795
 ,-0.00031191,-0.00111605,-0.00028665,-0.00244684,-0.00259618,-0.002143
 76,-0.01672571,0.00984067,-0.01366003,0.05812565,-0.07951354,0.0471340
 3,0.02354355,-0.00394976,0.01944217,0.00002523,-0.00000901,-0.00000456
 ,-0.00000095,-0.00000130,0.00001915,0.00000185,0.00000017,0.00000098,0
 .00000235,-0.00000054,0.00000128,0.00000013,-0.00000176,0.00000055,-0.
 00001309,0.00001159,0.00000780,-0.00003438,-0.00005613,0.00002685,-0.0
 0002627,-0.00000898,0.00000562,0.00000854,-0.00000476,0.00004006,-0.00
 001828,-0.00001593,0.00001546,0.00001518,0.00001271,0.00000467,0.00004
 620,0.00010467,0.00005392,-0.00084210,0.00034120,-0.00068297,0.0003687
 4,0.00097113,0.00035920,-0.06255789,0.08027571,-0.00003095,0.00015163,
 0.00002788,0.00014882,-0.00007212,-0.00017604,0.00002213,-0.00002083,-
 0.00000682,-0.00001096,0.00000558,-0.00000842,-0.00000133,0.00001794,0
 .00000222,-0.00001027,-0.00000049,-0.00000567,-0.00000072,-0.00000393,
 -0.00000116,0.00000485,-0.00000085,0.00000268,-0.00000077,0.00000317,0
 .00000005,-0.00000033,-0.00000007,0.00000071,-0.00000362,0.00000322,-0
 .00000037,0.00001268,-0.00001569,0.00000104,-0.00023358,0.00018526,0.0
 0000173,-0.00018217,-0.00003180,0.00004231,-0.00003351,0.00000990,-0.0
 0001768,-0.00001199,0.00005831,0.00003598,0.00002347,-0.00000114,0.000
 00641,0.00003021,-0.00000494,0.00001480,0.00001820,-0.00004068,-0.0000
 3401,-0.00249106,0.00016937,0.00548320,0.00068946,-0.00035455,-0.00024
 910,-0.00403806,-0.00276539,0.00350434,-0.00991920,0.00637616,-0.00456
 189,-0.13711995,0.04710656,-0.14962198,-0.00316746,-0.00059742,0.00072
 069,0.00000051,-0.00000665,0.00000096,0.00001457,0.00000743,0.00000150
 ,-0.00000068,-0.00000123,-0.00000054,-0.00000210,0.00000139,-0.0000009
 3,-0.00000065,0.00000215,0.00000005,0.00000428,-0.00000402,-0.00000171
 ,0.00003342,0.00002111,-0.00002304,0.00000028,-0.00000085,-0.00000504,
 -0.00001229,0.00001502,-0.00003395,0.00000926,0.00001323,-0.00000137,-
 0.00000488,-0.00000828,-0.00000139,0.00042593,0.00005373,-0.00061468,-
 0.00052950,0.00030622,-0.00030349,0.00243918,-0.00001994,-0.00198344,0
 .15151857,-0.05067160,0.14996859,-0.00011641,-0.00007836,0.00008467,-0
 .00045788,0.00081183,-0.00018474,-0.00013321,0.00007804,-0.00002612,0.
 00010405,-0.00001158,0.00003706,-0.00010711,-0.00013176,0.00000154,0.0
 0012765,-0.00000118,0.00007070,0.00000972,0.00003943,-0.00001009,0.000
 01369,-0.00001037,0.00000382,0.00001110,0.00001746,0.00000785,-0.00002
 531,0.00000416,-0.00000853,0.00001062,-0.00003216,-0.00000334,-0.00005
 063,0.00010969,0.00000438,0.00018382,-0.00099192,0.00361900,0.00030658
 ,0.00014605,-0.00049866,-0.00002762,-0.00056494,0.00004832,0.00007792,
 -0.00022442,0.00013569,-0.00018655,-0.00001767,-0.00016622,-0.00007544
 ,-0.00008625,-0.00011233,-0.00003855,0.00032172,0.00039383,-0.00749578
 ,-0.01813682,-0.01014427,-0.00041555,0.00266720,-0.00508665,-0.0004537
 3,0.00076441,0.00035236,0.00335334,0.00181936,-0.00319517,0.00699693,0
 .00586147,0.00323998,-0.13471744,-0.10736231,-0.08352593,-0.00005261,0
 .00004453,0.00001261,-0.00004798,-0.00016382,-0.00006658,0.00000466,-0
 .00000025,0.00000007,0.00000350,-0.00000097,0.00000091,0.00000011,-0.0
 0000203,-0.00000046,-0.00001178,0.00001378,0.00000385,-0.00006475,-0.0
 0005397,0.00003084,-0.00003392,-0.00000917,0.00006352,0.00000563,0.000
 00188,0.00007114,-0.00003942,-0.00002498,0.00003631,0.00000344,0.00004
 766,-0.00004038,-0.00032271,-0.00088908,-0.00067968,-0.00037104,-0.000
 08884,0.00050384,0.00029592,0.00037445,0.00009245,-0.00120896,-0.00031
 704,0.00241022,0.13494570,-0.00014833,0.00017356,0.00006696,0.00042410
 ,-0.00014662,-0.00027667,0.00003434,0.00007192,-0.00001200,-0.00001876
 ,-0.00003815,0.00002509,0.00001277,0.00002320,0.00001169,-0.00002414,0
 .00000098,-0.00001335,0.00000413,-0.00001055,0.00000269,-0.00000342,0.
 00000412,-0.00000124,-0.00000336,-0.00000459,-0.00000143,0.00000483,-0
 .00000558,0.00000431,-0.00000149,0.00001264,0.00000488,0.00001780,-0.0
 0000629,0.00000061,-0.00048016,0.00143803,0.00004246,0.00015555,0.0000
 1938,0.00034749,-0.00011359,-0.00027528,0.00022664,-0.00040172,-0.0002
 5891,0.00031595,0.00011534,0.00002782,0.00020591,-0.00001134,-0.000063
 51,-0.00013160,0.00006154,-0.00004448,-0.00001343,0.00670019,0.0071043
 0,0.00554868,0.00171833,0.00052235,0.00146376,0.00072404,-0.00027197,0
 .00057679,0.00231613,-0.00448875,0.00179000,-0.01778725,-0.01438063,-0
 .01490567,-0.10889490,-0.19416649,-0.09387729,-0.00000763,0.00001162,0
 .00000160,-0.00004250,-0.00003812,-0.00001696,-0.00000030,-0.00000047,
 -0.00000081,-0.00000130,0.00000010,-0.00000111,0.00000084,0.00000057,-
 0.00000044,0.00000928,-0.00000798,-0.00000691,-0.00001956,-0.00001951,
 0.00001112,0.00000636,-0.00002988,-0.00000764,0.00002062,-0.00003419,-
 0.00014957,0.00001341,0.00002152,-0.00001727,0.00000983,-0.00002522,0.
 00000796,0.00035466,0.00044895,0.00031596,-0.00007505,0.00002178,-0.00
 006125,-0.00083605,-0.00081422,-0.00073007,0.00008997,0.00114554,0.000
 11509,0.11607678,0.20408299,0.00020136,-0.00010862,-0.00015915,-0.0003
 8649,0.00001332,0.00046101,-0.00004921,-0.00010633,0.00002050,0.000023
 52,0.00003525,-0.00003142,-0.00005851,-0.00002125,0.00001035,0.0000430
 4,0.00000151,0.00003329,-0.00001251,0.00002654,-0.00001086,0.00001996,
 -0.00001167,0.00000562,0.00000542,0.00002029,0.00000403,-0.00001566,0.
 00000921,-0.00000944,-0.00000148,-0.00002512,-0.00000938,-0.00000258,0
 .00000681,-0.00000465,0.00349884,-0.00040287,-0.00169064,-0.00073486,0
 .00032637,-0.00046197,-0.00023919,0.00022324,-0.00007390,-0.00005398,-
 0.00022697,-0.00002093,0.00018482,0.00029580,0.00041289,-0.00002276,-0
 .00025128,-0.00024034,0.00018927,0.00014780,0.00018764,-0.00956982,-0.
 01515035,-0.00394607,-0.00520575,0.00220298,0.00174954,0.00043952,0.00
 063896,-0.00054398,-0.00316223,0.00117672,0.00471421,0.00234898,0.0044
 5723,0.00554322,-0.08255989,-0.09179846,-0.10677308,0.00001595,0.00001
 130,-0.00000379,0.00003678,0.00007680,-0.00002144,-0.00000011,-0.00000
 117,0.00000044,-0.00000096,0.00000197,0.00000122,-0.00000326,0.0000028
 0,0.00000089,-0.00001147,0.00000701,0.00001109,0.00013338,0.00012114,-
 0.00009028,-0.00005981,-0.00001811,-0.00009424,0.00013542,-0.00004621,
 -0.00023474,-0.00000131,-0.00000523,-0.00000623,-0.00002285,-0.0000185
 8,-0.00000362,-0.00063265,-0.00076893,-0.00011738,0.00048604,-0.000068
 05,-0.00058388,0.00006199,0.00025084,0.00020065,0.00245885,-0.00016376
 ,-0.00216241,0.09252421,0.09913905,0.10393722\\0.00000224,-0.00000681,
 0.00000280,-0.00000176,0.00000679,0.00000192,-0.00000536,-0.00000532,0
 .00000440,0.00000244,0.00001165,0.00000115,-0.00000996,-0.00000996,-0.
 00001207,0.00000882,0.00000319,0.00000047,-0.00000425,0.00000040,-0.00
 000012,0.00000103,-0.00000257,-0.00000048,0.00000044,0.00000404,0.0000
 0088,-0.00000239,0.00000096,0.00000186,0.00000224,-0.00000097,0.000000
 89,0.00000309,-0.00000351,0.00000103,0.00000159,-0.00000158,-0.0000021
 9,0.00000157,0.00000077,0.00000065,-0.00000199,0.00000099,0.00000130,-
 0.00000184,-0.00000326,0.00000026,0.00000716,0.00000174,0.00000626,-0.
 00000192,-0.00000375,0.00000395,-0.00000103,0.00000559,0.00000954,-0.0
 0000027,0.00000128,-0.00000177,-0.00000028,0.00000088,-0.00000425,-0.0
 0000071,-0.00000027,-0.00000627,-0.00000022,-0.00000182,-0.00000565,0.
 00000108,-0.00000117,-0.00000279,0.00000043,-0.00000184,-0.00000093,-0
 .00000007,-0.00000448,-0.00000159,-0.00000133,0.00000135,-0.00000218,0
 .00000260,0.00000359,-0.00000134,0.00000264,-0.00000070,0.00000230,0.0
 0000058,-0.00000296,0.00000454,-0.00000302,-0.00000243,0.00000237,0.00
 000194,0.00000011,0.00000316,0.00000066,0.00000555,0.00000239,-0.00000
 130,0.00000469,0.00000293,-0.00000384,0.00000057,0.00000409,0.00000202
 ,-0.00000253,0.00000503,0.00000257,0.00000158,-0.00000138,0.00000215,0
 .00000360,-0.00000547,-0.00000075,0.00000217,-0.00000767,-0.00000287,-
 0.00000182,-0.00000596,-0.00000213,-0.00000372,-0.00000205\\\@


 GARBAGE IN, GARBAGE OUT
 Job cpu time:  0 days  8 hours 41 minutes  0.5 seconds.
 File lengths (MBytes):  RWF=    910 Int=      0 D2E=      0 Chk=     15 Scr=      1
 Normal termination of Gaussian 09 at Wed Aug 31 14:08:15 2022.
