 Entering Gaussian System, Link 0=g09
 Input=Mol19.gjf
 Output=Mol19.log
 Initial command:
 /opt/gaussian/l1.exe /home/scr/lqcapf-6/Gau-178703.inp -scrdir=/home/scr/lqcapf-6/
 Entering Link 1 = /opt/gaussian/l1.exe PID=    178705.
  
 Copyright (c) 1988,1990,1992,1993,1995,1998,2003,2009,2011,
            Gaussian, Inc.  All Rights Reserved.
  
 This is part of the Gaussian(R) 09 program.  It is based on
 the Gaussian(R) 03 system (copyright 2003, Gaussian, Inc.),
 the Gaussian(R) 98 system (copyright 1998, Gaussian, Inc.),
 the Gaussian(R) 94 system (copyright 1995, Gaussian, Inc.),
 the Gaussian 92(TM) system (copyright 1992, Gaussian, Inc.),
 the Gaussian 90(TM) system (copyright 1990, Gaussian, Inc.),
 the Gaussian 88(TM) system (copyright 1988, Gaussian, Inc.),
 the Gaussian 86(TM) system (copyright 1986, Carnegie Mellon
 University), and the Gaussian 82(TM) system (copyright 1983,
 Carnegie Mellon University). Gaussian is a federally registered
 trademark of Gaussian, Inc.
  
 This software contains proprietary and confidential information,
 including trade secrets, belonging to Gaussian, Inc.
  
 This software is provided under written license and may be
 used, copied, transmitted, or stored only in accord with that
 written license.
  
 The following legend is applicable only to US Government
 contracts under FAR:
  
                    RESTRICTED RIGHTS LEGEND
  
 Use, reproduction and disclosure by the US Government is
 subject to restrictions as set forth in subparagraphs (a)
 and (c) of the Commercial Computer Software - Restricted
 Rights clause in FAR 52.227-19.
  
 Gaussian, Inc.
 340 Quinnipiac St., Bldg. 40, Wallingford CT 06492
  
  
 ---------------------------------------------------------------
 Warning -- This program may not be used in any manner that
 competes with the business of Gaussian, Inc. or will provide
 assistance to any competitor of Gaussian, Inc.  The licensee
 of this program is prohibited from giving any competitor of
 Gaussian, Inc. access to this program.  By using this program,
 the user acknowledges that Gaussian, Inc. is engaged in the
 business of creating and licensing software in the field of
 computational chemistry and represents and warrants to the
 licensee that it is not a competitor of Gaussian, Inc. and that
 it will not use this program in any manner prohibited above.
 ---------------------------------------------------------------
  

 Cite this work as:
 Gaussian 09, Revision C.01,
 M. J. Frisch, G. W. Trucks, H. B. Schlegel, G. E. Scuseria, 
 M. A. Robb, J. R. Cheeseman, G. Scalmani, V. Barone, B. Mennucci, 
 G. A. Petersson, H. Nakatsuji, M. Caricato, X. Li, H. P. Hratchian, 
 A. F. Izmaylov, J. Bloino, G. Zheng, J. L. Sonnenberg, M. Hada, 
 M. Ehara, K. Toyota, R. Fukuda, J. Hasegawa, M. Ishida, T. Nakajima, 
 Y. Honda, O. Kitao, H. Nakai, T. Vreven, J. A. Montgomery, Jr., 
 J. E. Peralta, F. Ogliaro, M. Bearpark, J. J. Heyd, E. Brothers, 
 K. N. Kudin, V. N. Staroverov, T. Keith, R. Kobayashi, J. Normand, 
 K. Raghavachari, A. Rendell, J. C. Burant, S. S. Iyengar, J. Tomasi, 
 M. Cossi, N. Rega, J. M. Millam, M. Klene, J. E. Knox, J. B. Cross, 
 V. Bakken, C. Adamo, J. Jaramillo, R. Gomperts, R. E. Stratmann, 
 O. Yazyev, A. J. Austin, R. Cammi, C. Pomelli, J. W. Ochterski, 
 R. L. Martin, K. Morokuma, V. G. Zakrzewski, G. A. Voth, 
 P. Salvador, J. J. Dannenberg, S. Dapprich, A. D. Daniels, 
 O. Farkas, J. B. Foresman, J. V. Ortiz, J. Cioslowski, 
 and D. J. Fox, Gaussian, Inc., Wallingford CT, 2010.
 
 ******************************************
 Gaussian 09:  EM64L-G09RevC.01 23-Sep-2011
                 3-Sep-2022 
 ******************************************
 %nprocshared=8
 Will use up to    8 processors via shared memory.
 %mem=1600MB
 -------------------------
 #p opt freq b3lyp/cc-pvdz
 -------------------------
 1/14=-1,18=20,19=15,26=3,38=1/1,3;
 2/9=110,12=2,17=6,18=5,40=1/2;
 3/5=16,11=2,16=1,25=1,30=1,71=1,74=-5/1,2,3;
 4//1;
 5/5=2,38=5/2;
 6/7=2,8=2,9=2,10=2,28=1/1;
 7//1,2,3,16;
 1/14=-1,18=20,19=15/3(2);
 2/9=110/2;
 99//99;
 2/9=110/2;
 3/5=16,11=2,16=1,25=1,30=1,71=1,74=-5/1,2,3;
 4/5=5,16=3/1;
 5/5=2,38=5/2;
 7//1,2,3,16;
 1/14=-1,18=20,19=15/3(-5);
 2/9=110/2;
 6/7=2,8=2,9=2,10=2,19=2,28=1/1;
 99/9=1/99;
 Leave Link    1 at Sat Sep  3 12:40:48 2022, MaxMem=  209715200 cpu:       0.2
 (Enter /opt/gaussian/l101.exe)
 ---------
 Mol19.log
 ---------
 Charge =  0 Multiplicity = 1
 Symbolic Z-Matrix:
 O                    -0.78007  -1.4111    0.051 
 C                    -0.90866  -0.35999   0.6592 
 C                    -2.27836   0.06811   1.17343 
 N                    -3.27306  -0.938     0.9625 
 N                    -3.65083  -1.73484   2.00264 
 N                    -4.50962  -2.57652   1.60112 
 C                    -4.73547  -2.37639   0.24868 
 C                    -5.58596  -3.0371   -0.63709 
 C                    -5.59729  -2.60314  -1.93972 
 C                    -4.77435  -1.53318  -2.35783 
 C                    -3.93138  -0.87897  -1.49194 
 C                    -3.92993  -1.32384  -0.16735 
 N                     0.14399   0.4827    0.91409 
 C                    -0.03692   1.79615   1.53624 
 C                    -0.55483   2.87778   0.61637 
 C                    -0.93529   4.17968   1.12912 
 C                    -1.36432   5.03198   0.18668 
 S                    -1.33771   4.29004  -1.43871 
 C                    -0.71039   2.77813  -0.71548 
 C                     1.48365   0.07784   0.58471 
 C                     2.32467   0.93801  -0.1068 
 C                     3.63294   0.57062  -0.38057 
 C                     4.13523  -0.66201   0.02719 
 C                     3.2764   -1.51771   0.7185 
 C                     1.97135  -1.1564    0.99723 
 C                     5.52176  -1.05558  -0.25804 
 C                     6.63563  -0.25754  -0.31875 
 N                     7.68175  -1.06119  -0.61093 
 N                     7.3083   -2.35113  -0.74633 
 C                     6.01345  -2.36237  -0.53496 
 H                    -2.23792   0.23581   2.23913 
 H                    -2.58347   0.99095   0.69946 
 H                    -6.1985   -3.84875  -0.29999 
 H                    -6.23348  -3.08027  -2.65866 
 H                    -4.80712  -1.22924  -3.38612 
 H                    -3.29905  -0.08073  -1.82425 
 H                    -0.69561   1.71485   2.3927 
 H                     0.92479   2.09265   1.93086 
 H                    -0.87909   4.4376    2.16798 
 H                    -1.69858   6.03747   0.3077 
 H                    -0.49724   1.94133  -1.34208 
 H                     1.96331   1.88806  -0.44647 
 H                     4.25536   1.24075  -0.94158 
 H                     3.63643  -2.46818   1.06085 
 H                     1.33162  -1.83556   1.5205 
 H                     6.75133   0.78998  -0.15968 
 H                     5.46333  -3.27264  -0.60015 
 H                     8.63253  -0.81765  -0.72336 
 
 NAtoms=     48 NQM=        0 NQMF=       0 NMMI=     48 NMMIF=      0
                NMic=       0 NMicF=      0.
                    Isotopes and Nuclear Properties:
 (Nuclear quadrupole moments (NQMom) in fm**2, nuclear magnetic moments (NMagM)
  in nuclear magnetons)

  Atom         1           2           3           4           5           6           7           8           9          10
 IAtWgt=          16          12          12          14          14          14          12          12          12          12
 AtmWgt=  15.9949146  12.0000000  12.0000000  14.0030740  14.0030740  14.0030740  12.0000000  12.0000000  12.0000000  12.0000000
 NucSpn=           0           0           0           2           2           2           0           0           0           0
 AtZEff=   0.0000000   0.0000000   0.0000000   0.0000000   0.0000000   0.0000000   0.0000000   0.0000000   0.0000000   0.0000000
 NQMom=    0.0000000   0.0000000   0.0000000   2.0440000   2.0440000   2.0440000   0.0000000   0.0000000   0.0000000   0.0000000
 NMagM=    0.0000000   0.0000000   0.0000000   0.4037610   0.4037610   0.4037610   0.0000000   0.0000000   0.0000000   0.0000000

  Atom        11          12          13          14          15          16          17          18          19          20
 IAtWgt=          12          12          14          12          12          12          12          32          12          12
 AtmWgt=  12.0000000  12.0000000  14.0030740  12.0000000  12.0000000  12.0000000  12.0000000  31.9720718  12.0000000  12.0000000
 NucSpn=           0           0           2           0           0           0           0           0           0           0
 AtZEff=   0.0000000   0.0000000   0.0000000   0.0000000   0.0000000   0.0000000   0.0000000   0.0000000   0.0000000   0.0000000
 NQMom=    0.0000000   0.0000000   2.0440000   0.0000000   0.0000000   0.0000000   0.0000000   0.0000000   0.0000000   0.0000000
 NMagM=    0.0000000   0.0000000   0.4037610   0.0000000   0.0000000   0.0000000   0.0000000   0.0000000   0.0000000   0.0000000

  Atom        21          22          23          24          25          26          27          28          29          30
 IAtWgt=          12          12          12          12          12          12          12          14          14          12
 AtmWgt=  12.0000000  12.0000000  12.0000000  12.0000000  12.0000000  12.0000000  12.0000000  14.0030740  14.0030740  12.0000000
 NucSpn=           0           0           0           0           0           0           0           2           2           0
 AtZEff=   0.0000000   0.0000000   0.0000000   0.0000000   0.0000000   0.0000000   0.0000000   0.0000000   0.0000000   0.0000000
 NQMom=    0.0000000   0.0000000   0.0000000   0.0000000   0.0000000   0.0000000   0.0000000   2.0440000   2.0440000   0.0000000
 NMagM=    0.0000000   0.0000000   0.0000000   0.0000000   0.0000000   0.0000000   0.0000000   0.4037610   0.4037610   0.0000000

  Atom        31          32          33          34          35          36          37          38          39          40
 IAtWgt=           1           1           1           1           1           1           1           1           1           1
 AtmWgt=   1.0078250   1.0078250   1.0078250   1.0078250   1.0078250   1.0078250   1.0078250   1.0078250   1.0078250   1.0078250
 NucSpn=           1           1           1           1           1           1           1           1           1           1
 AtZEff=   0.0000000   0.0000000   0.0000000   0.0000000   0.0000000   0.0000000   0.0000000   0.0000000   0.0000000   0.0000000
 NQMom=    0.0000000   0.0000000   0.0000000   0.0000000   0.0000000   0.0000000   0.0000000   0.0000000   0.0000000   0.0000000
 NMagM=    2.7928460   2.7928460   2.7928460   2.7928460   2.7928460   2.7928460   2.7928460   2.7928460   2.7928460   2.7928460

  Atom        41          42          43          44          45          46          47          48
 IAtWgt=           1           1           1           1           1           1           1           1
 AtmWgt=   1.0078250   1.0078250   1.0078250   1.0078250   1.0078250   1.0078250   1.0078250   1.0078250
 NucSpn=           1           1           1           1           1           1           1           1
 AtZEff=   0.0000000   0.0000000   0.0000000   0.0000000   0.0000000   0.0000000   0.0000000   0.0000000
 NQMom=    0.0000000   0.0000000   0.0000000   0.0000000   0.0000000   0.0000000   0.0000000   0.0000000
 NMagM=    2.7928460   2.7928460   2.7928460   2.7928460   2.7928460   2.7928460   2.7928460   2.7928460
 Leave Link  101 at Sat Sep  3 12:40:48 2022, MaxMem=  209715200 cpu:       0.9
 (Enter /opt/gaussian/l103.exe)

 GradGradGradGradGradGradGradGradGradGradGradGradGradGradGradGradGradGrad
 Berny optimization.
 Initialization pass.
                           ----------------------------
                           !    Initial Parameters    !
                           ! (Angstroms and Degrees)  !
 --------------------------                            --------------------------
 ! Name  Definition              Value          Derivative Info.                !
 --------------------------------------------------------------------------------
 ! R1    R(1,2)                  1.2212         estimate D2E/DX2                !
 ! R2    R(2,3)                  1.5244         estimate D2E/DX2                !
 ! R3    R(2,13)                 1.3723         estimate D2E/DX2                !
 ! R4    R(3,4)                  1.4304         estimate D2E/DX2                !
 ! R5    R(3,31)                 1.0796         estimate D2E/DX2                !
 ! R6    R(3,32)                 1.0814         estimate D2E/DX2                !
 ! R7    R(4,5)                  1.3637         estimate D2E/DX2                !
 ! R8    R(4,12)                 1.3627         estimate D2E/DX2                !
 ! R9    R(5,6)                  1.2677         estimate D2E/DX2                !
 ! R10   R(6,7)                  1.3857         estimate D2E/DX2                !
 ! R11   R(7,8)                  1.3944         estimate D2E/DX2                !
 ! R12   R(7,12)                 1.3892         estimate D2E/DX2                !
 ! R13   R(8,9)                  1.3731         estimate D2E/DX2                !
 ! R14   R(8,33)                 1.0713         estimate D2E/DX2                !
 ! R15   R(9,10)                 1.4131         estimate D2E/DX2                !
 ! R16   R(9,34)                 1.072          estimate D2E/DX2                !
 ! R17   R(10,11)                1.3742         estimate D2E/DX2                !
 ! R18   R(10,35)                1.0728         estimate D2E/DX2                !
 ! R19   R(11,12)                1.3973         estimate D2E/DX2                !
 ! R20   R(11,36)                1.0712         estimate D2E/DX2                !
 ! R21   R(13,14)                1.4646         estimate D2E/DX2                !
 ! R22   R(13,20)                1.4377         estimate D2E/DX2                !
 ! R23   R(14,15)                1.5114         estimate D2E/DX2                !
 ! R24   R(14,37)                1.0835         estimate D2E/DX2                !
 ! R25   R(14,38)                1.081          estimate D2E/DX2                !
 ! R26   R(15,16)                1.45           estimate D2E/DX2                !
 ! R27   R(15,19)                1.3446         estimate D2E/DX2                !
 ! R28   R(16,17)                1.3411         estimate D2E/DX2                !
 ! R29   R(16,39)                1.0719         estimate D2E/DX2                !
 ! R30   R(17,18)                1.7869         estimate D2E/DX2                !
 ! R31   R(17,40)                1.0665         estimate D2E/DX2                !
 ! R32   R(18,19)                1.7895         estimate D2E/DX2                !
 ! R33   R(19,41)                1.0669         estimate D2E/DX2                !
 ! R34   R(20,21)                1.3876         estimate D2E/DX2                !
 ! R35   R(20,25)                1.3897         estimate D2E/DX2                !
 ! R36   R(21,22)                1.3862         estimate D2E/DX2                !
 ! R37   R(21,42)                1.0717         estimate D2E/DX2                !
 ! R38   R(22,23)                1.3921         estimate D2E/DX2                !
 ! R39   R(22,43)                1.0729         estimate D2E/DX2                !
 ! R40   R(23,24)                1.3956         estimate D2E/DX2                !
 ! R41   R(23,26)                1.4693         estimate D2E/DX2                !
 ! R42   R(24,25)                1.3825         estimate D2E/DX2                !
 ! R43   R(24,44)                1.0725         estimate D2E/DX2                !
 ! R44   R(25,45)                1.0697         estimate D2E/DX2                !
 ! R45   R(26,27)                1.3716         estimate D2E/DX2                !
 ! R46   R(26,30)                1.4234         estimate D2E/DX2                !
 ! R47   R(27,28)                1.3511         estimate D2E/DX2                !
 ! R48   R(27,46)                1.0658         estimate D2E/DX2                !
 ! R49   R(28,29)                1.3497         estimate D2E/DX2                !
 ! R50   R(28,48)                0.9879         estimate D2E/DX2                !
 ! R51   R(29,30)                1.312          estimate D2E/DX2                !
 ! R52   R(30,47)                1.0656         estimate D2E/DX2                !
 ! A1    A(1,2,3)              120.2878         estimate D2E/DX2                !
 ! A2    A(1,2,13)             122.7035         estimate D2E/DX2                !
 ! A3    A(3,2,13)             117.0087         estimate D2E/DX2                !
 ! A4    A(2,3,4)              112.1816         estimate D2E/DX2                !
 ! A5    A(2,3,31)             110.0577         estimate D2E/DX2                !
 ! A6    A(2,3,32)             110.2016         estimate D2E/DX2                !
 ! A7    A(4,3,31)             106.3121         estimate D2E/DX2                !
 ! A8    A(4,3,32)             109.8407         estimate D2E/DX2                !
 ! A9    A(31,3,32)            108.0999         estimate D2E/DX2                !
 ! A10   A(3,4,5)              119.417          estimate D2E/DX2                !
 ! A11   A(3,4,12)             131.0422         estimate D2E/DX2                !
 ! A12   A(5,4,12)             109.4775         estimate D2E/DX2                !
 ! A13   A(4,5,6)              109.5141         estimate D2E/DX2                !
 ! A14   A(5,6,7)              108.8834         estimate D2E/DX2                !
 ! A15   A(6,7,8)              130.6131         estimate D2E/DX2                !
 ! A16   A(6,7,12)             107.891          estimate D2E/DX2                !
 ! A17   A(8,7,12)             121.4957         estimate D2E/DX2                !
 ! A18   A(7,8,9)              117.2526         estimate D2E/DX2                !
 ! A19   A(7,8,33)             120.5205         estimate D2E/DX2                !
 ! A20   A(9,8,33)             122.2269         estimate D2E/DX2                !
 ! A21   A(8,9,10)             121.0111         estimate D2E/DX2                !
 ! A22   A(8,9,34)             120.0305         estimate D2E/DX2                !
 ! A23   A(10,9,34)            118.9577         estimate D2E/DX2                !
 ! A24   A(9,10,11)            122.0916         estimate D2E/DX2                !
 ! A25   A(9,10,35)            118.7081         estimate D2E/DX2                !
 ! A26   A(11,10,35)           119.1991         estimate D2E/DX2                !
 ! A27   A(10,11,12)           116.5124         estimate D2E/DX2                !
 ! A28   A(10,11,36)           121.4263         estimate D2E/DX2                !
 ! A29   A(12,11,36)           122.0541         estimate D2E/DX2                !
 ! A30   A(4,12,7)             104.2258         estimate D2E/DX2                !
 ! A31   A(4,12,11)            134.1342         estimate D2E/DX2                !
 ! A32   A(7,12,11)            121.6359         estimate D2E/DX2                !
 ! A33   A(2,13,14)            122.3349         estimate D2E/DX2                !
 ! A34   A(2,13,20)            119.9521         estimate D2E/DX2                !
 ! A35   A(14,13,20)           117.7075         estimate D2E/DX2                !
 ! A36   A(13,14,15)           115.1882         estimate D2E/DX2                !
 ! A37   A(13,14,37)           110.0954         estimate D2E/DX2                !
 ! A38   A(13,14,38)           106.9279         estimate D2E/DX2                !
 ! A39   A(15,14,37)           109.0544         estimate D2E/DX2                !
 ! A40   A(15,14,38)           109.3142         estimate D2E/DX2                !
 ! A41   A(37,14,38)           105.8349         estimate D2E/DX2                !
 ! A42   A(14,15,16)           121.1468         estimate D2E/DX2                !
 ! A43   A(14,15,19)           126.1185         estimate D2E/DX2                !
 ! A44   A(16,15,19)           112.7333         estimate D2E/DX2                !
 ! A45   A(15,16,17)           113.9554         estimate D2E/DX2                !
 ! A46   A(15,16,39)           123.0251         estimate D2E/DX2                !
 ! A47   A(17,16,39)           123.0195         estimate D2E/DX2                !
 ! A48   A(16,17,18)           111.7503         estimate D2E/DX2                !
 ! A49   A(16,17,40)           128.2927         estimate D2E/DX2                !
 ! A50   A(18,17,40)           119.9567         estimate D2E/DX2                !
 ! A51   A(17,18,19)            89.3354         estimate D2E/DX2                !
 ! A52   A(15,19,18)           112.2254         estimate D2E/DX2                !
 ! A53   A(15,19,41)           128.079          estimate D2E/DX2                !
 ! A54   A(18,19,41)           119.6908         estimate D2E/DX2                !
 ! A55   A(13,20,21)           120.2893         estimate D2E/DX2                !
 ! A56   A(13,20,25)           120.6022         estimate D2E/DX2                !
 ! A57   A(21,20,25)           119.063          estimate D2E/DX2                !
 ! A58   A(20,21,22)           120.4087         estimate D2E/DX2                !
 ! A59   A(20,21,42)           120.2065         estimate D2E/DX2                !
 ! A60   A(22,21,42)           119.3791         estimate D2E/DX2                !
 ! A61   A(21,22,23)           121.1555         estimate D2E/DX2                !
 ! A62   A(21,22,43)           119.0276         estimate D2E/DX2                !
 ! A63   A(23,22,43)           119.793          estimate D2E/DX2                !
 ! A64   A(22,23,24)           117.772          estimate D2E/DX2                !
 ! A65   A(22,23,26)           121.3873         estimate D2E/DX2                !
 ! A66   A(24,23,26)           120.8407         estimate D2E/DX2                !
 ! A67   A(23,24,25)           121.3673         estimate D2E/DX2                !
 ! A68   A(23,24,44)           119.6646         estimate D2E/DX2                !
 ! A69   A(25,24,44)           118.9559         estimate D2E/DX2                !
 ! A70   A(20,25,24)           120.2329         estimate D2E/DX2                !
 ! A71   A(20,25,45)           119.946          estimate D2E/DX2                !
 ! A72   A(24,25,45)           119.8157         estimate D2E/DX2                !
 ! A73   A(23,26,27)           128.2513         estimate D2E/DX2                !
 ! A74   A(23,26,30)           127.5653         estimate D2E/DX2                !
 ! A75   A(27,26,30)           104.1834         estimate D2E/DX2                !
 ! A76   A(26,27,28)           106.9938         estimate D2E/DX2                !
 ! A77   A(26,27,46)           130.7979         estimate D2E/DX2                !
 ! A78   A(28,27,46)           122.195          estimate D2E/DX2                !
 ! A79   A(27,28,29)           112.081          estimate D2E/DX2                !
 ! A80   A(27,28,48)           128.5458         estimate D2E/DX2                !
 ! A81   A(29,28,48)           119.3722         estimate D2E/DX2                !
 ! A82   A(28,29,30)           105.3722         estimate D2E/DX2                !
 ! A83   A(26,30,29)           111.3693         estimate D2E/DX2                !
 ! A84   A(26,30,47)           128.1569         estimate D2E/DX2                !
 ! A85   A(29,30,47)           120.4616         estimate D2E/DX2                !
 ! D1    D(1,2,3,4)              5.4139         estimate D2E/DX2                !
 ! D2    D(1,2,3,31)           123.5628         estimate D2E/DX2                !
 ! D3    D(1,2,3,32)          -117.3094         estimate D2E/DX2                !
 ! D4    D(13,2,3,4)          -174.5411         estimate D2E/DX2                !
 ! D5    D(13,2,3,31)          -56.3922         estimate D2E/DX2                !
 ! D6    D(13,2,3,32)           62.7356         estimate D2E/DX2                !
 ! D7    D(1,2,13,14)          174.33           estimate D2E/DX2                !
 ! D8    D(1,2,13,20)           -6.5383         estimate D2E/DX2                !
 ! D9    D(3,2,13,14)           -5.7162         estimate D2E/DX2                !
 ! D10   D(3,2,13,20)          173.4155         estimate D2E/DX2                !
 ! D11   D(2,3,4,5)            101.2009         estimate D2E/DX2                !
 ! D12   D(2,3,4,12)           -75.5744         estimate D2E/DX2                !
 ! D13   D(31,3,4,5)           -19.1457         estimate D2E/DX2                !
 ! D14   D(31,3,4,12)          164.079          estimate D2E/DX2                !
 ! D15   D(32,3,4,5)          -135.872          estimate D2E/DX2                !
 ! D16   D(32,3,4,12)           47.3528         estimate D2E/DX2                !
 ! D17   D(3,4,5,6)           -178.2932         estimate D2E/DX2                !
 ! D18   D(12,4,5,6)            -0.8726         estimate D2E/DX2                !
 ! D19   D(3,4,12,7)           177.9254         estimate D2E/DX2                !
 ! D20   D(3,4,12,11)           -2.8316         estimate D2E/DX2                !
 ! D21   D(5,4,12,7)             0.9046         estimate D2E/DX2                !
 ! D22   D(5,4,12,11)         -179.8524         estimate D2E/DX2                !
 ! D23   D(4,5,6,7)              0.4389         estimate D2E/DX2                !
 ! D24   D(5,6,7,8)           -179.727          estimate D2E/DX2                !
 ! D25   D(5,6,7,12)             0.1365         estimate D2E/DX2                !
 ! D26   D(6,7,8,9)            179.732          estimate D2E/DX2                !
 ! D27   D(6,7,8,33)            -0.3219         estimate D2E/DX2                !
 ! D28   D(12,7,8,9)            -0.1157         estimate D2E/DX2                !
 ! D29   D(12,7,8,33)          179.8304         estimate D2E/DX2                !
 ! D30   D(6,7,12,4)            -0.6385         estimate D2E/DX2                !
 ! D31   D(6,7,12,11)          179.9996         estimate D2E/DX2                !
 ! D32   D(8,7,12,4)           179.2399         estimate D2E/DX2                !
 ! D33   D(8,7,12,11)           -0.122          estimate D2E/DX2                !
 ! D34   D(7,8,9,10)             0.2058         estimate D2E/DX2                !
 ! D35   D(7,8,9,34)           179.9111         estimate D2E/DX2                !
 ! D36   D(33,8,9,10)         -179.7393         estimate D2E/DX2                !
 ! D37   D(33,8,9,34)           -0.034          estimate D2E/DX2                !
 ! D38   D(8,9,10,11)           -0.0645         estimate D2E/DX2                !
 ! D39   D(8,9,10,35)          179.5348         estimate D2E/DX2                !
 ! D40   D(34,9,10,11)        -179.773          estimate D2E/DX2                !
 ! D41   D(34,9,10,35)          -0.1737         estimate D2E/DX2                !
 ! D42   D(9,10,11,12)          -0.1682         estimate D2E/DX2                !
 ! D43   D(9,10,11,36)         178.8773         estimate D2E/DX2                !
 ! D44   D(35,10,11,12)       -179.7656         estimate D2E/DX2                !
 ! D45   D(35,10,11,36)         -0.7201         estimate D2E/DX2                !
 ! D46   D(10,11,12,4)        -178.8792         estimate D2E/DX2                !
 ! D47   D(10,11,12,7)           0.2589         estimate D2E/DX2                !
 ! D48   D(36,11,12,4)           2.0818         estimate D2E/DX2                !
 ! D49   D(36,11,12,7)        -178.7801         estimate D2E/DX2                !
 ! D50   D(2,13,14,15)         -77.6087         estimate D2E/DX2                !
 ! D51   D(2,13,14,37)          46.1863         estimate D2E/DX2                !
 ! D52   D(2,13,14,38)         160.7097         estimate D2E/DX2                !
 ! D53   D(20,13,14,15)        103.241          estimate D2E/DX2                !
 ! D54   D(20,13,14,37)       -132.964          estimate D2E/DX2                !
 ! D55   D(20,13,14,38)        -18.4406         estimate D2E/DX2                !
 ! D56   D(2,13,20,21)         132.0613         estimate D2E/DX2                !
 ! D57   D(2,13,20,25)         -50.4157         estimate D2E/DX2                !
 ! D58   D(14,13,20,21)        -48.7673         estimate D2E/DX2                !
 ! D59   D(14,13,20,25)        128.7557         estimate D2E/DX2                !
 ! D60   D(13,14,15,16)        172.4175         estimate D2E/DX2                !
 ! D61   D(13,14,15,19)         -8.0335         estimate D2E/DX2                !
 ! D62   D(37,14,15,16)         48.0751         estimate D2E/DX2                !
 ! D63   D(37,14,15,19)       -132.3759         estimate D2E/DX2                !
 ! D64   D(38,14,15,16)        -67.1991         estimate D2E/DX2                !
 ! D65   D(38,14,15,19)        112.3499         estimate D2E/DX2                !
 ! D66   D(14,15,16,17)        179.4889         estimate D2E/DX2                !
 ! D67   D(14,15,16,39)         -0.5347         estimate D2E/DX2                !
 ! D68   D(19,15,16,17)         -0.1161         estimate D2E/DX2                !
 ! D69   D(19,15,16,39)        179.8603         estimate D2E/DX2                !
 ! D70   D(14,15,19,18)       -179.487          estimate D2E/DX2                !
 ! D71   D(14,15,19,41)         -0.2868         estimate D2E/DX2                !
 ! D72   D(16,15,19,18)          0.0945         estimate D2E/DX2                !
 ! D73   D(16,15,19,41)        179.2947         estimate D2E/DX2                !
 ! D74   D(15,16,17,18)          0.0808         estimate D2E/DX2                !
 ! D75   D(15,16,17,40)        179.8909         estimate D2E/DX2                !
 ! D76   D(39,16,17,18)       -179.8956         estimate D2E/DX2                !
 ! D77   D(39,16,17,40)         -0.0855         estimate D2E/DX2                !
 ! D78   D(16,17,18,19)         -0.0236         estimate D2E/DX2                !
 ! D79   D(40,17,18,19)       -179.8515         estimate D2E/DX2                !
 ! D80   D(17,18,19,15)         -0.0428         estimate D2E/DX2                !
 ! D81   D(17,18,19,41)       -179.3181         estimate D2E/DX2                !
 ! D82   D(13,20,21,22)        177.5046         estimate D2E/DX2                !
 ! D83   D(13,20,21,42)         -3.3662         estimate D2E/DX2                !
 ! D84   D(25,20,21,22)         -0.0563         estimate D2E/DX2                !
 ! D85   D(25,20,21,42)        179.0729         estimate D2E/DX2                !
 ! D86   D(13,20,25,24)       -177.6297         estimate D2E/DX2                !
 ! D87   D(13,20,25,45)          3.2169         estimate D2E/DX2                !
 ! D88   D(21,20,25,24)         -0.0767         estimate D2E/DX2                !
 ! D89   D(21,20,25,45)       -179.23           estimate D2E/DX2                !
 ! D90   D(20,21,22,23)          0.0168         estimate D2E/DX2                !
 ! D91   D(20,21,22,43)        178.2324         estimate D2E/DX2                !
 ! D92   D(42,21,22,23)       -179.1196         estimate D2E/DX2                !
 ! D93   D(42,21,22,43)         -0.9041         estimate D2E/DX2                !
 ! D94   D(21,22,23,24)          0.1513         estimate D2E/DX2                !
 ! D95   D(21,22,23,26)       -179.8838         estimate D2E/DX2                !
 ! D96   D(43,22,23,24)       -178.0508         estimate D2E/DX2                !
 ! D97   D(43,22,23,26)          1.9142         estimate D2E/DX2                !
 ! D98   D(22,23,24,25)         -0.2865         estimate D2E/DX2                !
 ! D99   D(22,23,24,44)       -179.0041         estimate D2E/DX2                !
 ! D100  D(26,23,24,25)        179.7484         estimate D2E/DX2                !
 ! D101  D(26,23,24,44)          1.0307         estimate D2E/DX2                !
 ! D102  D(22,23,26,27)         33.7237         estimate D2E/DX2                !
 ! D103  D(22,23,26,30)       -146.3095         estimate D2E/DX2                !
 ! D104  D(24,23,26,27)       -146.3124         estimate D2E/DX2                !
 ! D105  D(24,23,26,30)         33.6543         estimate D2E/DX2                !
 ! D106  D(23,24,25,20)          0.2534         estimate D2E/DX2                !
 ! D107  D(23,24,25,45)        179.4079         estimate D2E/DX2                !
 ! D108  D(44,24,25,20)        178.9799         estimate D2E/DX2                !
 ! D109  D(44,24,25,45)         -1.8656         estimate D2E/DX2                !
 ! D110  D(23,26,27,28)       -179.9835         estimate D2E/DX2                !
 ! D111  D(23,26,27,46)          1.356          estimate D2E/DX2                !
 ! D112  D(30,26,27,28)          0.0437         estimate D2E/DX2                !
 ! D113  D(30,26,27,46)       -178.6168         estimate D2E/DX2                !
 ! D114  D(23,26,30,29)        179.9065         estimate D2E/DX2                !
 ! D115  D(23,26,30,47)          1.186          estimate D2E/DX2                !
 ! D116  D(27,26,30,29)         -0.1204         estimate D2E/DX2                !
 ! D117  D(27,26,30,47)       -178.8409         estimate D2E/DX2                !
 ! D118  D(26,27,28,29)          0.0427         estimate D2E/DX2                !
 ! D119  D(26,27,28,48)       -179.5906         estimate D2E/DX2                !
 ! D120  D(46,27,28,29)        178.8445         estimate D2E/DX2                !
 ! D121  D(46,27,28,48)         -0.7888         estimate D2E/DX2                !
 ! D122  D(27,28,29,30)         -0.1169         estimate D2E/DX2                !
 ! D123  D(48,28,29,30)        179.554          estimate D2E/DX2                !
 ! D124  D(28,29,30,26)          0.1443         estimate D2E/DX2                !
 ! D125  D(28,29,30,47)        178.9771         estimate D2E/DX2                !
 --------------------------------------------------------------------------------
 Trust Radius=3.00D-01 FncErr=1.00D-07 GrdErr=1.00D-06
 Number of steps in this run=    272 maximum allowed number of steps=    288.
 GradGradGradGradGradGradGradGradGradGradGradGradGradGradGradGradGradGrad

 Leave Link  103 at Sat Sep  3 12:40:48 2022, MaxMem=  209715200 cpu:       0.1
 (Enter /opt/gaussian/l202.exe)
                          Input orientation:                          
 ---------------------------------------------------------------------
 Center     Atomic      Atomic             Coordinates (Angstroms)
 Number     Number       Type             X           Y           Z
 ---------------------------------------------------------------------
      1          8           0       -0.780070   -1.411100    0.051000
      2          6           0       -0.908660   -0.359990    0.659200
      3          6           0       -2.278360    0.068110    1.173430
      4          7           0       -3.273060   -0.938000    0.962500
      5          7           0       -3.650830   -1.734840    2.002640
      6          7           0       -4.509620   -2.576520    1.601120
      7          6           0       -4.735470   -2.376390    0.248680
      8          6           0       -5.585960   -3.037100   -0.637090
      9          6           0       -5.597290   -2.603140   -1.939720
     10          6           0       -4.774350   -1.533180   -2.357830
     11          6           0       -3.931380   -0.878970   -1.491940
     12          6           0       -3.929930   -1.323840   -0.167350
     13          7           0        0.143990    0.482700    0.914090
     14          6           0       -0.036920    1.796150    1.536240
     15          6           0       -0.554830    2.877780    0.616370
     16          6           0       -0.935290    4.179680    1.129120
     17          6           0       -1.364320    5.031980    0.186680
     18         16           0       -1.337710    4.290040   -1.438710
     19          6           0       -0.710390    2.778130   -0.715480
     20          6           0        1.483650    0.077840    0.584710
     21          6           0        2.324670    0.938010   -0.106800
     22          6           0        3.632940    0.570620   -0.380570
     23          6           0        4.135230   -0.662010    0.027190
     24          6           0        3.276400   -1.517710    0.718500
     25          6           0        1.971350   -1.156400    0.997230
     26          6           0        5.521760   -1.055580   -0.258040
     27          6           0        6.635630   -0.257540   -0.318750
     28          7           0        7.681750   -1.061190   -0.610930
     29          7           0        7.308300   -2.351130   -0.746330
     30          6           0        6.013450   -2.362370   -0.534960
     31          1           0       -2.237920    0.235810    2.239130
     32          1           0       -2.583470    0.990950    0.699460
     33          1           0       -6.198500   -3.848750   -0.299990
     34          1           0       -6.233480   -3.080270   -2.658660
     35          1           0       -4.807120   -1.229240   -3.386120
     36          1           0       -3.299050   -0.080730   -1.824250
     37          1           0       -0.695610    1.714850    2.392700
     38          1           0        0.924790    2.092650    1.930860
     39          1           0       -0.879090    4.437600    2.167980
     40          1           0       -1.698580    6.037470    0.307700
     41          1           0       -0.497240    1.941330   -1.342080
     42          1           0        1.963310    1.888060   -0.446470
     43          1           0        4.255360    1.240750   -0.941580
     44          1           0        3.636430   -2.468180    1.060850
     45          1           0        1.331620   -1.835560    1.520500
     46          1           0        6.751330    0.789980   -0.159680
     47          1           0        5.463330   -3.272640   -0.600150
     48          1           0        8.632530   -0.817650   -0.723360
 ---------------------------------------------------------------------
                    Distance matrix (angstroms):
                    1          2          3          4          5
     1  O    0.000000
     2  C    1.221178   0.000000
     3  C    2.385956   1.524395   0.000000
     4  N    2.696230   2.452850   1.430446   0.000000
     5  N    3.486398   3.348812   2.412860   1.363655   0.000000
     6  N    4.203644   4.332105   3.486475   2.149806   1.267740
     7  C    4.076279   4.344982   3.587218   2.171900   2.159724
     8  C    5.119953   5.542961   4.884724   3.509190   3.522610
     9  C    5.346918   5.811141   5.276606   4.074017   4.481613
    10  C    4.666009   5.042063   4.611279   3.692249   4.507401
    11  C    3.548884   3.746142   3.276222   2.541878   3.608783
    12  C    3.158625   3.277234   2.542223   1.362685   2.226134
    13  N    2.277123   1.372285   2.471219   3.700941   4.528033
    14  C    3.611740   2.485572   2.853385   4.275202   5.074028
    15  C    4.331843   3.257328   3.342920   4.697740   5.725664
    16  C    5.695898   4.564005   4.325599   5.628817   6.566486
    17  C    6.470938   5.431781   5.142874   6.315524   7.369918
    18  S    5.918885   5.119384   5.052998   6.069909   7.313863
    19  C    4.259342   3.431742   3.656599   4.815861   6.033346
    20  C    2.761561   2.433185   3.807808   4.878621   5.626653
    21  C    3.896489   3.567350   4.856295   5.999783   6.877533
    22  C    4.856761   4.751135   6.132773   7.195318   8.003008
    23  C    4.972110   5.092296   6.555996   7.472198   8.104079
    24  C    4.112405   4.342644   5.794579   6.579592   7.048594
    25  C    2.920708   3.007157   4.426116   5.249070   5.740588
    26  C    6.319411   6.532647   8.009598   8.879887   9.471456
    27  C    7.513988   7.608101   9.043886  10.014328  10.648123
    28  N    8.494880   8.712064  10.181505  11.067914  11.649546
    29  N    8.181755   8.570798  10.071854  10.811208  11.315440
    30  C    6.884779   7.304187   8.807948   9.513700  10.011569
    31  H    3.102507   2.148974   1.079572   2.019685   2.436330
    32  H    3.072881   2.152126   1.081376   2.065326   3.204289
    33  H    5.951867   6.408892   5.734131   4.315616   4.032536
    34  H    6.314116   6.838262   6.343515   5.144532   5.496179
    35  H    5.297546   5.684910   5.372824   4.620461   5.534562
    36  H    3.410529   3.458247   3.170181   2.915744   4.183888
    37  H    3.906694   2.712079   2.589106   3.965644   4.559148
    38  H    4.326278   3.315735   3.864276   5.267305   5.965830
    39  H    6.220828   5.029330   4.694628   6.006775   6.768227
    40  H    7.509378   6.455619   6.059612   7.180873   8.191026
    41  H    3.641353   3.077412   3.606817   4.615930   5.886128
    42  H    4.319498   3.811095   4.891631   6.114849   7.116327
    43  H    5.776944   5.638437   6.966911   8.065332   8.945972
    44  H    4.652170   5.026294   6.436628   7.077583   7.384370
    45  H    2.607457   2.817445   4.095897   4.724411   5.006737
    46  H    7.849275   7.788995   9.156068  10.233943  10.920406
    47  H    6.547471   7.118409   8.616261   9.176978   9.602461
    48  H    9.463026   9.651696  11.109901  12.024961  12.615595
                    6          7          8          9         10
     6  N    0.000000
     7  C    1.385696   0.000000
     8  C    2.525911   1.394439   0.000000
     9  C    3.704225   2.362889   1.373060   0.000000
    10  C    4.102673   2.739783   2.425166   1.413103   0.000000
    11  C    3.575340   2.432814   2.850601   2.438960   1.374174
    12  C    2.243376   1.389186   2.428652   2.749180   2.356920
    13  N    5.611321   5.694409   6.901266   7.115401   6.241739
    14  C    6.255358   6.414380   7.673038   7.896440   6.977927
    15  C    6.808780   6.724526   7.865700   7.874039   6.790198
    16  C    7.657993   7.628800   8.765281   8.784001   7.715826
    17  C    8.353611   8.139560   9.143899   8.985247   7.823309
    18  S    8.151762   7.670290   8.507479   8.118557   6.823867
    19  C    6.962260   6.610594   7.589086   7.371474   6.148209
    20  C    6.633099   6.694297   7.821447   7.981235   7.100457
    21  C    7.872511   7.807509   8.869091   8.868866   7.846655
    22  C    8.951696   8.894443   9.903008   9.884374   8.889210
    23  C    8.993110   9.037559  10.029150  10.117246   9.264333
    24  C    7.907098   8.071439   9.093272   9.326664   8.618505
    25  C    6.662162   6.857852   7.957447   8.246396   7.543398
    26  C   10.314956  10.354326  11.289444  11.351487  10.518893
    27  C   11.544703  11.580735  12.537725  12.560801  11.660735
    28  N   12.482744  12.516231  13.414061  13.434143  12.586853
    29  N   12.050915  12.084828  12.912956  12.963099  12.217054
    30  C   10.739818  10.777457  11.619467  11.697889  10.972103
    31  H    3.671087   4.125922   5.494902   6.066942   5.540293
    32  H    4.153298   4.021602   5.198702   5.381995   4.529703
    33  H    2.843432   2.146937   1.071269   2.145160   3.409512
    34  H    4.622898   3.345461   2.123179   1.072038   2.147800
    35  H    5.174576   3.812199   3.381141   2.145703   1.072769
    36  H    4.407676   3.410337   3.921662   3.414351   2.137950
    37  H    5.795613   6.136411   7.461647   7.838454   7.053606
    38  H    7.172356   7.405443   8.677475   8.920166   8.001231
    39  H    7.918330   8.061379   9.267911   9.418420   8.444301
    40  H    9.152907   8.945347   9.917266   9.742227   8.595356
    41  H    6.721056   6.255863   7.153800   6.857105   5.603360
    42  H    8.125511   7.971350   9.015820   8.919829   7.794501
    43  H    9.892510   9.763987  10.735190  10.622923   9.551760
    44  H    8.164665   8.411703   9.394634   9.709955   9.127038
    45  H    5.888600   6.222508   7.345189   7.782808   7.239872
    46  H   11.884559  11.922216  12.926066  12.929432  11.961197
    47  H   10.236694  10.273232  11.051862  11.161541  10.532106
    48  H   13.461535  13.493627  14.390930  14.392890  13.525084
                   11         12         13         14         15
    11  C    0.000000
    12  C    1.397301   0.000000
    13  N    4.924608   4.585839   0.000000
    14  C    5.611859   5.271820   1.464565   0.000000
    15  C    5.473503   5.446019   2.512647   1.511395   0.000000
    16  C    6.437115   6.398237   3.857298   2.579541   1.450037
    17  C    6.659346   6.863246   4.847687   3.748853   2.341044
    18  S    5.783478   6.312813   4.714546   4.094126   2.613567
    19  C    4.934779   5.243285   2.941847   2.547173   1.344602
    20  C    5.877968   5.642442   1.437738   2.483975   3.463534
    21  C    6.660194   6.651290   2.450487   3.002181   3.546435
    22  C    7.781734   7.799452   3.722452   4.317865   4.884086
    23  C    8.211274   8.094608   4.245816   5.072141   5.905414
    24  C    7.566117   7.263161   3.721812   4.756938   5.831731
    25  C    6.412110   6.017424   2.456177   3.611265   4.775065
    26  C    9.534965   9.455931   5.714946   6.500056   7.291149
    27  C   10.650082  10.620310   6.649003   7.223680   7.899835
    28  N   11.647926  11.623118   7.843922   8.506033   9.212112
    29  N   11.360176  11.299927   7.881302   8.738553   9.540821
    30  C   10.100294  10.004223   6.681671   7.628246   8.480981
    31  H    4.246342   3.329647   2.736819   2.788031   3.527910
    32  H    3.180518   2.814705   2.782701   2.798833   2.771716
    33  H    3.921756   3.396936   7.775772   8.555799   8.828190
    34  H    3.392141   3.820735   8.132123   8.931630   8.858400
    35  H    2.116017   3.337498   6.777613   7.492491   7.139293
    36  H    1.071195   2.165329   4.435142   5.045499   4.715946
    37  H    5.682300   5.123311   2.099859   1.083516   2.127810
    38  H    6.642926   6.296284   2.058011   1.080983   2.129222
    39  H    7.139846   6.924997   4.273192   2.843520   2.223888
    40  H    7.487406   7.706717   5.883727   4.717968   3.374475
    41  H    4.446332   4.881054   2.762079   2.918510   2.171585
    42  H    6.595213   6.717476   2.671345   2.817890   2.906923
    43  H    8.474599   8.612521   4.574004   4.987156   5.314603
    44  H    8.143345   7.750341   4.574535   5.648363   6.807607
    45  H    6.139139   5.549289   2.674421   3.881039   5.156716
    46  H   10.894063  10.888416   6.701070   7.068866   7.638137
    47  H    9.735786   9.603045   6.685124   7.778788   8.690560
    48  H   12.587546  12.584942   8.742280   9.332583   9.992931
                   16         17         18         19         20
    16  C    0.000000
    17  C    1.341147   0.000000
    18  S    2.601513   1.786918   0.000000
    19  C    2.327546   2.514231   1.789543   0.000000
    20  C    4.792989   5.728251   5.458656   3.714279   0.000000
    21  C    4.760595   5.518638   5.140342   3.601128   1.387585
    22  C    6.014416   6.722954   6.297706   4.883624   2.407082
    23  C    7.096928   7.917829   7.524941   5.988836   2.808751
    24  C    7.096985   8.044722   7.724864   6.033658   2.403671
    25  C    6.077804   7.076704   6.822565   5.060201   1.389738
    26  C    8.427672   9.201862   8.776216   7.331185   4.277990
    27  C    8.894047   9.603837   9.247105   7.958436   5.241337
    28  N   10.234641  10.935917  10.520054   9.229264   6.414311
    29  N   10.682957  11.427824  10.924194   9.518910   6.449660
    30  C    9.687754  10.470371   9.955445   8.465657   5.265679
    31  H    4.299195   5.289516   5.547402   4.186461   4.075800
    32  H    3.615122   4.251963   4.124037   2.950338   4.169940
    33  H    9.705639  10.122920   9.547977   8.614379   8.672729
    34  H    9.753203   9.879943   8.931871   8.282592   8.946910
    35  H    8.039582   7.988783   6.803798   6.322541   7.553128
    36  H    5.697442   5.824674   4.806155   4.012931   5.357467
    37  H    2.780192   4.039437   4.660858   3.285052   3.270750
    38  H    2.908329   4.113618   4.615347   3.185406   2.486746
    39  H    1.071873   2.124685   3.638725   3.331162   5.205458
    40  H    2.169960   1.066483   2.496735   3.556222   6.761694
    41  H    3.362875   3.555426   2.496431   1.066909   3.333023
    42  H    4.016950   4.621497   4.201283   2.830771   2.137827
    43  H    6.314108   6.872205   6.389659   5.203204   3.371097
    44  H    8.068415   9.056714   8.755764   7.040878   3.367995
    45  H    6.440122   7.497351   7.307888   5.518654   2.135396
    46  H    8.499129   9.163968   8.906116   7.742023   5.367468
    47  H    9.973454  10.779732  10.205462   8.645226   5.335491
    48  H   10.952085  11.618234  11.225235  10.010986   7.322529
                   21         22         23         24         25
    21  C    0.000000
    22  C    1.386180   0.000000
    23  C    2.419947   1.392099   0.000000
    24  C    2.759977   2.386671   1.395608   0.000000
    25  C    2.393798   2.764383   2.422349   1.382531   0.000000
    26  C    3.770764   2.495432   1.469258   2.491754   3.767131
    27  C    4.478687   3.115416   2.556418   3.734748   4.929022
    28  N    5.740144   4.371354   3.625513   4.624165   5.933288
    29  N    6.005332   4.709424   3.676933   4.369958   5.740245
    30  C    4.968192   3.780621   2.595178   3.126668   4.487822
    31  H    5.178195   6.437540   6.805571   5.982882   4.604185
    32  H    4.974203   6.323519   6.951630   6.374309   5.044419
    33  H    9.777260  10.779357  10.818888   9.810443   8.699309
    34  H    9.792880  10.764058  10.980525  10.211984   9.186188
    35  H    8.143300   9.138241   9.588434   9.070525   8.072591
    36  H    5.967721   7.110623   7.683374   7.194931   6.074120
    37  H    3.996633   5.266558   5.880656   5.387880   4.159818
    38  H    2.728537   3.872126   4.638862   4.476001   3.538824
    39  H    5.261733   6.465838   7.465414   7.405053   6.386587
    40  H    6.508674   7.667155   8.887916   9.055381   8.105282
    41  H    3.239714   4.456651   5.487445   5.518270   4.600243
    42  H    1.071705   2.127829   3.382964   3.831531   3.369432
    43  H    2.125105   1.072946   2.138561   3.365016   3.836928
    44  H    3.832264   3.363333   2.139978   1.072482   2.120685
    45  H    3.365553   3.834037   3.386358   2.127534   1.069731
    46  H    4.429450   3.133890   2.997862   4.262836   5.289144
    47  H    5.274861   4.262533   2.995462   3.098593   4.384520
    48  H    6.576594   5.200067   4.562155   5.590811   6.888142
                   26         27         28         29         30
    26  C    0.000000
    27  C    1.371590   0.000000
    28  N    2.188634   1.351144   0.000000
    29  N    2.260222   2.240185   1.349720   0.000000
    30  C    1.423427   2.205485   2.117089   1.312037   0.000000
    31  H    8.253253   9.248029  10.402159  10.331290   9.084670
    32  H    8.414264   9.358808  10.550030  10.540727   9.309972
    33  H   12.048571  13.327116  14.160809  13.596902  12.304319
    34  H   12.167498  13.381217  14.209275  13.695563  12.450413
    35  H   10.793554  11.886525  12.794600  12.450322  11.247126
    36  H    9.011661  10.049660  11.091051  10.901032   9.674234
    37  H    7.304615   8.061598   9.322465   9.510430   8.378926
    38  H    5.986215   6.572506   7.878065   8.225796   7.198745
    39  H    8.776758   9.203216  10.547370  11.027847  10.052491
    40  H   10.137294  10.463204  11.799383  12.353278  11.434282
    41  H    6.810651   7.533928   8.743317   8.927854   7.846169
    42  H    4.622022   5.143004   6.436278   6.828584   5.871765
    43  H    2.710005   2.880707   4.141063   4.718068   4.029726
    44  H    2.699885   3.973088   4.597726   4.094170   2.864966
    45  H    4.618316   5.831424   6.742907   6.412880   5.140231
    46  H    2.219822   1.065827   2.120410   3.243601   3.259235
    47  H    2.244061   3.247199   3.132414   2.067478   1.065586
    48  H    3.154366   2.113065   0.987894   2.026246   3.046512
                   31         32         33         34         35
    31  H    0.000000
    32  H    1.749350   0.000000
    33  H    6.230325   6.122911   0.000000
    34  H    7.137873   6.416726   2.480949   0.000000
    35  H    6.355360   5.154205   4.280417   2.447450   0.000000
    36  H    4.211562   2.833666   4.992810   4.278359   2.456173
    37  H    2.142397   2.637254   8.275628   8.898169   7.678993
    38  H    3.680437   3.877883   9.540345   9.953071   8.494706
    39  H    4.416619   4.115927  10.151384  10.415580   8.853842
    40  H    6.138450   5.138470  10.879150  10.606498   8.724242
    41  H    4.331724   3.069766   8.192395   7.736556   5.727624
    42  H    5.252876   4.774010   9.977354   9.836943   8.012354
    43  H    7.299966   7.037401  11.644648  11.473245   9.705935
    44  H    6.573271   7.126243  10.024156  10.565251   9.623100
    45  H    4.189107   4.898081   8.004363   8.731862   7.882047
    46  H    9.320301   9.376407  13.756293  13.777846  12.169015
    47  H    8.926365   9.198814  11.679909  11.878124  10.836017
    48  H   11.316042  11.449633  15.143522  15.161236  13.707074
                   36         37         38         39         40
    36  H    0.000000
    37  H    5.271117   0.000000
    38  H    6.055184   1.726767   0.000000
    39  H    6.496877   2.738162   2.967996   0.000000
    40  H    6.673761   4.902878   5.007826   2.586849   0.000000
    41  H    3.488747   3.746895   3.571723   4.324083   4.576391
    42  H    5.785054   3.893680   2.602322   4.627606   5.585321
    43  H    7.719749   5.987846   4.479882   6.800867   7.747169
    44  H    7.881916   6.167506   5.376902   8.324990  10.068547
    45  H    5.975775   4.180407   3.970484   6.682739   8.522769
    46  H   10.224435   7.926345   6.325810   8.771912   9.957689
    47  H    9.405637   8.471408   7.469317  10.360340  11.781141
    48  H   12.004899  10.155667   8.655864  11.244928  12.441366
                   41         42         43         44         45
    41  H    0.000000
    42  H    2.619019   0.000000
    43  H    4.820624   2.432619   0.000000
    44  H    6.504235   4.903893   4.260160   0.000000
    45  H    5.079763   4.258327   4.906504   2.433852   0.000000
    46  H    7.434073   4.920687   2.654134   4.669893   6.252177
    47  H    7.953888   6.237514   4.684704   2.596852   4.861418
    48  H    9.557588   7.202502   4.841926   5.555958   7.705474
                   46         47         48
    46  H    0.000000
    47  H    4.284605   0.000000
    48  H    2.537937   4.010734   0.000000
 Stoichiometry    C22H18N6OS
 Framework group  C1[X(C22H18N6OS)]
 Deg. of freedom   138
 Full point group                 C1      NOp   1
 Largest Abelian subgroup         C1      NOp   1
 Largest concise Abelian subgroup C1      NOp   1
                         Standard orientation:                         
 ---------------------------------------------------------------------
 Center     Atomic      Atomic             Coordinates (Angstroms)
 Number     Number       Type             X           Y           Z
 ---------------------------------------------------------------------
      1          8           0        0.780070   -1.411100   -0.051000
      2          6           0        0.908660   -0.359990   -0.659200
      3          6           0        2.278360    0.068110   -1.173430
      4          7           0        3.273060   -0.938000   -0.962500
      5          7           0        3.650830   -1.734840   -2.002640
      6          7           0        4.509620   -2.576520   -1.601120
      7          6           0        4.735470   -2.376390   -0.248680
      8          6           0        5.585960   -3.037100    0.637090
      9          6           0        5.597290   -2.603140    1.939720
     10          6           0        4.774350   -1.533180    2.357830
     11          6           0        3.931380   -0.878970    1.491940
     12          6           0        3.929930   -1.323840    0.167350
     13          7           0       -0.143990    0.482701   -0.914090
     14          6           0        0.036920    1.796151   -1.536240
     15          6           0        0.554831    2.877780   -0.616370
     16          6           0        0.935291    4.179680   -1.129120
     17          6           0        1.364321    5.031980   -0.186680
     18         16           0        1.337711    4.290040    1.438710
     19          6           0        0.710391    2.778130    0.715480
     20          6           0       -1.483650    0.077841   -0.584710
     21          6           0       -2.324670    0.938011    0.106800
     22          6           0       -3.632940    0.570621    0.380570
     23          6           0       -4.135230   -0.662009   -0.027190
     24          6           0       -3.276400   -1.517709   -0.718500
     25          6           0       -1.971350   -1.156399   -0.997230
     26          6           0       -5.521760   -1.055579    0.258040
     27          6           0       -6.635630   -0.257538    0.318750
     28          7           0       -7.681750   -1.061188    0.610930
     29          7           0       -7.308300   -2.351128    0.746330
     30          6           0       -6.013450   -2.362369    0.534960
     31          1           0        2.237920    0.235810   -2.239130
     32          1           0        2.583470    0.990950   -0.699460
     33          1           0        6.198499   -3.848751    0.299990
     34          1           0        6.233480   -3.080271    2.658660
     35          1           0        4.807120   -1.229240    3.386120
     36          1           0        3.299050   -0.080730    1.824250
     37          1           0        0.695610    1.714850   -2.392700
     38          1           0       -0.924790    2.092651   -1.930860
     39          1           0        0.879091    4.437600   -2.167980
     40          1           0        1.698581    6.037470   -0.307700
     41          1           0        0.497240    1.941330    1.342080
     42          1           0       -1.963310    1.888061    0.446470
     43          1           0       -4.255360    1.240751    0.941580
     44          1           0       -3.636430   -2.468179   -1.060850
     45          1           0       -1.331620   -1.835559   -1.520500
     46          1           0       -6.751330    0.789982    0.159680
     47          1           0       -5.463330   -3.272639    0.600150
     48          1           0       -8.632530   -0.817648    0.723360
 ---------------------------------------------------------------------
 Rotational constants (GHZ):      0.1878630      0.0741784      0.0593694
 Leave Link  202 at Sat Sep  3 12:40:48 2022, MaxMem=  209715200 cpu:       0.0
 (Enter /opt/gaussian/l301.exe)
 Standard basis: CC-pVDZ (5D, 7F)
 Ernie: Thresh=  0.10000D-02 Tol=  0.10000D-05 Strict=F.
 Ernie:  68 primitive shells out of 778 were deleted.
 There are   514 symmetry adapted basis functions of A   symmetry.
 Integral buffers will be    131072 words long.
 Raffenetti 2 integral format.
 Two-electron integral symmetry is turned on.
   514 basis functions,  1154 primitive gaussians,   544 cartesian basis functions
   108 alpha electrons      108 beta electrons
       nuclear repulsion energy      2782.1908731308 Hartrees.
 IExCor=  402 DFT=T Ex+Corr=B3LYP ExCW=0 ScaHFX=  0.200000
 ScaDFX=  0.800000  0.720000  1.000000  0.810000 ScalE2=  1.000000  1.000000
 IRadAn=      0 IRanWt=     -1 IRanGd=            0 ICorTp=0
 NAtoms=   48 NActive=   48 NUniq=   48 SFac= 1.00D+00 NAtFMM=   60 NAOKFM=F Big=F
 Leave Link  301 at Sat Sep  3 12:40:48 2022, MaxMem=  209715200 cpu:       0.3
 (Enter /opt/gaussian/l302.exe)
 NPDir=0 NMtPBC=     1 NCelOv=     1 NCel=       1 NClECP=     1 NCelD=      1
         NCelK=      1 NCelE2=     1 NClLst=     1 CellRange=     0.0.
 One-electron integrals computed using PRISM.
 NBasis=   514 RedAO= T  NBF=   514
 NBsUse=   514 1.00D-06 NBFU=   514
 Precomputing XC quadrature grid using
 IXCGrd= 2 IRadAn=           0 IRanWt=          -1 IRanGd=           0 AccXCQ= 0.00D+00.
 NRdTot=    3094 NPtTot=      395168 NUsed=      417463 NTot=      417495
 NSgBfM=   518   521   521   522   523 NAtAll=    48    48.
 Leave Link  302 at Sat Sep  3 12:40:49 2022, MaxMem=  209715200 cpu:       7.0
 (Enter /opt/gaussian/l303.exe)
 DipDrv:  MaxL=1.
 Leave Link  303 at Sat Sep  3 12:40:49 2022, MaxMem=  209715200 cpu:       1.1
 (Enter /opt/gaussian/l401.exe)
 Harris functional with IExCor=  402 diagonalized for initial guess.
 ExpMin= 1.22D-01 ExpMax= 1.11D+05 ExpMxC= 1.07D+03 IAcc=2 IRadAn=         4 AccDes= 0.00D+00
 HarFok:  IExCor=  402 AccDes= 0.00D+00 IRadAn=         4 IDoV= 1
 ScaDFX=  1.000000  1.000000  1.000000  1.000000
 FoFCou: FMM=F IPFlag=           0 FMFlag=      100000 FMFlg1=           0
         NFxFlg=           0 DoJE=T BraDBF=F KetDBF=T FulRan=T
         Omega=  0.000000  0.000000  1.000000  0.000000  0.000000 ICntrl=     500 IOpCl=  0
         NMat0=    1 NMatS0=    1 NMatT0=    0 NMatD0=    1 NMtDS0=    0 NMtDT0=    0
         I1Cent=           4 NGrid=           0.
 Petite list used in FoFCou.
 Harris En= -1650.93090597575    
 Initial guess orbital symmetries:
       Occupied  (A) (A) (A) (A) (A) (A) (A) (A) (A) (A) (A) (A)
                 (A) (A) (A) (A) (A) (A) (A) (A) (A) (A) (A) (A)
                 (A) (A) (A) (A) (A) (A) (A) (A) (A) (A) (A) (A)
                 (A) (A) (A) (A) (A) (A) (A) (A) (A) (A) (A) (A)
                 (A) (A) (A) (A) (A) (A) (A) (A) (A) (A) (A) (A)
                 (A) (A) (A) (A) (A) (A) (A) (A) (A) (A) (A) (A)
                 (A) (A) (A) (A) (A) (A) (A) (A) (A) (A) (A) (A)
                 (A) (A) (A) (A) (A) (A) (A) (A) (A) (A) (A) (A)
                 (A) (A) (A) (A) (A) (A) (A) (A) (A) (A) (A) (A)
       Virtual   (A) (A) (A) (A) (A) (A) (A) (A) (A) (A) (A) (A)
                 (A) (A) (A) (A) (A) (A) (A) (A) (A) (A) (A) (A)
                 (A) (A) (A) (A) (A) (A) (A) (A) (A) (A) (A) (A)
                 (A) (A) (A) (A) (A) (A) (A) (A) (A) (A) (A) (A)
                 (A) (A) (A) (A) (A) (A) (A) (A) (A) (A) (A) (A)
                 (A) (A) (A) (A) (A) (A) (A) (A) (A) (A) (A) (A)
                 (A) (A) (A) (A) (A) (A) (A) (A) (A) (A) (A) (A)
                 (A) (A) (A) (A) (A) (A) (A) (A) (A) (A) (A) (A)
                 (A) (A) (A) (A) (A) (A) (A) (A) (A) (A) (A) (A)
                 (A) (A) (A) (A) (A) (A) (A) (A) (A) (A) (A) (A)
                 (A) (A) (A) (A) (A) (A) (A) (A) (A) (A) (A) (A)
                 (A) (A) (A) (A) (A) (A) (A) (A) (A) (A) (A) (A)
                 (A) (A) (A) (A) (A) (A) (A) (A) (A) (A) (A) (A)
                 (A) (A) (A) (A) (A) (A) (A) (A) (A) (A) (A) (A)
                 (A) (A) (A) (A) (A) (A) (A) (A) (A) (A) (A) (A)
                 (A) (A) (A) (A) (A) (A) (A) (A) (A) (A) (A) (A)
                 (A) (A) (A) (A) (A) (A) (A) (A) (A) (A) (A) (A)
                 (A) (A) (A) (A) (A) (A) (A) (A) (A) (A) (A) (A)
                 (A) (A) (A) (A) (A) (A) (A) (A) (A) (A) (A) (A)
                 (A) (A) (A) (A) (A) (A) (A) (A) (A) (A) (A) (A)
                 (A) (A) (A) (A) (A) (A) (A) (A) (A) (A) (A) (A)
                 (A) (A) (A) (A) (A) (A) (A) (A) (A) (A) (A) (A)
                 (A) (A) (A) (A) (A) (A) (A) (A) (A) (A) (A) (A)
                 (A) (A) (A) (A) (A) (A) (A) (A) (A) (A) (A) (A)
                 (A) (A) (A) (A) (A) (A) (A) (A) (A) (A) (A) (A)
                 (A) (A) (A) (A) (A) (A) (A) (A) (A) (A) (A) (A)
                 (A) (A) (A) (A) (A) (A) (A) (A) (A) (A) (A) (A)
                 (A) (A) (A) (A) (A) (A) (A) (A) (A) (A) (A) (A)
                 (A) (A) (A) (A) (A) (A) (A) (A) (A) (A) (A) (A)
                 (A) (A) (A) (A) (A) (A) (A) (A) (A) (A) (A) (A)
                 (A) (A) (A) (A) (A) (A) (A) (A) (A) (A) (A) (A)
                 (A) (A) (A) (A) (A) (A) (A) (A) (A) (A) (A) (A)
                 (A) (A) (A) (A) (A) (A) (A) (A) (A) (A) (A) (A)
                 (A) (A) (A) (A) (A) (A) (A) (A) (A) (A)
 The electronic state of the initial guess is 1-A.
 Leave Link  401 at Sat Sep  3 12:40:52 2022, MaxMem=  209715200 cpu:      22.0
 (Enter /opt/gaussian/l502.exe)
 Closed shell SCF:
 Requested convergence on RMS density matrix=1.00D-08 within 128 cycles.
 Requested convergence on MAX density matrix=1.00D-06.
 Requested convergence on             energy=1.00D-06.
 No special actions if energy rises.
 Using DIIS extrapolation, IDIIS=  1040.
 Integral symmetry usage will be decided dynamically.
       417018 words used for storage of precomputed grid.
 IEnd=     1331434 IEndB=     1331434 NGot=   209715200 MDV=   208696887
 LenX=   208696887 LenY=   208400407
 Fock matrices will be formed incrementally for  20 cycles.
 Integral accuracy reduced to 1.0D-05 until final iterations.

 Cycle   1  Pass 0  IDiag  1:
 FoFCou: FMM=F IPFlag=           0 FMFlag=      100000 FMFlg1=           0
         NFxFlg=           0 DoJE=F BraDBF=F KetDBF=F FulRan=T
         Omega=  0.000000  0.000000  1.000000  0.000000  0.000000 ICntrl=       0 IOpCl=  0
         NMat0=    1 NMatS0=    1 NMatT0=    0 NMatD0=    1 NMtDS0=    0 NMtDT0=    0
         I1Cent=           0 NGrid=           0.
 Symmetry not used in FoFCou.
 E= -1650.45768729168    
 DIIS: error= 2.05D-02 at cycle   1 NSaved=   1.
 NSaved= 1 IEnMin= 1 EnMin= -1650.45768729168     IErMin= 1 ErrMin= 2.05D-02
 ErrMax= 2.05D-02 EMaxC= 1.00D-01 BMatC= 6.07D-01 BMatP= 6.07D-01
 IDIUse=3 WtCom= 7.95D-01 WtEn= 2.05D-01
 Coeff-Com:  0.100D+01
 Coeff-En:   0.100D+01
 Coeff:      0.100D+01
 Gap=     0.338 Goal=   None    Shift=    0.000
 GapD=    0.338 DampG=1.000 DampE=0.500 DampFc=0.5000 IDamp=-1.
 Damping current iteration by 5.00D-01
 RMSDP=4.44D-03 MaxDP=2.03D-01              OVMax= 3.14D-01

 Cycle   2  Pass 0  IDiag  1:
 RMSU=  1.55D-03    CP:  9.80D-01
 E= -1650.62415691957     Delta-E=       -0.166469627882 Rises=F Damp=T
 DIIS: error= 7.94D-03 at cycle   2 NSaved=   2.
 NSaved= 2 IEnMin= 2 EnMin= -1650.62415691957     IErMin= 2 ErrMin= 7.94D-03
 ErrMax= 7.94D-03 EMaxC= 1.00D-01 BMatC= 1.17D-01 BMatP= 6.07D-01
 IDIUse=3 WtCom= 9.21D-01 WtEn= 7.94D-02
 Coeff-Com:  0.243D+00 0.757D+00
 Coeff-En:   0.366D+00 0.634D+00
 Coeff:      0.253D+00 0.747D+00
 Gap=     0.255 Goal=   None    Shift=    0.000
 RMSDP=1.53D-03 MaxDP=7.44D-02 DE=-1.66D-01 OVMax= 2.95D-01

 Cycle   3  Pass 0  IDiag  1:
 RMSU=  9.99D-04    CP:  9.66D-01  7.47D-01
 E= -1651.05017314850     Delta-E=       -0.426016228932 Rises=F Damp=F
 DIIS: error= 8.36D-03 at cycle   3 NSaved=   3.
 NSaved= 3 IEnMin= 3 EnMin= -1651.05017314850     IErMin= 2 ErrMin= 7.94D-03
 ErrMax= 8.36D-03 EMaxC= 1.00D-01 BMatC= 8.66D-02 BMatP= 1.17D-01
 IDIUse=3 WtCom= 9.16D-01 WtEn= 8.36D-02
 Coeff-Com:  0.757D-01 0.454D+00 0.471D+00
 Coeff-En:   0.000D+00 0.000D+00 0.100D+01
 Coeff:      0.694D-01 0.416D+00 0.515D+00
 Gap=     0.187 Goal=   None    Shift=    0.000
 RMSDP=7.63D-04 MaxDP=5.42D-02 DE=-4.26D-01 OVMax= 6.93D-02

 Cycle   4  Pass 0  IDiag  1:
 RMSU=  4.11D-04    CP:  9.70D-01  8.24D-01  6.73D-01
 E= -1651.11288023670     Delta-E=       -0.062707088206 Rises=F Damp=F
 DIIS: error= 3.66D-03 at cycle   4 NSaved=   4.
 NSaved= 4 IEnMin= 4 EnMin= -1651.11288023670     IErMin= 4 ErrMin= 3.66D-03
 ErrMax= 3.66D-03 EMaxC= 1.00D-01 BMatC= 1.87D-02 BMatP= 8.66D-02
 IDIUse=3 WtCom= 9.63D-01 WtEn= 3.66D-02
 Coeff-Com:  0.181D-01 0.142D+00 0.331D+00 0.509D+00
 Coeff-En:   0.000D+00 0.000D+00 0.203D+00 0.797D+00
 Coeff:      0.174D-01 0.137D+00 0.326D+00 0.519D+00
 Gap=     0.190 Goal=   None    Shift=    0.000
 RMSDP=3.46D-04 MaxDP=2.08D-02 DE=-6.27D-02 OVMax= 3.47D-02

 Cycle   5  Pass 0  IDiag  1:
 RMSU=  1.53D-04    CP:  9.69D-01  8.02D-01  7.28D-01  5.62D-01
 E= -1651.12792928481     Delta-E=       -0.015049048108 Rises=F Damp=F
 DIIS: error= 2.37D-03 at cycle   5 NSaved=   5.
 NSaved= 5 IEnMin= 5 EnMin= -1651.12792928481     IErMin= 5 ErrMin= 2.37D-03
 ErrMax= 2.37D-03 EMaxC= 1.00D-01 BMatC= 2.15D-03 BMatP= 1.87D-02
 IDIUse=3 WtCom= 9.76D-01 WtEn= 2.37D-02
 Coeff-Com:  0.298D-02 0.259D-01 0.141D+00 0.336D+00 0.494D+00
 Coeff-En:   0.000D+00 0.000D+00 0.000D+00 0.106D+00 0.894D+00
 Coeff:      0.290D-02 0.253D-01 0.138D+00 0.330D+00 0.504D+00
 Gap=     0.186 Goal=   None    Shift=    0.000
 RMSDP=1.24D-04 MaxDP=7.07D-03 DE=-1.50D-02 OVMax= 1.73D-02

 Cycle   6  Pass 0  IDiag  1:
 RMSU=  4.05D-05    CP:  9.69D-01  8.01D-01  7.43D-01  6.55D-01  5.65D-01
 E= -1651.13016036145     Delta-E=       -0.002231076638 Rises=F Damp=F
 DIIS: error= 7.09D-04 at cycle   6 NSaved=   6.
 NSaved= 6 IEnMin= 6 EnMin= -1651.13016036145     IErMin= 6 ErrMin= 7.09D-04
 ErrMax= 7.09D-04 EMaxC= 1.00D-01 BMatC= 1.69D-04 BMatP= 2.15D-03
 IDIUse=3 WtCom= 9.93D-01 WtEn= 7.09D-03
 Coeff-Com:  0.991D-04-0.315D-02 0.408D-01 0.128D+00 0.285D+00 0.549D+00
 Coeff-En:   0.000D+00 0.000D+00 0.000D+00 0.000D+00 0.727D-02 0.993D+00
 Coeff:      0.984D-04-0.313D-02 0.405D-01 0.127D+00 0.283D+00 0.552D+00
 Gap=     0.186 Goal=   None    Shift=    0.000
 RMSDP=2.94D-05 MaxDP=2.60D-03 DE=-2.23D-03 OVMax= 4.30D-03

 Cycle   7  Pass 0  IDiag  1:
 RMSU=  1.39D-05    CP:  9.69D-01  8.02D-01  7.44D-01  6.48D-01  6.10D-01
                    CP:  6.67D-01
 E= -1651.13032111420     Delta-E=       -0.000160752749 Rises=F Damp=F
 DIIS: error= 2.21D-04 at cycle   7 NSaved=   7.
 NSaved= 7 IEnMin= 7 EnMin= -1651.13032111420     IErMin= 7 ErrMin= 2.21D-04
 ErrMax= 2.21D-04 EMaxC= 1.00D-01 BMatC= 1.84D-05 BMatP= 1.69D-04
 IDIUse=3 WtCom= 9.98D-01 WtEn= 2.21D-03
 Coeff-Com: -0.718D-05-0.413D-02 0.101D-01 0.396D-01 0.110D+00 0.316D+00
 Coeff-Com:  0.528D+00
 Coeff-En:   0.000D+00 0.000D+00 0.000D+00 0.000D+00 0.000D+00 0.404D-01
 Coeff-En:   0.960D+00
 Coeff:     -0.717D-05-0.412D-02 0.101D-01 0.395D-01 0.110D+00 0.315D+00
 Coeff:      0.529D+00
 Gap=     0.186 Goal=   None    Shift=    0.000
 RMSDP=8.65D-06 MaxDP=9.74D-04 DE=-1.61D-04 OVMax= 1.01D-03

 Initial convergence to 1.0D-05 achieved.  Increase integral accuracy.
 Cycle   8  Pass 1  IDiag  1:
 E= -1651.13042162917     Delta-E=       -0.000100514973 Rises=F Damp=F
 DIIS: error= 2.72D-04 at cycle   1 NSaved=   1.
 NSaved= 1 IEnMin= 1 EnMin= -1651.13042162917     IErMin= 1 ErrMin= 2.72D-04
 ErrMax= 2.72D-04 EMaxC= 1.00D-01 BMatC= 1.11D-05 BMatP= 1.11D-05
 IDIUse=3 WtCom= 9.97D-01 WtEn= 2.72D-03
 Coeff-Com:  0.100D+01
 Coeff-En:   0.100D+01
 Coeff:      0.100D+01
 Gap=     0.186 Goal=   None    Shift=    0.000
 RMSDP=8.65D-06 MaxDP=9.74D-04 DE=-1.01D-04 OVMax= 5.86D-04

 Cycle   9  Pass 1  IDiag  1:
 RMSU=  1.00D-04    CP:  1.00D+00
 E= -1651.13043036017     Delta-E=       -0.000008730995 Rises=F Damp=F
 DIIS: error= 7.97D-05 at cycle   2 NSaved=   2.
 NSaved= 2 IEnMin= 2 EnMin= -1651.13043036017     IErMin= 2 ErrMin= 7.97D-05
 ErrMax= 7.97D-05 EMaxC= 1.00D-01 BMatC= 2.55D-06 BMatP= 1.11D-05
 IDIUse=1 WtCom= 1.00D+00 WtEn= 0.00D+00
 Coeff-Com:  0.233D+00 0.767D+00
 Coeff:      0.233D+00 0.767D+00
 Gap=     0.186 Goal=   None    Shift=    0.000
 RMSDP=7.12D-06 MaxDP=5.81D-04 DE=-8.73D-06 OVMax= 7.52D-04

 Cycle  10  Pass 1  IDiag  1:
 RMSU=  4.98D-06    CP:  1.00D+00  1.01D+00
 E= -1651.13042794957     Delta-E=        0.000002410594 Rises=F Damp=F
 DIIS: error= 1.15D-04 at cycle   3 NSaved=   3.
 NSaved= 3 IEnMin= 2 EnMin= -1651.13043036017     IErMin= 2 ErrMin= 7.97D-05
 ErrMax= 1.15D-04 EMaxC= 1.00D-01 BMatC= 5.07D-06 BMatP= 2.55D-06
 IDIUse=3 WtCom= 4.82D-01 WtEn= 5.18D-01
 Coeff-Com:  0.126D-02 0.585D+00 0.413D+00
 Coeff-En:   0.000D+00 0.624D+00 0.376D+00
 Coeff:      0.609D-03 0.606D+00 0.394D+00
 Gap=     0.186 Goal=   None    Shift=    0.000
 RMSDP=4.04D-06 MaxDP=2.89D-04 DE= 2.41D-06 OVMax= 3.94D-04

 Cycle  11  Pass 1  IDiag  1:
 RMSU=  7.20D-07    CP:  1.00D+00  1.01D+00  4.50D-01
 E= -1651.13043275491     Delta-E=       -0.000004805334 Rises=F Damp=F
 DIIS: error= 7.74D-06 at cycle   4 NSaved=   4.
 NSaved= 4 IEnMin= 4 EnMin= -1651.13043275491     IErMin= 4 ErrMin= 7.74D-06
 ErrMax= 7.74D-06 EMaxC= 1.00D-01 BMatC= 9.12D-08 BMatP= 2.55D-06
 IDIUse=1 WtCom= 1.00D+00 WtEn= 0.00D+00
 Coeff-Com: -0.363D-02 0.368D+00 0.242D+00 0.394D+00
 Coeff:     -0.363D-02 0.368D+00 0.242D+00 0.394D+00
 Gap=     0.186 Goal=   None    Shift=    0.000
 RMSDP=6.20D-07 MaxDP=3.89D-05 DE=-4.81D-06 OVMax= 5.62D-05

 Cycle  12  Pass 1  IDiag  1:
 RMSU=  2.05D-07    CP:  1.00D+00  1.01D+00  4.22D-01  4.98D-01
 E= -1651.13043284343     Delta-E=       -0.000000088522 Rises=F Damp=F
 DIIS: error= 1.38D-06 at cycle   5 NSaved=   5.
 NSaved= 5 IEnMin= 5 EnMin= -1651.13043284343     IErMin= 5 ErrMin= 1.38D-06
 ErrMax= 1.38D-06 EMaxC= 1.00D-01 BMatC= 2.71D-09 BMatP= 9.12D-08
 IDIUse=1 WtCom= 1.00D+00 WtEn= 0.00D+00
 Coeff-Com: -0.219D-02 0.190D+00 0.123D+00 0.233D+00 0.456D+00
 Coeff:     -0.219D-02 0.190D+00 0.123D+00 0.233D+00 0.456D+00
 Gap=     0.186 Goal=   None    Shift=    0.000
 RMSDP=1.28D-07 MaxDP=6.96D-06 DE=-8.85D-08 OVMax= 1.15D-05

 Cycle  13  Pass 1  IDiag  1:
 RMSU=  7.26D-08    CP:  1.00D+00  1.01D+00  4.22D-01  5.24D-01  7.54D-01
 E= -1651.13043284583     Delta-E=       -0.000000002397 Rises=F Damp=F
 DIIS: error= 5.96D-07 at cycle   6 NSaved=   6.
 NSaved= 6 IEnMin= 6 EnMin= -1651.13043284583     IErMin= 6 ErrMin= 5.96D-07
 ErrMax= 5.96D-07 EMaxC= 1.00D-01 BMatC= 2.41D-10 BMatP= 2.71D-09
 IDIUse=1 WtCom= 1.00D+00 WtEn= 0.00D+00
 Coeff-Com: -0.843D-03 0.670D-01 0.428D-01 0.885D-01 0.266D+00 0.536D+00
 Coeff:     -0.843D-03 0.670D-01 0.428D-01 0.885D-01 0.266D+00 0.536D+00
 Gap=     0.186 Goal=   None    Shift=    0.000
 RMSDP=3.79D-08 MaxDP=2.97D-06 DE=-2.40D-09 OVMax= 4.21D-06

 Cycle  14  Pass 1  IDiag  1:
 RMSU=  1.91D-08    CP:  1.00D+00  1.01D+00  4.22D-01  5.28D-01  7.89D-01
                    CP:  7.66D-01
 E= -1651.13043284605     Delta-E=       -0.000000000222 Rises=F Damp=F
 DIIS: error= 1.41D-07 at cycle   7 NSaved=   7.
 NSaved= 7 IEnMin= 7 EnMin= -1651.13043284605     IErMin= 7 ErrMin= 1.41D-07
 ErrMax= 1.41D-07 EMaxC= 1.00D-01 BMatC= 2.35D-11 BMatP= 2.41D-10
 IDIUse=1 WtCom= 1.00D+00 WtEn= 0.00D+00
 Coeff-Com: -0.141D-03 0.894D-02 0.537D-02 0.142D-01 0.788D-01 0.286D+00
 Coeff-Com:  0.607D+00
 Coeff:     -0.141D-03 0.894D-02 0.537D-02 0.142D-01 0.788D-01 0.286D+00
 Coeff:      0.607D+00
 Gap=     0.186 Goal=   None    Shift=    0.000
 RMSDP=1.31D-08 MaxDP=6.78D-07 DE=-2.22D-10 OVMax= 1.56D-06

 Cycle  15  Pass 1  IDiag  1:
 RMSU=  6.95D-09    CP:  1.00D+00  1.01D+00  4.22D-01  5.29D-01  8.00D-01
                    CP:  8.06D-01  7.46D-01
 E= -1651.13043284609     Delta-E=       -0.000000000045 Rises=F Damp=F
 DIIS: error= 8.03D-08 at cycle   8 NSaved=   8.
 NSaved= 8 IEnMin= 8 EnMin= -1651.13043284609     IErMin= 8 ErrMin= 8.03D-08
 ErrMax= 8.03D-08 EMaxC= 1.00D-01 BMatC= 4.43D-12 BMatP= 2.35D-11
 IDIUse=1 WtCom= 1.00D+00 WtEn= 0.00D+00
 Coeff-Com:  0.388D-04-0.438D-02-0.305D-02-0.439D-02 0.762D-02 0.926D-01
 Coeff-Com:  0.361D+00 0.550D+00
 Coeff:      0.388D-04-0.438D-02-0.305D-02-0.439D-02 0.762D-02 0.926D-01
 Coeff:      0.361D+00 0.550D+00
 Gap=     0.186 Goal=   None    Shift=    0.000
 RMSDP=5.52D-09 MaxDP=2.33D-07 DE=-4.46D-11 OVMax= 9.11D-07

 SCF Done:  E(RB3LYP) =  -1651.13043285     A.U. after   15 cycles
             Convg  =    0.5520D-08             -V/T =  2.0049
 KE= 1.643124482444D+03 PE=-9.424077067704D+03 EE= 3.347631279283D+03
 Leave Link  502 at Sat Sep  3 12:51:01 2022, MaxMem=  209715200 cpu:    4864.8
 (Enter /opt/gaussian/l601.exe)
 Copying SCF densities to generalized density rwf, IOpCl= 0 IROHF=0.

 **********************************************************************

            Population analysis using the SCF density.

 **********************************************************************

 Orbital symmetries:
       Occupied  (A) (A) (A) (A) (A) (A) (A) (A) (A) (A) (A) (A)
                 (A) (A) (A) (A) (A) (A) (A) (A) (A) (A) (A) (A)
                 (A) (A) (A) (A) (A) (A) (A) (A) (A) (A) (A) (A)
                 (A) (A) (A) (A) (A) (A) (A) (A) (A) (A) (A) (A)
                 (A) (A) (A) (A) (A) (A) (A) (A) (A) (A) (A) (A)
                 (A) (A) (A) (A) (A) (A) (A) (A) (A) (A) (A) (A)
                 (A) (A) (A) (A) (A) (A) (A) (A) (A) (A) (A) (A)
                 (A) (A) (A) (A) (A) (A) (A) (A) (A) (A) (A) (A)
                 (A) (A) (A) (A) (A) (A) (A) (A) (A) (A) (A) (A)
       Virtual   (A) (A) (A) (A) (A) (A) (A) (A) (A) (A) (A) (A)
                 (A) (A) (A) (A) (A) (A) (A) (A) (A) (A) (A) (A)
                 (A) (A) (A) (A) (A) (A) (A) (A) (A) (A) (A) (A)
                 (A) (A) (A) (A) (A) (A) (A) (A) (A) (A) (A) (A)
                 (A) (A) (A) (A) (A) (A) (A) (A) (A) (A) (A) (A)
                 (A) (A) (A) (A) (A) (A) (A) (A) (A) (A) (A) (A)
                 (A) (A) (A) (A) (A) (A) (A) (A) (A) (A) (A) (A)
                 (A) (A) (A) (A) (A) (A) (A) (A) (A) (A) (A) (A)
                 (A) (A) (A) (A) (A) (A) (A) (A) (A) (A) (A) (A)
                 (A) (A) (A) (A) (A) (A) (A) (A) (A) (A) (A) (A)
                 (A) (A) (A) (A) (A) (A) (A) (A) (A) (A) (A) (A)
                 (A) (A) (A) (A) (A) (A) (A) (A) (A) (A) (A) (A)
                 (A) (A) (A) (A) (A) (A) (A) (A) (A) (A) (A) (A)
                 (A) (A) (A) (A) (A) (A) (A) (A) (A) (A) (A) (A)
                 (A) (A) (A) (A) (A) (A) (A) (A) (A) (A) (A) (A)
                 (A) (A) (A) (A) (A) (A) (A) (A) (A) (A) (A) (A)
                 (A) (A) (A) (A) (A) (A) (A) (A) (A) (A) (A) (A)
                 (A) (A) (A) (A) (A) (A) (A) (A) (A) (A) (A) (A)
                 (A) (A) (A) (A) (A) (A) (A) (A) (A) (A) (A) (A)
                 (A) (A) (A) (A) (A) (A) (A) (A) (A) (A) (A) (A)
                 (A) (A) (A) (A) (A) (A) (A) (A) (A) (A) (A) (A)
                 (A) (A) (A) (A) (A) (A) (A) (A) (A) (A) (A) (A)
                 (A) (A) (A) (A) (A) (A) (A) (A) (A) (A) (A) (A)
                 (A) (A) (A) (A) (A) (A) (A) (A) (A) (A) (A) (A)
                 (A) (A) (A) (A) (A) (A) (A) (A) (A) (A) (A) (A)
                 (A) (A) (A) (A) (A) (A) (A) (A) (A) (A) (A) (A)
                 (A) (A) (A) (A) (A) (A) (A) (A) (A) (A) (A) (A)
                 (A) (A) (A) (A) (A) (A) (A) (A) (A) (A) (A) (A)
                 (A) (A) (A) (A) (A) (A) (A) (A) (A) (A) (A) (A)
                 (A) (A) (A) (A) (A) (A) (A) (A) (A) (A) (A) (A)
                 (A) (A) (A) (A) (A) (A) (A) (A) (A) (A) (A) (A)
                 (A) (A) (A) (A) (A) (A) (A) (A) (A) (A) (A) (A)
                 (A) (A) (A) (A) (A) (A) (A) (A) (A) (A) (A) (A)
                 (A) (A) (A) (A) (A) (A) (A) (A) (A) (A)
 The electronic state is 1-A.
 Alpha  occ. eigenvalues --  -88.92136 -19.11771 -14.40674 -14.40493 -14.38466
 Alpha  occ. eigenvalues --  -14.38129 -14.34586 -14.34200 -10.29999 -10.25465
 Alpha  occ. eigenvalues --  -10.24938 -10.23463 -10.23241 -10.22912 -10.22543
 Alpha  occ. eigenvalues --  -10.22464 -10.21910 -10.20935 -10.20420 -10.20333
 Alpha  occ. eigenvalues --  -10.20332 -10.19650 -10.19618 -10.19409 -10.19281
 Alpha  occ. eigenvalues --  -10.19262 -10.19149 -10.19098 -10.18986 -10.18686
 Alpha  occ. eigenvalues --   -7.98204  -5.94555  -5.94189  -5.93799  -1.09859
 Alpha  occ. eigenvalues --   -1.05449  -1.05285  -0.96435  -0.92584  -0.89248
 Alpha  occ. eigenvalues --   -0.87091  -0.86743  -0.83040  -0.80836  -0.78409
 Alpha  occ. eigenvalues --   -0.78083  -0.76991  -0.76064  -0.75285  -0.74906
 Alpha  occ. eigenvalues --   -0.73629  -0.70404  -0.65874  -0.64794  -0.63013
 Alpha  occ. eigenvalues --   -0.62408  -0.61453  -0.60512  -0.59380  -0.58553
 Alpha  occ. eigenvalues --   -0.57035  -0.56111  -0.55455  -0.54017  -0.52863
 Alpha  occ. eigenvalues --   -0.52476  -0.52075  -0.50989  -0.48126  -0.47821
 Alpha  occ. eigenvalues --   -0.46817  -0.46604  -0.46392  -0.45603  -0.45251
 Alpha  occ. eigenvalues --   -0.44741  -0.44497  -0.44256  -0.43620  -0.43266
 Alpha  occ. eigenvalues --   -0.42946  -0.42112  -0.41134  -0.40673  -0.39924
 Alpha  occ. eigenvalues --   -0.38871  -0.38490  -0.37797  -0.37513  -0.37412
 Alpha  occ. eigenvalues --   -0.36522  -0.35877  -0.35615  -0.35497  -0.33023
 Alpha  occ. eigenvalues --   -0.30929  -0.30502  -0.28865  -0.27227  -0.26781
 Alpha  occ. eigenvalues --   -0.26592  -0.26372  -0.26007  -0.25832  -0.25717
 Alpha  occ. eigenvalues --   -0.24844  -0.23251  -0.22091
[...]
 818,-0.00012035,-0.00007753,-0.00009387,-0.00003337,-0.00001660,-0.000
 00904,0.00001921,0.00000376,0.00000386,-0.00000519,-0.00001080,-0.0000
 1502,-0.00000466,0.00001047,0.00001634,0.00000889,-0.00001059,-0.00000
 035,-0.00003315,0.00008064,0.00001380,0.00012338,-0.00068610,0.0021659
 8,-0.00099725,0.00003538,-0.00029278,-0.00025302,-0.00000138,0.0001017
 9,0.00006726,-0.00000013,0.00003176,-0.00004398,-0.00000172,0.00001458
 ,0.00001117,-0.00001354,0.00003168,-0.00003093,0.00006343,0.00002191,-
 0.00001045,-0.02050008,-0.01436068,0.00998531,0.00357555,-0.00428182,0
 .00102029,0.00082694,-0.00014061,-0.00030972,0.00277132,0.00082002,0.0
 0053706,0.00737774,0.00953411,-0.00351571,-0.12792761,-0.20429963,0.07
 348941,0.00022828,0.00040469,-0.00011696,0.00012598,-0.00007284,-0.000
 07854,0.00001384,0.00003172,0.00001983,0.00001049,-0.00001590,-0.00001
 114,-0.00001749,0.00000838,0.00002286,-0.00011076,0.00002068,0.0000387
 9,-0.00002864,-0.00001667,-0.00002258,-0.00000673,-0.00000235,0.000000
 60,-0.00000539,-0.00000322,-0.00000485,-0.00000198,0.00000087,-0.00000
 704,0.00000405,-0.00001473,0.00002092,0.00003020,-0.00000486,-0.000005
 05,-0.00000227,0.00005163,0.00010526,-0.00000442,-0.00000841,0.0000009
 0,-0.00000707,0.00000263,-0.00000403,-0.00005320,-0.00003222,0.0000073
 8,-0.00105613,-0.00079328,0.00052786,-0.00012701,-0.00000301,-0.000147
 17,-0.00038809,0.00072504,-0.00095381,0.13654183,0.21084120,0.00042615
 ,-0.00201100,-0.00050477,0.00045520,0.00367846,0.00178177,-0.00011965,
 -0.00041054,0.00000417,0.00000694,-0.00000830,0.00001577,-0.00007885,-
 0.00005138,0.00003294,0.00004186,0.00004722,0.00001612,-0.00000181,-0.
 00001568,-0.00001492,0.00000826,0.00000246,0.00001540,0.00000873,0.000
 00731,-0.00001669,-0.00001031,-0.00002419,-0.00002160,0.00001075,-0.00
 001204,0.00002179,-0.00005035,0.00001144,-0.00003772,-0.00284323,-0.00
 102140,-0.00378612,0.00014450,0.00004192,-0.00010519,-0.00001558,0.000
 00219,-0.00005426,0.00000081,-0.00001244,0.00001432,0.00000051,-0.0000
 0718,-0.00000806,0.00000399,0.00000230,0.00000253,-0.00003720,0.000018
 50,0.00000974,0.00272079,0.00109948,0.00299030,0.00112267,0.00154280,0
 .00505465,-0.00051652,-0.00034897,-0.00066081,0.00263603,0.00037168,0.
 00691065,0.00386688,0.00610906,0.00116837,0.06699524,0.07077679,-0.070
 84970,0.00023718,0.00034770,0.00007219,-0.00005691,-0.00008923,-0.0001
 7316,0.00011950,-0.00004391,-0.00002052,0.00005834,0.00001507,-0.00000
 620,-0.00001596,0.00003128,-0.00001254,0.00005342,-0.00001632,0.000001
 37,0.00007362,-0.00001511,-0.00003613,0.00000150,0.00000239,0.00000058
 ,0.00000043,0.00000435,0.00000128,-0.00000407,0.00000233,-0.00000034,-
 0.00000821,0.00002832,-0.00001603,0.00003660,-0.00011873,-0.00000975,0
 .00001668,-0.00007377,-0.00000996,0.00000327,0.00000101,-0.00000169,0.
 00000094,-0.00000075,0.00000024,0.00001449,0.00001439,0.00000670,0.000
 16414,0.00008615,0.00033707,-0.00022612,-0.00014742,-0.00079678,-0.001
 45532,-0.00118261,-0.00386691,-0.07380731,-0.07861888,0.06253319,0.000
 04317,0.00004441,0.00001844,-0.00008591,-0.00007875,-0.00002930,-0.000
 01376,-0.00001762,-0.00000165,0.00002189,0.00001377,-0.00000856,-0.000
 01278,-0.00001690,0.00002399,0.00001682,0.00001615,0.00000591,0.000002
 07,0.00000241,-0.00000601,-0.00000087,-0.00000098,0.00000105,0.0000015
 2,0.00000162,-0.00000058,-0.00000209,-0.00000241,-0.00000229,-0.000000
 37,-0.00000140,0.00000618,-0.00000913,-0.00000111,-0.00002060,0.000118
 00,0.00004885,-0.00001839,-0.00001210,0.00002045,0.00000011,0.00000260
 ,0.00000679,0.00000393,0.00000336,-0.00000006,0.00001053,0.00000629,-0
 .00000824,-0.00000386,-0.00000167,-0.00000178,0.00000022,0.00001216,0.
 00000603,-0.00001215,-0.00004861,0.00009827,-0.00000668,-0.00001780,0.
 00036023,-0.00000461,-0.00031766,-0.00039773,0.00030916,0.00111789,0.0
 0043382,-0.00062448,-0.00022207,-0.00002684,0.00016638,0.00011942,-0.0
 0001768,-0.00000938,0.00895102,-0.01786122,-0.00526302,-0.06334253,-0.
 04816323,-0.00337645,0.00927530,0.02882815,0.00375671,-0.00443695,0.00
 263644,0.00223152,-0.00518341,-0.00381394,0.00100260,0.00000062,-0.000
 00046,0.00000362,0.00000409,0.00000194,-0.00000151,0.00000092,0.000000
 80,-0.00000038,0.00000130,0.00000096,0.00000129,-0.00000046,-0.0000005
 2,0.00000089,-0.00000073,0.00000158,-0.00000298,0.00000834,-0.00000416
 ,-0.00000321,-0.00000244,-0.00000085,0.00001381,-0.00000300,0.00000071
 ,-0.00000039,-0.00000136,-0.00000051,-0.00000024,-0.00001029,-0.000003
 90,-0.00000451,-0.00004799,-0.00000473,-0.00000346,-0.00090322,0.00041
 785,-0.00039582,0.00006074,0.00007391,-0.00005280,-0.00001330,0.000002
 41,-0.00000955,0.05360462,0.00001348,0.00002150,0.00000721,-0.00003355
 ,-0.00003588,-0.00001369,-0.00000386,-0.00000529,0.00000092,0.00000653
 ,0.00000339,-0.00000183,-0.00000223,-0.00000399,0.00000732,0.00000389,
 0.00000396,0.00000146,0.00000073,0.00000083,-0.00000148,-0.00000049,-0
 .00000031,-0.00000019,0.00000026,0.00000054,0.00000052,-0.00000043,-0.
 00000033,-0.00000047,0.00000011,0.,0.00000132,-0.00000340,-0.00000089,
 -0.00000650,0.00005944,0.00000942,-0.00001592,-0.00000099,0.00001792,-
 0.00000247,-0.00000117,0.00000369,0.00000013,0.00000010,-0.00000140,0.
 00000358,0.00000030,-0.00000561,-0.00000175,0.00000170,-0.00000222,0.0
 0000274,0.,0.00000181,-0.00000333,-0.00000467,0.00010585,-0.00004230,-
 0.00005033,0.00019483,0.00001518,0.00010989,-0.00023681,0.00035026,0.0
 0080601,-0.00040330,0.00026621,-0.00037895,-0.00003286,0.00006624,0.00
 011424,-0.00012465,0.00000763,0.00419219,-0.00377215,-0.00176268,-0.03
 918464,-0.33959286,-0.06121356,-0.00621458,-0.01156192,-0.00048409,0.0
 0121322,0.00053272,-0.00142528,-0.00064092,-0.00128265,-0.00107251,-0.
 00000023,0.00000027,0.00000081,0.00000267,0.00000079,-0.00000058,0.000
 00030,0.00000012,-0.00000012,0.00000053,0.00000019,0.00000037,0.000000
 20,-0.00000023,0.00000058,-0.00000029,0.00000020,-0.00000101,0.0000017
 3,-0.00000408,-0.00000157,0.00000039,0.00000128,0.00000171,0.00000046,
 0.00000082,-0.00000046,0.00000097,-0.00000011,-0.00000012,-0.00000168,
 -0.00000019,-0.00000235,-0.00000352,0.00000231,0.00001368,0.00045068,0
 .00032991,-0.00018397,0.00002048,0.00003181,-0.00002396,-0.00001199,0.
 00000227,0.00000205,0.03904134,0.35613587,-0.00000541,-0.00001702,-0.0
 0000991,0.00003088,0.00001494,0.00000726,0.00000417,0.00000753,0.00000
 152,-0.00000030,-0.00000084,-0.00000299,-0.00000436,-0.00000185,-0.000
 00416,0.00000112,0.00000213,0.00000038,-0.00000060,-0.00000116,-0.0000
 0116,0.00000120,0.00000103,0.00000205,0.00000047,0.00000047,-0.0000026
 8,-0.00000089,-0.00000108,0.00000047,-0.00000142,-0.00000168,0.0000011
 5,0.00000406,0.00000189,0.00000433,-0.00001549,0.00005381,0.00003360,0
 .00000251,-0.00001068,0.00001699,0.00000390,-0.00000857,0.00000229,-0.
 00000269,0.00000496,-0.00000643,0.00000249,0.00000253,0.00000934,-0.00
 000586,0.00000769,-0.00001087,0.00000871,-0.00000235,0.00000162,-0.000
 00644,-0.00031746,0.00002542,0.00029843,0.00017603,-0.00034743,-0.0004
 1667,-0.00045327,0.00014009,-0.00109016,0.00036724,-0.00191311,0.00042
 467,0.00010820,-0.00016651,-0.00019709,0.00024759,0.00004519,0.0003197
 7,0.00253808,0.00154288,-0.00164135,-0.06070544,-0.03713235,-0.0039143
 8,-0.00589641,-0.00452644,0.00181253,-0.00197372,0.00573780,0.00185396
 ,-0.00045791,0.00386685,0.00000109,-0.00000071,0.00000008,-0.00000365,
 -0.00000095,0.00000099,0.00000022,0.00000003,0.00000004,-0.00000041,-0
 .00000019,-0.00000009,-0.00000101,-0.00000006,-0.00000135,0.00000041,0
 .00000077,0.00000146,0.00000438,0.00000573,0.00000122,-0.00000345,0.00
 000339,0.00000593,0.00000126,-0.00000169,-0.00000226,-0.00000083,-0.00
 000036,-0.00000010,-0.00000683,-0.00000416,0.00000499,-0.00001191,0.00
 000619,0.00002302,-0.00015679,0.00039016,0.00039470,0.00002204,0.00001
 926,-0.00002758,0.00000303,0.00000417,0.00000384,0.00293075,0.06548946
 ,0.03289318,0.00003441,-0.00001369,-0.00000155,-0.00004306,-0.00000459
 ,0.00000898,-0.00000901,-0.00001018,-0.00000835,0.00001335,0.00000716,
 -0.00000651,-0.00000855,-0.00001214,0.00001404,0.00001122,0.00001021,0
 .00000390,0.00000078,0.00000114,-0.00000380,-0.00000060,-0.00000122,0.
 00000125,0.00000109,0.00000009,-0.00000139,-0.00000097,-0.00000281,-0.
 00000246,0.00000141,-0.00000185,0.00000386,-0.00000613,0.00000051,-0.0
 0001125,0.00007090,-0.00000904,0.00000446,-0.00000072,0.00002998,0.000
 01372,-0.00000171,-0.00000043,-0.00000052,0.00000106,-0.00000147,0.000
 00746,0.00000289,-0.00000823,-0.00000226,0.00000072,-0.00000145,0.0000
 0056,0.00000228,0.00000362,-0.00000609,-0.00010882,-0.00013609,0.00002
 452,0.00014905,-0.00002026,-0.00004968,-0.00018745,0.00015366,-0.00013
 774,0.00050212,-0.00065900,-0.00038508,-0.00009562,0.00001218,0.000162
 91,-0.00019822,0.00000770,-0.00007575,0.00994823,0.00969145,0.00067733
 ,-0.00243797,0.00332226,0.00168296,-0.00681357,-0.00205157,0.00205387,
 -0.01231441,-0.02725848,-0.00482420,-0.12324817,-0.12071092,-0.0101052
 3,0.00000293,-0.00000053,0.00000094,0.00000445,0.00000149,0.00000001,0
 .00000030,0.00000081,-0.00000032,0.00000042,0.00000099,0.00000090,-0.0
 0000121,0.00000034,0.00000016,-0.00000131,0.00000324,-0.00000176,0.000
 00766,-0.00000406,-0.00000126,-0.00000212,0.00000103,0.00000628,-0.000
 00027,0.00000051,-0.00000094,0.00000016,-0.00000060,-0.00000022,-0.000
 00442,0.00000095,-0.00000302,0.00000552,0.00000145,0.00001695,0.000016
 01,-0.00005001,0.00000849,-0.00062628,0.00040461,0.00067493,-0.0000094
 6,0.00001355,0.00002798,0.00100706,0.00019473,0.00003332,0.13415475,-0
 .00004275,0.00003794,0.00000963,0.00003206,-0.00004492,-0.00001518,0.0
 0000599,0.00000906,0.00000769,-0.00001049,-0.00000538,0.00000537,0.000
 00768,0.00001050,-0.00001068,-0.00000950,-0.00000893,-0.00000312,-0.00
 000073,-0.00000083,0.00000300,0.00000035,0.00000074,-0.00000121,-0.000
 00078,-0.00000010,0.00000146,0.00000082,0.00000255,0.00000155,-0.00000
 097,0.00000214,-0.00000351,0.00000463,-0.00000082,0.00000832,-0.000020
 88,0.00005423,-0.00000437,-0.00000647,-0.00002210,-0.00001963,0.000001
 93,0.00000230,0.00000143,-0.00000045,0.00000251,-0.00000622,-0.0000020
 0,0.00000807,0.00000181,-0.00000103,0.00000048,-0.00000065,-0.00000102
 ,-0.00000347,0.00000503,0.00004617,0.00012166,-0.00007370,-0.00020908,
 0.00003438,0.00011262,0.00050768,-0.00031179,-0.00006584,-0.00129898,0
 .00048148,0.00061039,0.00006416,-0.00056183,0.00044750,0.00027003,0.00
 029132,-0.00003963,-0.01414499,-0.00875961,0.00016920,0.00192890,-0.00
 391503,-0.00183156,0.00189728,0.00289886,-0.00130878,0.00023136,0.0036
 3434,0.00231780,-0.12727847,-0.27869485,-0.03082184,-0.00000183,-0.000
 00006,-0.00000074,-0.00000326,-0.00000118,-0.00000032,-0.00000040,-0.0
 0000063,0.00000039,-0.00000033,-0.00000077,-0.00000079,0.00000141,-0.0
 0000031,0.00000026,0.00000117,-0.00000330,0.00000100,-0.00000568,0.000
 00221,0.00000019,0.00000243,-0.00000198,-0.00000643,-0.00000031,-0.000
 00051,0.00000129,-0.00000074,0.00000071,0.00000039,0.00000477,-0.00000
 147,0.00000138,0.00001624,-0.00000869,-0.00001594,-0.00002170,0.000099
 85,-0.00004155,0.00012869,0.00056566,-0.00047665,0.00003503,-0.0000101
 9,0.00000271,-0.00109726,-0.00016430,0.00000236,0.13885285,0.28375416,
 -0.00002765,-0.00000377,-0.00002057,0.00004747,0.00001533,0.00000831,0
 .00000936,0.00000753,0.00000686,-0.00001004,-0.00000561,0.00000059,-0.
 00000248,0.00000402,-0.00001499,-0.00000467,-0.00000290,-0.00000117,-0
 .00000147,-0.00000241,0.00000129,0.00000209,0.00000168,0.00000269,0.00
 000022,-0.00000020,-0.00000360,-0.00000037,-0.00000122,0.00000130,-0.0
 0000070,-0.00000170,-0.00000093,0.00000900,0.00000315,0.00001372,-0.00
 001654,0.00006053,0.00001826,-0.00001175,-0.00002469,0.00000592,0.0000
 0201,-0.00000544,0.00000289,-0.00000140,0.00000271,-0.00000965,-0.0000
 0097,0.00000623,0.00000526,-0.00000305,0.00000540,-0.00000517,-0.00000
 018,-0.00000165,0.00000500,-0.00007637,-0.00021932,0.00005174,0.000188
 24,0.00006797,-0.00007560,-0.00013247,0.00023144,0.00002655,-0.0000484
 8,0.00023245,-0.00156853,0.00018920,-0.00067962,0.00004142,-0.00015269
 ,0.00039977,-0.00017259,-0.00473310,-0.00302040,0.00146290,0.00131083,
 -0.00194891,0.00325342,0.00279761,-0.00099599,0.00630190,0.00161489,0.
 00733262,-0.00615514,-0.01210836,-0.03280970,-0.03515419,-0.00000026,-
 0.00000101,-0.00000091,-0.00000402,-0.00000113,0.00000047,0.00000002,-
 0.00000021,0.00000031,-0.00000133,-0.00000044,-0.00000058,-0.00000146,
 0.00000082,-0.00000228,0.00000049,0.00000118,0.00000283,-0.00000117,0.
 00000851,0.00000335,-0.00000232,0.00000012,-0.00000150,0.00000033,-0.0
 0000144,-0.00000058,-0.00000042,0.00000010,-0.00000042,0.00000056,0.,0
 .00000644,0.00000877,0.00000432,-0.00000573,-0.00002019,0.00006740,-0.
 00001791,0.00078722,0.00004590,-0.00013350,0.00002892,-0.00001532,-0.0
 0000053,-0.00021752,-0.00022816,0.00089128,0.01015391,0.03145713,0.029
 03770,0.00008699,0.00009475,0.00004414,-0.00020946,-0.00020352,-0.0000
 2770,-0.00003556,-0.00003253,-0.00001731,0.00004865,0.00002669,-0.0000
 2114,-0.00002622,-0.00003864,0.00005165,0.00003731,0.00003502,0.000012
 55,0.00000430,0.00000497,-0.00001273,-0.00000221,-0.00000330,0.0000024
 8,0.00000368,0.00000191,-0.00000170,-0.00000342,-0.00000673,-0.0000055
 4,0.00000178,-0.00000400,0.00001312,-0.00002216,-0.00000165,-0.0000440
 5,0.00031852,-0.00000341,-0.00004873,0.00000829,0.00011461,0.00000175,
 -0.00000386,0.00000949,-0.00000195,0.00000454,-0.00000474,0.00002528,0
 .00000989,-0.00002450,-0.00000762,0.00000171,-0.00000708,0.00000474,0.
 00001030,0.00001069,-0.00002125,-0.00014990,-0.00004745,0.00006964,0.0
 0008900,0.00008031,-0.00003760,0.00011274,-0.00010916,0.00001706,-0.00
 037742,-0.00081872,0.00031184,-0.00007383,0.00020246,-0.00009624,-0.00
 010898,-0.00009021,0.00005616,-0.00062912,0.00470133,0.00161743,-0.009
 51173,-0.01143681,-0.00196932,-0.42896312,-0.09349435,0.05211795,-0.00
 261602,-0.00173624,-0.00188274,0.00371020,-0.00163136,-0.00036860,0.00
 000622,-0.00000189,0.00000431,0.00001441,0.00000591,-0.00000084,0.0000
 0131,0.00000229,-0.00000097,0.00000190,0.00000269,0.00000285,-0.000002
 22,0.00000011,0.00000158,-0.00000310,0.00000652,-0.00000652,0.00002515
 ,-0.00002644,-0.00001229,-0.00000473,0.00000324,0.00001949,-0.00000223
 ,0.00000276,-0.00000238,0.00000005,-0.00000180,-0.00000045,-0.00001497
 ,0.00000046,-0.00001070,0.00000433,-0.00001849,-0.00000063,-0.00000227
 ,0.00002398,-0.00000656,-0.00004579,-0.00001427,0.00000335,-0.00001186
 ,0.00001611,-0.00000039,0.00031126,0.00030126,-0.00027740,0.00018128,0
 .00011854,0.00043031,0.43782635,0.00004634,0.00004462,0.00002812,-0.00
 010364,-0.00010369,-0.00001377,-0.00001553,-0.00001178,-0.00000850,0.0
 0002157,0.00000973,-0.00000840,-0.00000858,-0.00001557,0.00002277,0.00
 001463,0.00001387,0.00000490,0.00000218,0.00000242,-0.00000492,-0.0000
 0116,-0.00000159,0.00000020,0.00000171,0.00000079,0.00000068,-0.000000
 98,-0.00000247,-0.00000258,0.00000166,-0.00000100,0.00000494,-0.000011
 75,-0.00000180,-0.00002060,0.00017059,-0.00001478,-0.00002661,0.000009
 51,0.00007472,0.00000026,-0.00000567,0.00000625,-0.00000259,0.00000106
 ,-0.00000391,0.00001605,0.00000200,-0.00001747,-0.00000611,0.00000484,
 -0.00000565,0.00000559,-0.00000008,0.00000494,-0.00001191,-0.00010152,
 0.00003538,0.00002038,0.00000731,-0.00000096,0.00001244,0.00003294,0.0
 0007688,-0.00006438,0.00008800,0.00137968,-0.00021957,0.00039763,-0.00
 033367,-0.00001103,0.00007934,0.00010750,-0.00002114,0.00480212,-0.002
 87203,-0.00204457,0.01704674,0.01392941,0.00158070,-0.08785542,-0.0895
 2010,-0.00260186,-0.03453721,-0.00371333,0.00755193,-0.00182785,-0.009
 51797,-0.00250800,0.00000350,-0.00000037,0.00000114,0.00000880,0.00000
 289,-0.00000022,0.00000034,0.00000093,-0.00000023,0.00000072,0.0000011
 5,0.00000098,-0.00000033,0.00000031,0.00000135,-0.00000176,0.00000259,
 -0.00000344,0.00001352,-0.00001644,-0.00000604,-0.00000208,0.00000192,
 0.00000960,0.00000120,0.00000221,-0.00000134,0.00000241,-0.00000066,-0
 .00000014,-0.00000458,0.00000234,-0.00000819,0.00001853,-0.00001462,-0
 .00000301,-0.00003111,-0.00000881,0.00000645,-0.00000336,0.00004070,-0
 .00004845,0.00003681,-0.00001376,-0.00001951,-0.00053663,-0.00017030,0
 .00040194,-0.00175791,0.00050783,0.00001492,0.10399117,0.09011372,-0.0
 0001691,0.00003501,0.00000026,-0.00002240,-0.00006943,-0.00000595,-0.0
 0000206,0.00000035,-0.00000077,0.00000327,0.00000114,-0.00000527,-0.00
 000762,-0.00000590,0.00000008,0.00000475,0.00000538,0.00000182,-0.0000
 0029,-0.00000033,-0.00000216,0.00000130,0.00000089,0.00000259,0.000001
 02,0.00000110,-0.00000314,-0.00000163,-0.00000201,0.00000056,-0.000000
 84,-0.00000155,0.00000197,0.00000177,0.00000177,-0.00000019,0.00008390
 ,0.00001440,0.00000486,0.00000635,0.00002035,0.00000663,-0.00000075,-0
 .00000541,-0.00000353,-0.00000227,0.00000313,-0.00000260,0.00000144,-0
 .00000003,0.00000683,-0.00000295,0.00000289,-0.00000579,0.00000251,-0.
 00000201,0.00000175,-0.00001193,-0.00007835,0.00003821,0.00004619,0.00
 005180,-0.00007678,0.00002968,0.00000084,-0.00008944,0.00030871,-0.000
 19118,0.00200203,-0.00009131,-0.00003850,-0.00000720,-0.00018446,-0.00
 002344,-0.00022147,0.00177958,-0.00215075,0.00257936,0.00377425,0.0062
 7453,-0.00683528,0.05319466,-0.00196779,-0.01213679,-0.00829151,0.0023
 5946,-0.01047743,-0.00037861,-0.00217473,0.00406970,0.00000276,-0.0000
 0155,-0.00000048,0.00000063,0.00000085,0.00000039,0.00000043,0.0000002
 2,0.00000020,-0.00000038,-0.00000011,0.00000014,-0.00000091,0.00000012
 ,-0.00000128,0.00000023,0.00000134,0.00000081,0.00000782,-0.00000339,-
 0.00000277,-0.00000378,0.00000114,0.00000316,0.00000125,-0.00000054,-0
 .00000167,0.00000018,-0.00000022,0.00000031,-0.00000212,-0.00000055,0.
 00000257,-0.00000183,-0.00000054,0.00000351,0.00000526,0.00001774,0.00
 006731,0.00005157,0.00010463,0.00006856,0.00000048,0.00000804,0.000015
 40,-0.00040673,0.00025098,-0.00150451,0.00004568,-0.00042159,0.0021936
 7,-0.04992435,-0.00201823,0.02031188\\-0.00000039,-0.00001139,-0.00000
 943,-0.00000146,0.00002165,0.00001004,0.00001540,-0.00000815,0.0000050
 3,-0.00000891,-0.00000910,0.00001827,0.00001166,0.00002158,-0.00000893
 ,-0.00000585,-0.00001317,0.00000433,0.00000583,0.00000717,0.00000430,-
 0.00000190,0.00000048,-0.00000478,-0.00000276,-0.00000377,0.00000897,0
 .00000474,0.00000357,0.00000389,-0.00000422,-0.00000010,-0.00000322,-0
 .00000533,-0.00000601,-0.00000317,-0.00000202,-0.00000418,0.00000030,0
 .00000097,-0.00000258,-0.00000323,0.00000276,-0.00000444,-0.00001859,-
 0.00000227,0.00000948,-0.00000878,0.00000304,-0.00001202,0.00000571,0.
 00000192,0.00000155,-0.00000793,-0.00000407,0.00000199,0.00001717,-0.0
 0000143,0.00000050,0.00000055,-0.00000335,-0.00000161,0.00000017,0.000
 00225,-0.00000273,-0.00000018,0.00000161,0.00000114,-0.00000257,0.0000
 0302,0.00000227,-0.00000077,-0.00000034,0.00000234,0.00000099,-0.00000
 092,0.00001093,-0.00000516,-0.00000567,-0.00000242,0.00001208,-0.00001
 522,-0.00000775,-0.00001064,0.00000470,-0.00001091,0.00000432,0.000013
 94,0.00000492,0.00000196,-0.00000396,0.00000458,0.00000156,0.00000019,
 0.00000412,-0.00000482,-0.00000236,-0.00000268,0.00000484,-0.00000205,
 -0.00000266,-0.00000047,-0.00000105,-0.00000203,-0.00000208,0.00000330
 ,0.00000002,0.00000059,-0.00000218,0.00000121,0.00000125,0.00000293,0.
 00000283,-0.00000042,-0.00000033,0.00000504,0.00000077,-0.00000208,0.0
 0000437,-0.00000244,0.00000113,-0.00000388,-0.00000458,-0.00000012,0.0
 0000391,-0.00000256,0.00000080,0.00000296,-0.00000296,0.,-0.00000359,0
 .00000191,-0.00000197,-0.00000248,0.00000137,-0.00000147,0.00000430,0.
 00000095,-0.00000061,-0.00000410,0.00000002,0.00000411,-0.00000118,-0.
 00000364\\\@


 THE REAL VOYAGE OF DISCOVERY CONSISTS NOT IN SEEKING NEW LANDSCAPES 
 BUT IN HAVING NEW EYES.
                                                    -- MARCEL PROUST
 Job cpu time:  0 days 17 hours 32 minutes 40.4 seconds.
 File lengths (MBytes):  RWF=   1502 Int=      0 D2E=      0 Chk=     22 Scr=      1
 Normal termination of Gaussian 09 at Sat Sep  3 18:26:06 2022.
