 Entering Gaussian System, Link 0=g09
 Input=Mol17.gjf
 Output=Mol17.log
 Initial command:
 /opt/gaussian/l1.exe /home/scr/lqcapf-6/Gau-160908.inp -scrdir=/home/scr/lqcapf-6/
 Entering Link 1 = /opt/gaussian/l1.exe PID=    160910.
  
 Copyright (c) 1988,1990,1992,1993,1995,1998,2003,2009,2011,
            Gaussian, Inc.  All Rights Reserved.
  
 This is part of the Gaussian(R) 09 program.  It is based on
 the Gaussian(R) 03 system (copyright 2003, Gaussian, Inc.),
 the Gaussian(R) 98 system (copyright 1998, Gaussian, Inc.),
 the Gaussian(R) 94 system (copyright 1995, Gaussian, Inc.),
 the Gaussian 92(TM) system (copyright 1992, Gaussian, Inc.),
 the Gaussian 90(TM) system (copyright 1990, Gaussian, Inc.),
 the Gaussian 88(TM) system (copyright 1988, Gaussian, Inc.),
 the Gaussian 86(TM) system (copyright 1986, Carnegie Mellon
 University), and the Gaussian 82(TM) system (copyright 1983,
 Carnegie Mellon University). Gaussian is a federally registered
 trademark of Gaussian, Inc.
  
 This software contains proprietary and confidential information,
 including trade secrets, belonging to Gaussian, Inc.
  
 This software is provided under written license and may be
 used, copied, transmitted, or stored only in accord with that
 written license.
  
 The following legend is applicable only to US Government
 contracts under FAR:
  
                    RESTRICTED RIGHTS LEGEND
  
 Use, reproduction and disclosure by the US Government is
 subject to restrictions as set forth in subparagraphs (a)
 and (c) of the Commercial Computer Software - Restricted
 Rights clause in FAR 52.227-19.
  
 Gaussian, Inc.
 340 Quinnipiac St., Bldg. 40, Wallingford CT 06492
  
  
 ---------------------------------------------------------------
 Warning -- This program may not be used in any manner that
 competes with the business of Gaussian, Inc. or will provide
 assistance to any competitor of Gaussian, Inc.  The licensee
 of this program is prohibited from giving any competitor of
 Gaussian, Inc. access to this program.  By using this program,
 the user acknowledges that Gaussian, Inc. is engaged in the
 business of creating and licensing software in the field of
 computational chemistry and represents and warrants to the
 licensee that it is not a competitor of Gaussian, Inc. and that
 it will not use this program in any manner prohibited above.
 ---------------------------------------------------------------
  

 Cite this work as:
 Gaussian 09, Revision C.01,
 M. J. Frisch, G. W. Trucks, H. B. Schlegel, G. E. Scuseria, 
 M. A. Robb, J. R. Cheeseman, G. Scalmani, V. Barone, B. Mennucci, 
 G. A. Petersson, H. Nakatsuji, M. Caricato, X. Li, H. P. Hratchian, 
 A. F. Izmaylov, J. Bloino, G. Zheng, J. L. Sonnenberg, M. Hada, 
 M. Ehara, K. Toyota, R. Fukuda, J. Hasegawa, M. Ishida, T. Nakajima, 
 Y. Honda, O. Kitao, H. Nakai, T. Vreven, J. A. Montgomery, Jr., 
 J. E. Peralta, F. Ogliaro, M. Bearpark, J. J. Heyd, E. Brothers, 
 K. N. Kudin, V. N. Staroverov, T. Keith, R. Kobayashi, J. Normand, 
 K. Raghavachari, A. Rendell, J. C. Burant, S. S. Iyengar, J. Tomasi, 
 M. Cossi, N. Rega, J. M. Millam, M. Klene, J. E. Knox, J. B. Cross, 
 V. Bakken, C. Adamo, J. Jaramillo, R. Gomperts, R. E. Stratmann, 
 O. Yazyev, A. J. Austin, R. Cammi, C. Pomelli, J. W. Ochterski, 
 R. L. Martin, K. Morokuma, V. G. Zakrzewski, G. A. Voth, 
 P. Salvador, J. J. Dannenberg, S. Dapprich, A. D. Daniels, 
 O. Farkas, J. B. Foresman, J. V. Ortiz, J. Cioslowski, 
 and D. J. Fox, Gaussian, Inc., Wallingford CT, 2010.
 
 ******************************************
 Gaussian 09:  EM64L-G09RevC.01 23-Sep-2011
                 3-Sep-2022 
 ******************************************
 %nprocshared=8
 Will use up to    8 processors via shared memory.
 %mem=1600MB
 -------------------------
 #p opt freq b3lyp/cc-pvdz
 -------------------------
 1/14=-1,18=20,19=15,26=3,38=1/1,3;
 2/9=110,12=2,17=6,18=5,40=1/2;
 3/5=16,11=2,16=1,25=1,30=1,71=1,74=-5/1,2,3;
 4//1;
 5/5=2,38=5/2;
 6/7=2,8=2,9=2,10=2,28=1/1;
 7//1,2,3,16;
 1/14=-1,18=20,19=15/3(2);
 2/9=110/2;
 99//99;
 2/9=110/2;
 3/5=16,11=2,16=1,25=1,30=1,71=1,74=-5/1,2,3;
 4/5=5,16=3/1;
 5/5=2,38=5/2;
 7//1,2,3,16;
 1/14=-1,18=20,19=15/3(-5);
 2/9=110/2;
 6/7=2,8=2,9=2,10=2,19=2,28=1/1;
 99/9=1/99;
 Leave Link    1 at Sat Sep  3 00:11:34 2022, MaxMem=  209715200 cpu:       0.2
 (Enter /opt/gaussian/l101.exe)
 ---------
 Mol17.log
 ---------
 Charge =  0 Multiplicity = 1
 Symbolic Z-Matrix:
 S                    -1.48913   5.35109  -0.14296 
 C                     0.25307   4.98324  -0.0977 
 C                    -1.84805   3.59869  -0.17106 
 C                     0.48609   3.66416  -0.1056 
 C                    -0.72168   2.8563   -0.14685 
 N                    -0.63931   1.43131  -0.15844 
 C                     3.21871  -0.29998   0.1433 
 C                     2.65123  -0.03569  -1.10536 
 C                     2.47636   0.00416   1.28457 
 C                     1.39194   0.53237  -1.20279 
 C                     1.21555   0.57168   1.18812 
 C                     0.6686    0.83427  -0.0577 
 C                    -1.7568    0.63974  -0.25408 
 C                    -1.53358  -0.8684   -0.25 
 O                    -2.88964   1.09288  -0.31345 
 C                    -3.82983  -1.82377   0.28656 
 N                    -2.74399  -1.58965  -0.5031 
 C                    -4.68385  -2.56712  -0.51832 
 N                    -2.94587  -2.14912  -1.7303 
 N                    -4.07385  -2.72738  -1.75216 
 C                    -4.1679   -1.49089   1.60093 
 C                    -5.3827   -1.94403   2.0563 
 C                    -5.9166   -3.02019  -0.05007 
 C                    -6.25334  -2.70371   1.24295 
 C                     7.14166  -1.95987   0.55883 
 N                     6.29     -2.39804  -0.41359 
 C                     6.75833  -0.97788   1.39254 
 C                     5.01935  -1.91336  -0.64079 
 C                     5.44854  -0.42923   1.22818 
 C                     4.58598  -0.86233   0.27412 
 O                     4.35276  -2.37954  -1.57035 
 H                     0.97038   5.7716   -0.07248 
 H                    -2.85393   3.26631  -0.21155 
 H                     1.4706    3.25196  -0.08724 
 H                     3.18517  -0.29142  -1.99494 
 H                     2.87312  -0.22185   2.25496 
 H                     0.96934   0.74444  -2.16579 
 H                     0.65827   0.81007   2.07352 
 H                    -0.83141  -1.15437  -1.01605 
 H                    -1.11651  -1.17186   0.70165 
 H                    -3.52742  -0.89458   2.21857 
 H                    -5.68711  -1.70886   3.05782 
 H                    -6.56363  -3.59016  -0.68581 
 H                    -7.19131  -3.02845   1.64809 
 H                     8.09881  -2.43548   0.60078 
 H                     6.57148  -3.12235  -1.0354 
 H                     7.41235  -0.61346   2.15558 
 H                     5.14765   0.36561   1.88272 
 
 NAtoms=     48 NQM=        0 NQMF=       0 NMMI=     48 NMMIF=      0
                NMic=       0 NMicF=      0.
                    Isotopes and Nuclear Properties:
 (Nuclear quadrupole moments (NQMom) in fm**2, nuclear magnetic moments (NMagM)
  in nuclear magnetons)

  Atom         1           2           3           4           5           6           7           8           9          10
 IAtWgt=          32          12          12          12          12          14          12          12          12          12
 AtmWgt=  31.9720718  12.0000000  12.0000000  12.0000000  12.0000000  14.0030740  12.0000000  12.0000000  12.0000000  12.0000000
 NucSpn=           0           0           0           0           0           2           0           0           0           0
 AtZEff=   0.0000000   0.0000000   0.0000000   0.0000000   0.0000000   0.0000000   0.0000000   0.0000000   0.0000000   0.0000000
 NQMom=    0.0000000   0.0000000   0.0000000   0.0000000   0.0000000   2.0440000   0.0000000   0.0000000   0.0000000   0.0000000
 NMagM=    0.0000000   0.0000000   0.0000000   0.0000000   0.0000000   0.4037610   0.0000000   0.0000000   0.0000000   0.0000000

  Atom        11          12          13          14          15          16          17          18          19          20
 IAtWgt=          12          12          12          12          16          12          14          12          14          14
 AtmWgt=  12.0000000  12.0000000  12.0000000  12.0000000  15.9949146  12.0000000  14.0030740  12.0000000  14.0030740  14.0030740
 NucSpn=           0           0           0           0           0           0           2           0           2           2
 AtZEff=   0.0000000   0.0000000   0.0000000   0.0000000   0.0000000   0.0000000   0.0000000   0.0000000   0.0000000   0.0000000
 NQMom=    0.0000000   0.0000000   0.0000000   0.0000000   0.0000000   0.0000000   2.0440000   0.0000000   2.0440000   2.0440000
 NMagM=    0.0000000   0.0000000   0.0000000   0.0000000   0.0000000   0.0000000   0.4037610   0.0000000   0.4037610   0.4037610

  Atom        21          22          23          24          25          26          27          28          29          30
 IAtWgt=          12          12          12          12          12          14          12          12          12          12
 AtmWgt=  12.0000000  12.0000000  12.0000000  12.0000000  12.0000000  14.0030740  12.0000000  12.0000000  12.0000000  12.0000000
 NucSpn=           0           0           0           0           0           2           0           0           0           0
 AtZEff=   0.0000000   0.0000000   0.0000000   0.0000000   0.0000000   0.0000000   0.0000000   0.0000000   0.0000000   0.0000000
 NQMom=    0.0000000   0.0000000   0.0000000   0.0000000   0.0000000   2.0440000   0.0000000   0.0000000   0.0000000   0.0000000
 NMagM=    0.0000000   0.0000000   0.0000000   0.0000000   0.0000000   0.4037610   0.0000000   0.0000000   0.0000000   0.0000000

  Atom        31          32          33          34          35          36          37          38          39          40
 IAtWgt=          16           1           1           1           1           1           1           1           1           1
 AtmWgt=  15.9949146   1.0078250   1.0078250   1.0078250   1.0078250   1.0078250   1.0078250   1.0078250   1.0078250   1.0078250
 NucSpn=           0           1           1           1           1           1           1           1           1           1
 AtZEff=   0.0000000   0.0000000   0.0000000   0.0000000   0.0000000   0.0000000   0.0000000   0.0000000   0.0000000   0.0000000
 NQMom=    0.0000000   0.0000000   0.0000000   0.0000000   0.0000000   0.0000000   0.0000000   0.0000000   0.0000000   0.0000000
 NMagM=    0.0000000   2.7928460   2.7928460   2.7928460   2.7928460   2.7928460   2.7928460   2.7928460   2.7928460   2.7928460

  Atom        41          42          43          44          45          46          47          48
 IAtWgt=           1           1           1           1           1           1           1           1
 AtmWgt=   1.0078250   1.0078250   1.0078250   1.0078250   1.0078250   1.0078250   1.0078250   1.0078250
 NucSpn=           1           1           1           1           1           1           1           1
 AtZEff=   0.0000000   0.0000000   0.0000000   0.0000000   0.0000000   0.0000000   0.0000000   0.0000000
 NQMom=    0.0000000   0.0000000   0.0000000   0.0000000   0.0000000   0.0000000   0.0000000   0.0000000
 NMagM=    2.7928460   2.7928460   2.7928460   2.7928460   2.7928460   2.7928460   2.7928460   2.7928460
 Leave Link  101 at Sat Sep  3 00:11:34 2022, MaxMem=  209715200 cpu:       0.9
 (Enter /opt/gaussian/l103.exe)

 GradGradGradGradGradGradGradGradGradGradGradGradGradGradGradGradGradGrad
 Berny optimization.
 Initialization pass.
                           ----------------------------
                           !    Initial Parameters    !
                           ! (Angstroms and Degrees)  !
 --------------------------                            --------------------------
 ! Name  Definition              Value          Derivative Info.                !
 --------------------------------------------------------------------------------
 ! R1    R(1,2)                  1.7812         estimate D2E/DX2                !
 ! R2    R(1,3)                  1.789          estimate D2E/DX2                !
 ! R3    R(2,4)                  1.3395         estimate D2E/DX2                !
 ! R4    R(2,32)                 1.0662         estimate D2E/DX2                !
 ! R5    R(3,5)                  1.3492         estimate D2E/DX2                !
 ! R6    R(3,33)                 1.0601         estimate D2E/DX2                !
 ! R7    R(4,5)                  1.4536         estimate D2E/DX2                !
 ! R8    R(4,34)                 1.0675         estimate D2E/DX2                !
 ! R9    R(5,6)                  1.4274         estimate D2E/DX2                !
 ! R10   R(6,12)                 1.4413         estimate D2E/DX2                !
 ! R11   R(6,13)                 1.3728         estimate D2E/DX2                !
 ! R12   R(7,8)                  1.3968         estimate D2E/DX2                !
 ! R13   R(7,9)                  1.395          estimate D2E/DX2                !
 ! R14   R(7,30)                 1.4842         estimate D2E/DX2                !
 ! R15   R(8,10)                 1.3849         estimate D2E/DX2                !
 ! R16   R(8,35)                 1.0686         estimate D2E/DX2                !
 ! R17   R(9,11)                 1.386          estimate D2E/DX2                !
 ! R18   R(9,36)                 1.0725         estimate D2E/DX2                !
 ! R19   R(10,12)                1.3877         estimate D2E/DX2                !
 ! R20   R(10,37)                1.0728         estimate D2E/DX2                !
 ! R21   R(11,12)                1.3857         estimate D2E/DX2                !
 ! R22   R(11,38)                1.073          estimate D2E/DX2                !
 ! R23   R(13,14)                1.5246         estimate D2E/DX2                !
 ! R24   R(13,15)                1.2216         estimate D2E/DX2                !
 ! R25   R(14,17)                1.4316         estimate D2E/DX2                !
 ! R26   R(14,39)                1.0778         estimate D2E/DX2                !
 ! R27   R(14,40)                1.0824         estimate D2E/DX2                !
 ! R28   R(16,17)                1.3629         estimate D2E/DX2                !
 ! R29   R(16,18)                1.3892         estimate D2E/DX2                !
 ! R30   R(16,21)                1.3974         estimate D2E/DX2                !
 ! R31   R(17,19)                1.3637         estimate D2E/DX2                !
 ! R32   R(18,20)                1.3857         estimate D2E/DX2                !
 ! R33   R(18,23)                1.3943         estimate D2E/DX2                !
 ! R34   R(19,20)                1.2678         estimate D2E/DX2                !
 ! R35   R(21,22)                1.3742         estimate D2E/DX2                !
 ! R36   R(21,41)                1.0711         estimate D2E/DX2                !
 ! R37   R(22,24)                1.413          estimate D2E/DX2                !
 ! R38   R(22,42)                1.0729         estimate D2E/DX2                !
 ! R39   R(23,24)                1.3731         estimate D2E/DX2                !
 ! R40   R(23,43)                1.0713         estimate D2E/DX2                !
 ! R41   R(24,44)                1.0721         estimate D2E/DX2                !
 ! R42   R(25,26)                1.3649         estimate D2E/DX2                !
 ! R43   R(25,27)                1.344          estimate D2E/DX2                !
 ! R44   R(25,45)                1.0696         estimate D2E/DX2                !
 ! R45   R(26,28)                1.3788         estimate D2E/DX2                !
 ! R46   R(26,46)                0.9952         estimate D2E/DX2                !
 ! R47   R(27,29)                1.4295         estimate D2E/DX2                !
 ! R48   R(27,47)                1.069          estimate D2E/DX2                !
 ! R49   R(28,30)                1.4593         estimate D2E/DX2                !
 ! R50   R(28,31)                1.2352         estimate D2E/DX2                !
 ! R51   R(29,30)                1.3571         estimate D2E/DX2                !
 ! R52   R(29,48)                1.0727         estimate D2E/DX2                !
 ! A1    A(2,1,3)               89.6757         estimate D2E/DX2                !
 ! A2    A(1,2,4)              111.9234         estimate D2E/DX2                !
 ! A3    A(1,2,32)             120.3956         estimate D2E/DX2                !
 ! A4    A(4,2,32)             127.6805         estimate D2E/DX2                !
 ! A5    A(1,3,5)              111.7899         estimate D2E/DX2                !
 ! A6    A(1,3,33)             119.8721         estimate D2E/DX2                !
 ! A7    A(5,3,33)             128.3354         estimate D2E/DX2                !
 ! A8    A(2,4,5)              113.7597         estimate D2E/DX2                !
 ! A9    A(2,4,34)             122.7235         estimate D2E/DX2                !
 ! A10   A(5,4,34)             123.5163         estimate D2E/DX2                !
 ! A11   A(3,5,4)              112.8512         estimate D2E/DX2                !
 ! A12   A(3,5,6)              126.6784         estimate D2E/DX2                !
 ! A13   A(4,5,6)              120.4704         estimate D2E/DX2                !
 ! A14   A(5,6,12)             117.7324         estimate D2E/DX2                !
 ! A15   A(5,6,13)             121.9535         estimate D2E/DX2                !
 ! A16   A(12,6,13)            120.3131         estimate D2E/DX2                !
 ! A17   A(8,7,9)              118.2873         estimate D2E/DX2                !
 ! A18   A(8,7,30)             121.652          estimate D2E/DX2                !
 ! A19   A(9,7,30)             120.0479         estimate D2E/DX2                !
 ! A20   A(7,8,10)             120.6585         estimate D2E/DX2                !
 ! A21   A(7,8,35)             119.7304         estimate D2E/DX2                !
 ! A22   A(10,8,35)            119.6004         estimate D2E/DX2                !
 ! A23   A(7,9,11)             121.092          estimate D2E/DX2                !
 ! A24   A(7,9,36)             119.8302         estimate D2E/DX2                !
 ! A25   A(11,9,36)            119.0645         estimate D2E/DX2                !
 ! A26   A(8,10,12)            120.3424         estimate D2E/DX2                !
 ! A27   A(8,10,37)            120.1599         estimate D2E/DX2                !
 ! A28   A(12,10,37)           119.4975         estimate D2E/DX2                !
 ! A29   A(9,11,12)            119.9478         estimate D2E/DX2                !
 ! A30   A(9,11,38)            120.3979         estimate D2E/DX2                !
 ! A31   A(12,11,38)           119.6543         estimate D2E/DX2                !
 ! A32   A(6,12,10)            120.3634         estimate D2E/DX2                !
 ! A33   A(6,12,11)            119.9689         estimate D2E/DX2                !
 ! A34   A(10,12,11)           119.6643         estimate D2E/DX2                !
 ! A35   A(6,13,14)            116.8098         estimate D2E/DX2                !
 ! A36   A(6,13,15)            122.9841         estimate D2E/DX2                !
 ! A37   A(14,13,15)           120.1899         estimate D2E/DX2                !
 ! A38   A(13,14,17)           111.97           estimate D2E/DX2                !
 ! A39   A(13,14,39)           110.8518         estimate D2E/DX2                !
 ! A40   A(13,14,40)           109.639          estimate D2E/DX2                !
 ! A41   A(17,14,39)           106.948          estimate D2E/DX2                !
 ! A42   A(17,14,40)           109.8754         estimate D2E/DX2                !
 ! A43   A(39,14,40)           107.4257         estimate D2E/DX2                !
 ! A44   A(17,16,18)           104.2423         estimate D2E/DX2                !
 ! A45   A(17,16,21)           134.1725         estimate D2E/DX2                !
 ! A46   A(18,16,21)           121.5823         estimate D2E/DX2                !
 ! A47   A(14,17,16)           131.1292         estimate D2E/DX2                !
 ! A48   A(14,17,19)           119.4035         estimate D2E/DX2                !
 ! A49   A(16,17,19)           109.4498         estimate D2E/DX2                !
 ! A50   A(16,18,20)           107.8883         estimate D2E/DX2                !
 ! A51   A(16,18,23)           121.5221         estimate D2E/DX2                !
 ! A52   A(20,18,23)           130.5894         estimate D2E/DX2                !
 ! A53   A(17,19,20)           109.5334         estimate D2E/DX2                !
 ! A54   A(18,20,19)           108.8791         estimate D2E/DX2                !
 ! A55   A(16,21,22)           116.5515         estimate D2E/DX2                !
 ! A56   A(16,21,41)           122.0282         estimate D2E/DX2                !
 ! A57   A(22,21,41)           121.4057         estimate D2E/DX2                !
 ! A58   A(21,22,24)           122.0879         estimate D2E/DX2                !
 ! A59   A(21,22,42)           119.2015         estimate D2E/DX2                !
 ! A60   A(24,22,42)           118.7086         estimate D2E/DX2                !
 ! A61   A(18,23,24)           117.2681         estimate D2E/DX2                !
 ! A62   A(18,23,43)           120.5016         estimate D2E/DX2                !
 ! A63   A(24,23,43)           122.2302         estimate D2E/DX2                !
 ! A64   A(22,24,23)           120.9867         estimate D2E/DX2                !
 ! A65   A(22,24,44)           118.9729         estimate D2E/DX2                !
 ! A66   A(23,24,44)           120.0394         estimate D2E/DX2                !
 ! A67   A(26,25,27)           119.9037         estimate D2E/DX2                !
 ! A68   A(26,25,45)           116.3312         estimate D2E/DX2                !
 ! A69   A(27,25,45)           123.7645         estimate D2E/DX2                !
 ! A70   A(25,26,28)           125.4213         estimate D2E/DX2                !
 ! A71   A(25,26,46)           120.1516         estimate D2E/DX2                !
 ! A72   A(28,26,46)           114.4261         estimate D2E/DX2                !
 ! A73   A(25,27,29)           118.0618         estimate D2E/DX2                !
 ! A74   A(25,27,47)           121.1551         estimate D2E/DX2                !
 ! A75   A(29,27,47)           120.7828         estimate D2E/DX2                !
 ! A76   A(26,28,30)           115.0588         estimate D2E/DX2                !
 ! A77   A(26,28,31)           119.2529         estimate D2E/DX2                !
 ! A78   A(30,28,31)           125.6882         estimate D2E/DX2                !
 ! A79   A(27,29,30)           122.73           estimate D2E/DX2                !
 ! A80   A(27,29,48)           118.1134         estimate D2E/DX2                !
 ! A81   A(30,29,48)           119.1523         estimate D2E/DX2                !
 ! A82   A(7,30,28)            119.4203         estimate D2E/DX2                !
 ! A83   A(7,30,29)            121.7732         estimate D2E/DX2                !
 ! A84   A(28,30,29)           118.8059         estimate D2E/DX2                !
 ! D1    D(3,1,2,4)              0.042          estimate D2E/DX2                !
 ! D2    D(3,1,2,32)           179.809          estimate D2E/DX2                !
 ! D3    D(2,1,3,5)              0.006          estimate D2E/DX2                !
 ! D4    D(2,1,3,33)          -179.454          estimate D2E/DX2                !
 ! D5    D(1,2,4,5)             -0.0777         estimate D2E/DX2                !
 ! D6    D(1,2,4,34)           179.683          estimate D2E/DX2                !
 ! D7    D(32,2,4,5)          -179.8238         estimate D2E/DX2                !
 ! D8    D(32,2,4,34)           -0.0631         estimate D2E/DX2                !
 ! D9    D(1,3,5,4)             -0.0491         estimate D2E/DX2                !
 ! D10   D(1,3,5,6)            179.9656         estimate D2E/DX2                !
 ! D11   D(33,3,5,4)           179.3539         estimate D2E/DX2                !
 ! D12   D(33,3,5,6)            -0.6314         estimate D2E/DX2                !
 ! D13   D(2,4,5,3)              0.084          estimate D2E/DX2                !
 ! D14   D(2,4,5,6)           -179.9297         estimate D2E/DX2                !
 ! D15   D(34,4,5,3)          -179.6746         estimate D2E/DX2                !
 ! D16   D(34,4,5,6)             0.3118         estimate D2E/DX2                !
 ! D17   D(3,5,6,12)          -176.8539         estimate D2E/DX2                !
 ! D18   D(3,5,6,13)             2.7903         estimate D2E/DX2                !
 ! D19   D(4,5,6,12)             3.1618         estimate D2E/DX2                !
 ! D20   D(4,5,6,13)          -177.194          estimate D2E/DX2                !
 ! D21   D(5,6,12,10)          -91.4067         estimate D2E/DX2                !
 ! D22   D(5,6,12,11)           87.9224         estimate D2E/DX2                !
 ! D23   D(13,6,12,10)          88.9431         estimate D2E/DX2                !
 ! D24   D(13,6,12,11)         -91.7279         estimate D2E/DX2                !
 ! D25   D(5,6,13,14)         -179.7517         estimate D2E/DX2                !
 ! D26   D(5,6,13,15)           -1.2157         estimate D2E/DX2                !
 ! D27   D(12,6,13,14)          -0.1166         estimate D2E/DX2                !
 ! D28   D(12,6,13,15)         178.4194         estimate D2E/DX2                !
 ! D29   D(9,7,8,10)             0.9556         estimate D2E/DX2                !
 ! D30   D(9,7,8,35)          -177.846          estimate D2E/DX2                !
 ! D31   D(30,7,8,10)         -177.7422         estimate D2E/DX2                !
 ! D32   D(30,7,8,35)            3.4562         estimate D2E/DX2                !
 ! D33   D(8,7,9,11)            -0.9067         estimate D2E/DX2                !
 ! D34   D(8,7,9,36)           177.7519         estimate D2E/DX2                !
 ! D35   D(30,7,9,11)          177.8127         estimate D2E/DX2                !
 ! D36   D(30,7,9,36)           -3.5287         estimate D2E/DX2                !
 ! D37   D(8,7,30,28)          -40.7985         estimate D2E/DX2                !
 ! D38   D(8,7,30,29)          139.4594         estimate D2E/DX2                !
 ! D39   D(9,7,30,28)          140.5262         estimate D2E/DX2                !
 ! D40   D(9,7,30,29)          -39.2159         estimate D2E/DX2                !
 ! D41   D(7,8,10,12)           -0.7031         estimate D2E/DX2                !
 ! D42   D(7,8,10,37)          179.1538         estimate D2E/DX2                !
 ! D43   D(35,8,10,12)         178.1            estimate D2E/DX2                !
 ! D44   D(35,8,10,37)          -2.0431         estimate D2E/DX2                !
 ! D45   D(7,9,11,12)            0.5991         estimate D2E/DX2                !
 ! D46   D(7,9,11,38)         -179.3905         estimate D2E/DX2                !
 ! D47   D(36,9,11,12)        -178.0696         estimate D2E/DX2                !
 ! D48   D(36,9,11,38)           1.9408         estimate D2E/DX2                !
 ! D49   D(8,10,12,6)          179.7035         estimate D2E/DX2                !
 ! D50   D(8,10,12,11)           0.3724         estimate D2E/DX2                !
 ! D51   D(37,10,12,6)          -0.1543         estimate D2E/DX2                !
 ! D52   D(37,10,12,11)       -179.4854         estimate D2E/DX2                !
 ! D53   D(9,11,12,6)         -179.6522         estimate D2E/DX2                !
 ! D54   D(9,11,12,10)          -0.3184         estimate D2E/DX2                !
 ! D55   D(38,11,12,6)           0.3376         estimate D2E/DX2                !
 ! D56   D(38,11,12,10)        179.6714         estimate D2E/DX2                !
 ! D57   D(6,13,14,17)        -173.5013         estimate D2E/DX2                !
 ! D58   D(6,13,14,39)         -54.1593         estimate D2E/DX2                !
 ! D59   D(6,13,14,40)          64.2767         estimate D2E/DX2                !
 ! D60   D(15,13,14,17)          7.9195         estimate D2E/DX2                !
 ! D61   D(15,13,14,39)        127.2615         estimate D2E/DX2                !
 ! D62   D(15,13,14,40)       -114.3026         estimate D2E/DX2                !
 ! D63   D(13,14,17,16)        -74.11           estimate D2E/DX2                !
 ! D64   D(13,14,17,19)        104.191          estimate D2E/DX2                !
 ! D65   D(39,14,17,16)        164.2764         estimate D2E/DX2                !
 ! D66   D(39,14,17,19)        -17.4227         estimate D2E/DX2                !
 ! D67   D(40,14,17,16)         47.977          estimate D2E/DX2                !
 ! D68   D(40,14,17,19)       -133.7221         estimate D2E/DX2                !
 ! D69   D(18,16,17,14)        179.2913         estimate D2E/DX2                !
 ! D70   D(18,16,17,19)          0.861          estimate D2E/DX2                !
 ! D71   D(21,16,17,14)         -1.3486         estimate D2E/DX2                !
 ! D72   D(21,16,17,19)       -179.7788         estimate D2E/DX2                !
 ! D73   D(17,16,18,20)         -0.6643         estimate D2E/DX2                !
 ! D74   D(17,16,18,23)        179.2138         estimate D2E/DX2                !
 ! D75   D(21,16,18,20)        179.8745         estimate D2E/DX2                !
 ! D76   D(21,16,18,23)         -0.2475         estimate D2E/DX2                !
 ! D77   D(17,16,21,22)       -178.8656         estimate D2E/DX2                !
 ! D78   D(17,16,21,41)          2.508          estimate D2E/DX2                !
 ! D79   D(18,16,21,22)          0.4064         estimate D2E/DX2                !
 ! D80   D(18,16,21,41)       -178.22           estimate D2E/DX2                !
 ! D81   D(14,17,19,20)       -179.4112         estimate D2E/DX2                !
 ! D82   D(16,17,19,20)         -0.7684         estimate D2E/DX2                !
 ! D83   D(16,18,20,19)          0.2274         estimate D2E/DX2                !
 ! D84   D(23,18,20,19)       -179.6357         estimate D2E/DX2                !
 ! D85   D(16,18,23,24)         -0.1133         estimate D2E/DX2                !
 ! D86   D(16,18,23,43)        179.8389         estimate D2E/DX2                !
 ! D87   D(20,18,23,24)        179.7339         estimate D2E/DX2                !
 ! D88   D(20,18,23,43)         -0.3139         estimate D2E/DX2                !
 ! D89   D(17,19,20,18)          0.3205         estimate D2E/DX2                !
 ! D90   D(16,21,22,24)         -0.2228         estimate D2E/DX2                !
 ! D91   D(16,21,22,42)       -179.7038         estimate D2E/DX2                !
 ! D92   D(41,21,22,24)        178.4127         estimate D2E/DX2                !
 ! D93   D(41,21,22,42)         -1.0682         estimate D2E/DX2                !
 ! D94   D(21,22,24,23)         -0.1295         estimate D2E/DX2                !
 ! D95   D(21,22,24,44)       -179.758          estimate D2E/DX2                !
 ! D96   D(42,22,24,23)        179.3539         estimate D2E/DX2                !
 ! D97   D(42,22,24,44)         -0.2746         estimate D2E/DX2                !
 ! D98   D(18,23,24,22)          0.2958         estimate D2E/DX2                !
 ! D99   D(18,23,24,44)        179.9204         estimate D2E/DX2                !
 ! D100  D(43,23,24,22)       -179.6555         estimate D2E/DX2                !
 ! D101  D(43,23,24,44)         -0.0309         estimate D2E/DX2                !
 ! D102  D(27,25,26,28)          0.1221         estimate D2E/DX2                !
 ! D103  D(27,25,26,46)        179.7423         estimate D2E/DX2                !
 ! D104  D(45,25,26,28)       -179.6066         estimate D2E/DX2                !
 ! D105  D(45,25,26,46)          0.0135         estimate D2E/DX2                !
 ! D106  D(26,25,27,29)          0.3745         estimate D2E/DX2                !
 ! D107  D(26,25,27,47)       -179.4528         estimate D2E/DX2                !
 ! D108  D(45,25,27,29)       -179.9179         estimate D2E/DX2                !
 ! D109  D(45,25,27,47)          0.2547         estimate D2E/DX2                !
 ! D110  D(25,26,28,30)         -1.1066         estimate D2E/DX2                !
 ! D111  D(25,26,28,31)        178.7898         estimate D2E/DX2                !
 ! D112  D(46,26,28,30)        179.2541         estimate D2E/DX2                !
 ! D113  D(46,26,28,31)         -0.8495         estimate D2E/DX2                !
 ! D114  D(25,27,29,30)          0.2229         estimate D2E/DX2                !
 ! D115  D(25,27,29,48)       -179.0132         estimate D2E/DX2                !
 ! D116  D(47,27,29,30)       -179.9491         estimate D2E/DX2                !
 ! D117  D(47,27,29,48)          0.8148         estimate D2E/DX2                !
 ! D118  D(26,28,30,7)        -178.1408         estimate D2E/DX2                !
 ! D119  D(26,28,30,29)          1.609          estimate D2E/DX2                !
 ! D120  D(31,28,30,7)           1.9704         estimate D2E/DX2                !
 ! D121  D(31,28,30,29)       -178.2798         estimate D2E/DX2                !
 ! D122  D(27,29,30,7)         178.5001         estimate D2E/DX2                !
 ! D123  D(27,29,30,28)         -1.2435         estimate D2E/DX2                !
 ! D124  D(48,29,30,7)          -2.2713         estimate D2E/DX2                !
 ! D125  D(48,29,30,28)        177.985          estimate D2E/DX2                !
 --------------------------------------------------------------------------------
 Trust Radius=3.00D-01 FncErr=1.00D-07 GrdErr=1.00D-06
 Number of steps in this run=    271 maximum allowed number of steps=    288.
 GradGradGradGradGradGradGradGradGradGradGradGradGradGradGradGradGradGrad

 Leave Link  103 at Sat Sep  3 00:11:34 2022, MaxMem=  209715200 cpu:       0.1
 (Enter /opt/gaussian/l202.exe)
                          Input orientation:                          
 ---------------------------------------------------------------------
 Center     Atomic      Atomic             Coordinates (Angstroms)
 Number     Number       Type             X           Y           Z
 ---------------------------------------------------------------------
      1         16           0       -1.489130    5.351090   -0.142960
      2          6           0        0.253070    4.983240   -0.097700
      3          6           0       -1.848050    3.598690   -0.171060
      4          6           0        0.486090    3.664160   -0.105600
      5          6           0       -0.721680    2.856300   -0.146850
      6          7           0       -0.639310    1.431310   -0.158440
      7          6           0        3.218710   -0.299980    0.143300
      8          6           0        2.651230   -0.035690   -1.105360
      9          6           0        2.476360    0.004160    1.284570
     10          6           0        1.391940    0.532370   -1.202790
     11          6           0        1.215550    0.571680    1.188120
     12          6           0        0.668600    0.834270   -0.057700
     13          6           0       -1.756800    0.639740   -0.254080
     14          6           0       -1.533580   -0.868400   -0.250000
     15          8           0       -2.889640    1.092880   -0.313450
     16          6           0       -3.829830   -1.823770    0.286560
     17          7           0       -2.743990   -1.589650   -0.503100
     18          6           0       -4.683850   -2.567120   -0.518320
     19          7           0       -2.945870   -2.149120   -1.730300
     20          7           0       -4.073850   -2.727380   -1.752160
     21          6           0       -4.167900   -1.490890    1.600930
     22          6           0       -5.382700   -1.944030    2.056300
     23          6           0       -5.916600   -3.020190   -0.050070
     24          6           0       -6.253340   -2.703710    1.242950
     25          6           0        7.141660   -1.959870    0.558830
     26          7           0        6.290000   -2.398040   -0.413590
     27          6           0        6.758330   -0.977880    1.392540
     28          6           0        5.019350   -1.913360   -0.640790
     29          6           0        5.448540   -0.429230    1.228180
     30          6           0        4.585980   -0.862330    0.274120
     31          8           0        4.352760   -2.379540   -1.570350
     32          1           0        0.970380    5.771600   -0.072480
     33          1           0       -2.853930    3.266310   -0.211550
     34          1           0        1.470600    3.251960   -0.087240
     35          1           0        3.185170   -0.291420   -1.994940
     36          1           0        2.873120   -0.221850    2.254960
     37          1           0        0.969340    0.744440   -2.165790
     38          1           0        0.658270    0.810070    2.073520
     39          1           0       -0.831410   -1.154370   -1.016050
     40          1           0       -1.116510   -1.171860    0.701650
     41          1           0       -3.527420   -0.894580    2.218570
     42          1           0       -5.687110   -1.708860    3.057820
     43          1           0       -6.563630   -3.590160   -0.685810
     44          1           0       -7.191310   -3.028450    1.648090
     45          1           0        8.098810   -2.435480    0.600780
     46          1           0        6.571480   -3.122350   -1.035400
     47          1           0        7.412350   -0.613460    2.155580
     48          1           0        5.147650    0.365610    1.882720
 ---------------------------------------------------------------------
                    Distance matrix (angstroms):
                    1          2          3          4          5
     1  S    0.000000
     2  C    1.781186   0.000000
     3  C    1.788999   2.517353   0.000000
     4  C    2.597811   1.339527   2.335975   0.000000
     5  C    2.610167   2.340177   1.349236   1.453633   0.000000
     6  N    4.010874   3.662818   2.481682   2.500987   1.427416
     7  C    7.360726   6.063457   6.400821   4.821158   5.056972
     8  C    6.861938   5.652982   5.858767   4.401845   4.545203
     9  C    6.808275   5.625382   5.808617   4.391964   4.517867
    10  C    5.713481   4.725303   4.578681   3.439840   3.314068
    11  C    5.650648   4.694844   4.516171   3.430635   3.279404
    12  C    5.006469   4.169918   3.740106   2.836174   2.455490
    13  C    4.720256   4.788531   2.961521   3.768251   2.448696
    14  C    6.220570   6.120213   4.478841   4.964274   3.813556
    15  O    4.485850   5.005804   2.717401   4.248557   2.799546
    16  C    7.559231   7.946893   5.791368   6.992734   5.634847
    17  N    7.062453   7.235302   5.275588   6.180125   4.897257
    18  C    8.546647   9.030949   6.795555   8.107248   6.726832
    19  N    7.803518   7.985559   6.055886   6.943502   5.701628
    20  N    8.633191   8.995173   6.890082   8.022219   6.707574
    21  C    7.551798   8.021514   5.867323   7.151672   5.816290
    22  C    8.556600   9.186332   6.940939   8.400494   7.044299
    23  C    9.470451  10.105542   7.770284   9.256244   7.844087
    24  C    9.460351  10.159720   7.818328   9.369540   7.965207
    25  C   11.332836   9.802575  10.594584   8.738867   9.248005
    26  N   10.983493   9.540839  10.111748   8.398244   8.766008
    27  C   10.508769   8.948417   9.872164   7.945688   8.545245
    28  C    9.766288   8.400920   8.818420   7.207330   7.480178
    29  C    9.133641   7.618773   8.451168   6.569682   7.124397
    30  C    8.699857   7.285811   7.841915   6.119019   6.494358
    31  O    9.794272   8.554922   8.726242   7.322769   7.429018
    32  H    2.496194   1.066153   3.560169   2.162623   3.371583
    33  H    2.492728   3.551656   1.060146   3.365300   2.172276
    34  H    3.628974   2.116558   3.337767   1.067476   2.228495
    35  H    7.557568   6.326039   6.617613   5.147937   5.346686
    36  H    7.472410   6.284316   6.539996   5.135293   5.307192
    37  H    5.599745   4.770478   4.479216   3.605923   3.375740
    38  H    5.490444   4.721624   4.369918   3.595002   3.319844
    39  H    6.596658   6.299978   4.933472   5.077692   4.105243
    40  H    6.587950   6.356097   4.904582   5.158204   4.135446
    41  H    6.981393   7.362471   5.359113   6.503241   5.247522
    42  H    8.815380   9.488269   7.303022   8.774108   7.467670
    43  H   10.295202  10.968886   8.612852  10.132145   8.716404
    44  H   10.292687  11.074915   8.705097  10.334840   8.927945
    45  H   12.373860  10.820394  11.659630   9.780495  10.313241
    46  H   11.728984  10.319989  10.807773   9.162599   9.472273
    47  H   10.958809   9.362458  10.436018   8.448908   9.137990
    48  H    8.544310   7.014377   7.975628   6.046817   6.691168
                    6          7          8          9         10
     6  N    0.000000
     7  C    4.239426   0.000000
     8  C    3.725104   1.396794   0.000000
     9  C    3.718391   1.395020   2.396650   0.000000
    10  C    2.454534   2.416993   1.384917   2.764405   0.000000
    11  C    2.447998   2.421588   2.773108   1.386010   2.397730
    12  C    1.441261   2.798211   2.405253   2.399743   1.387658
    13  C    1.372776   5.079044   4.540001   4.548742   3.290310
    14  C    2.469163   4.802296   4.351745   4.381311   3.380626
    15  O    2.280909   6.281769   5.709819   5.703765   4.408744
    16  C    4.579628   7.212792   6.865771   6.641188   5.919159
    17  N    3.697927   6.134727   5.646761   5.743522   4.700899
    18  C    5.698707   8.247916   7.781783   7.818600   6.854966
    19  N    4.539872   6.703114   6.015369   6.567087   5.126914
    20  N    5.624119   7.916216   7.272568   7.719345   6.387694
    21  C    4.907706   7.622661   7.479448   6.817730   6.547232
    22  C    6.228783   8.963633   8.842052   8.133624   7.915174
    23  C    6.904881   9.533668   9.133925   9.020517   8.207570
    24  C    7.111935   9.833966   9.587714   9.140129   8.654719
    25  C    8.518103   4.279887   5.161004   5.113623   6.509520
    26  N    7.921134   3.760958   4.393164   4.816447   5.762042
    27  C    7.933146   3.814323   4.898520   4.394466   6.149369
    28  C    6.590896   2.541672   3.057689   3.721652   4.410844
    29  C    6.515078   2.483105   3.664045   3.004141   4.826002
    30  C    5.722897   1.484176   2.515861   2.494456   3.785280
    31  O    6.437145   2.923566   2.933437   4.165750   4.169026
    32  H    4.629968   6.478089   6.133247   6.113340   5.376323
    33  H    2.876558   7.051333   6.481426   6.425884   5.146299
    34  H    2.787751   3.965516   3.638557   3.666282   2.940546
    35  H    4.578993   2.138520   1.068570   3.368229   2.126454
    36  H    4.571061   2.141178   3.372779   1.072453   3.836506
    37  H    2.662517   3.388565   2.135853   3.837201   1.072816
    38  H    2.655428   3.393201   3.846099   2.139482   3.368916
    39  H    2.730959   4.298552   3.658989   4.192420   2.797007
    40  H    2.782799   4.457136   4.330362   3.825119   3.581007
    41  H    4.404670   7.083118   7.068375   6.142106   6.159707
    42  H    6.759089   9.475917   9.468869   8.527666   8.560891
    43  H    7.784012  10.354076   9.885541   9.925873   8.975167
    44  H    8.129066  10.866345  10.649587  10.138674   9.720038
    45  H    9.585574   5.346496   6.192417   6.166957   7.552688
    46  H    8.573236   4.538301   4.990063   5.650428   6.341343
    47  H    8.623514   4.661991   5.799639   5.050159   6.988341
    48  H    6.228239   2.681306   3.914304   2.761199   4.863490
                   11         12         13         14         15
    11  C    0.000000
    12  C    1.385704   0.000000
    13  C    3.304457   2.441101   0.000000
    14  C    3.420488   2.790280   1.524575   0.000000
    15  O    4.402153   3.576781   1.221551   2.385276   0.000000
    16  C    5.657460   5.236369   3.264755   2.544286   3.122630
    17  N    4.817627   4.209458   2.450864   1.431556   2.693167
    18  C    6.896878   6.358486   4.349873   3.589129   4.081270
    19  N    5.765184   4.976203   3.372070   2.413730   3.538529
    20  N    6.892517   6.168256   4.353213   3.487874   4.250485
    21  C    5.779805   5.616863   3.714034   3.279189   3.460443
    22  C    7.114734   6.986142   5.016062   4.614296   4.588451
    23  C    8.080978   7.630320   5.544425   4.886823   5.113629
    24  C    8.155704   7.881767   5.799882   5.279526   5.305747
    25  C    6.474838   7.077276   9.305987   8.780962  10.521746
    26  N    6.093829   6.494199   8.602589   7.973391   9.821524
    27  C    5.758935   6.517047   8.822442   8.453739  10.014079
    28  C    4.897880   5.178657   7.251488   6.647221   8.467394
    29  C    4.349900   5.108595   7.433486   7.150377   8.615027
    30  C    3.775126   4.281871   6.539577   6.141967   7.749386
    31  O    5.114777   5.117589   6.940846   6.218992   8.129567
    32  H    5.356154   4.946566   5.814334   7.098657   6.070275
    33  H    5.077477   4.283305   2.846818   4.340579   2.176110
    34  H    2.979177   2.547411   4.155435   5.101858   4.870779
    35  H    3.841382   3.369451   5.321722   5.064022   6.453450
    36  H    2.124941   3.365070   5.336083   5.109976   6.444738
    37  H    3.367370   2.131328   3.331282   3.540637   4.294683
    38  H    1.072998   2.131382   3.358466   3.608353   4.285472
    39  H    3.468092   2.668924   2.157725   1.077801   3.127314
    40  H    2.952133   2.790661   2.145993   1.082438   3.050158
    41  H    5.070257   5.077097   3.406352   3.173314   3.281446
    42  H    7.506221   7.521238   5.650835   5.375859   5.200101
    43  H    9.019322   8.501485   6.417481   5.735792   5.963868
    44  H    9.156845   8.922360   6.826988   6.346532   6.271951
    45  H    7.534404   8.144500  10.359576   9.796045  11.577183
    46  H    6.875746   7.173195   9.171915   8.449210  10.382782
    47  H    6.382857   7.243804   9.562964   9.267226  10.730270
    48  H    3.998293   4.903750   7.232737   7.121103   8.363619
                   16         17         18         19         20
    16  C    0.000000
    17  N    1.362873   0.000000
    18  C    1.389155   2.172265   0.000000
    19  N    2.225974   1.363738   2.159675   0.000000
    20  N    2.243309   2.150141   1.385693   1.267754   0.000000
    21  C    1.397379   2.542482   2.432220   3.608839   3.575048
    22  C    2.357509   3.693089   2.739580   4.507609   4.102572
    23  C    2.428858   3.509578   1.394347   3.522382   2.525584
    24  C    2.749978   4.074967   2.363055   4.481868   3.704244
    25  C   10.975712   9.949414  11.889983  10.345733  11.476821
    26  N   10.160264   9.070528  10.975652   9.332576  10.455124
    27  C   10.679319   9.708852  11.708995  10.261356  11.414290
    28  C    8.898089   7.771306   9.725970   8.042844   9.196959
    29  C    9.429716   8.453488  10.501722   9.065139  10.239132
    30  C    8.470560   7.406857   9.458542   7.899512   9.087182
    31  O    8.409029   7.219890   9.099575   7.304018   8.435746
    32  H    8.992251   8.256511  10.084807   8.990172  10.024881
    33  H    5.206670   4.865947   6.121407   5.625117   6.307615
    34  H    7.348287   6.432488   8.480848   7.167742   8.322583
    35  H    7.534160   6.250274   8.323502   6.411765   7.660693
    36  H    7.167307   6.405443   8.384460   7.311451   8.402088
    37  H    5.970072   4.690558   6.755675   4.887864   6.136643
    38  H    5.502125   4.896223   6.830907   6.017946   7.038632
    39  H    3.336976   2.027449   4.133387   2.443486   3.678265
    40  H    2.821239   2.067526   4.020074   3.196244   4.145683
    41  H    2.165065   2.916226   3.409588   4.183975   4.407316
    42  H    3.338050   4.621290   3.812075   5.534828   5.174543
    43  H    3.396954   4.315678   2.146680   4.031841   2.842621
    44  H    3.821592   5.145524   3.345671   5.496408   4.622867
    45  H   11.948447  10.931619  12.832229  11.291629  12.401419
    46  H   10.565091   9.455712  11.280873   9.592185  10.676741
    47  H   11.460571  10.543850  12.541315  11.169200  12.315514
    48  H    9.377433   8.473084  10.536806   9.213189  10.383400
                   21         22         23         24         25
    21  C    0.000000
    22  C    1.374204   0.000000
    23  C    2.850002   2.424864   0.000000
    24  C    2.438881   1.413034   1.373118   0.000000
    25  C   11.367148  12.613574  13.115380  13.433069   0.000000
    26  N   10.688727  11.939783  12.227849  12.655945   1.364888
    27  C   10.940252  12.197485  12.919211  13.126478   1.343994
    28  C    9.466222  10.746063  11.007680  11.456294   2.438330
    29  C    9.682044  10.967961  11.726611  11.920884   2.378559
    30  C    8.876144  10.184342  10.726866  11.037217   2.795917
    31  O    9.135008  10.398146  10.401031  10.977664   3.533765
    32  H    9.052402  10.218820  11.168105  11.213535   9.912562
    33  H    5.257619   6.219764   6.994720   7.022300  11.305674
    34  H    7.558917   8.863453   9.690819   9.843712   7.729263
    35  H    8.272645   9.620398   9.699017  10.265892   4.995926
    36  H    7.184301   8.435872   9.508052   9.511891   4.911008
    37  H    6.751008   8.087171   8.128031   8.699216   7.268726
    38  H    5.367464   6.639178   7.899965   7.797875   7.211186
    39  H    4.253704   5.547715   5.502141   6.074608   8.166941
    40  H    3.197103   4.542213   5.198295   5.387633   8.296911
    41  H    1.071111   2.137695   3.920858   3.414004  10.849832
    42  H    2.116138   1.072853   3.381011   2.145716  13.072310
    43  H    3.921178   3.409326   1.071298   2.145271  13.857920
    44  H    3.392245   2.147946   2.123370   1.072092  14.413965
    45  H   12.343611  13.568757  14.042692  14.369013   1.069626
    46  H   11.177933  12.403607  12.527308  13.032350   2.053785
    47  H   11.626681  12.864431  13.722906  13.854715   2.106111
    48  H    9.502919  10.782061  11.731025  11.824238   3.337157
                   26         27         28         29         30
    26  N    0.000000
    27  C    2.344844   0.000000
    28  C    1.378799   2.834362   0.000000
    29  C    2.698088   1.429539   2.424849   0.000000
    30  C    2.394793   2.446083   1.459292   1.357135   0.000000
    31  O    2.256399   4.065727   1.235212   3.582766   2.399664
    32  H    9.754882   9.011222   8.704926   7.758603   7.563182
    33  H   10.758120  10.629290   9.434075   9.201133   8.522547
    34  H    7.433412   6.931189   6.291309   5.577230   5.173351
    35  H    4.071669   4.971290   2.797969   3.940855   2.727057
    36  H    4.850982   4.050951   3.981567   2.780301   2.695892
    37  H    6.422991   7.010029   5.078593   5.741060   4.649189
    38  H    6.942195   6.393061   5.814084   5.019676   4.632674
    39  H    7.254251   7.964710   5.911707   6.708216   5.576553
    40  H    7.589708   7.907469   6.324614   6.627867   5.726865
    41  H   10.274745  10.319201   9.069792   9.042416   8.343212
    42  H   12.489068  12.577618  11.329158  11.357277  10.677171
    43  H   12.911664  13.733833  11.703808  12.567699  11.518521
    44  H   13.652606  14.101865  12.473276  12.911161  12.053399
    45  H    2.074161   2.132690   3.361128   3.382691   3.862833
    46  H    0.995240   3.244774   2.006609   3.692924   3.280967
    47  H    3.323406   1.069006   3.903316   2.179578   3.404438
    48  H    3.770380   2.153957   3.402685   1.072720   2.100215
                   31         32         33         34         35
    31  O    0.000000
    32  H    8.951268   0.000000
    33  H    9.255179   4.573966   0.000000
    34  H    6.497711   2.568856   4.326340   0.000000
    35  H    2.429771   6.735084   7.232472   4.374313   0.000000
    36  H    4.634432   6.705135   7.144931   4.418181   4.261909
    37  H    4.643418   5.445575   4.979586   3.295343   2.451958
    38  H    6.091031   5.414749   4.856975   3.360296   4.914354
    39  H    5.355736   7.218437   4.927496   5.057438   4.223248
    40  H    6.044286   7.291504   4.852826   5.185139   5.152788
    41  H    8.868949   8.361643   4.865396   6.891354   7.948354
    42  H   11.075593  10.491817   6.593027   9.259263  10.308097
    43  H   11.018874  12.032457   7.810120  10.569851  10.374710
    44  H   12.001875  12.124951   7.867346  10.838985  11.332887
    45  H    4.330107  10.891463  12.374684   8.760908   5.956393
    46  H    2.400137  10.554709  11.416307   8.218869   4.516855
    47  H    5.134460   9.339819  11.227307   7.434790   5.932923
    48  H    4.482342   7.106133   8.765005   5.072717   4.395368
                   36         37         38         39         40
    36  H    0.000000
    37  H    4.909290   0.000000
    38  H    2.450171   4.251214   0.000000
    39  H    5.029179   2.858336   3.952672   0.000000
    40  H    4.385480   4.030532   2.993312   1.741287   0.000000
    41  H    6.435899   6.490751   4.521822   4.218854   2.861891
    42  H    8.725441   8.809830   6.897659   6.362523   5.170134
    43  H   10.442504   8.816163   8.895604   6.237025   6.119178
    44  H   10.466043   9.766094   8.748207   7.145498   6.422295
    45  H    5.911371   8.282218   8.250103   9.165381   9.302098
    46  H    5.737354   6.900277   7.752120   7.660033   8.119541
    47  H    4.557175   7.875945   6.902954   8.849373   8.669901
    48  H    2.378478   5.830285   4.515361   6.816331   6.557320
                   41         42         43         44         45
    41  H    0.000000
    42  H    2.455942   0.000000
    43  H    4.992008   4.280461   0.000000
    44  H    4.278193   2.447708   2.481248   0.000000
    45  H   11.838954  14.022005  14.764002  15.337413   0.000000
    46  H   10.841543  13.000978  13.148086  14.022280   2.341284
    47  H   10.943563  13.176107  14.569223  14.810692   2.491664
    48  H    8.772555  11.093976  12.625353  12.799400   4.266008
                   46         47         48
    46  H    0.000000
    47  H    4.145352   0.000000
    48  H    4.765352   2.482317   0.000000
 Stoichiometry    C23H17N5O2S
 Framework group  C1[X(C23H17N5O2S)]
 Deg. of freedom   138
 Full point group                 C1      NOp   1
 Largest Abelian subgroup         C1      NOp   1
 Largest concise Abelian subgroup C1      NOp   1
                         Standard orientation:                         
 ---------------------------------------------------------------------
 Center     Atomic      Atomic             Coordinates (Angstroms)
 Number     Number       Type             X           Y           Z
 ---------------------------------------------------------------------
      1         16           0       -1.489132    5.351089   -0.142960
      2          6           0        0.253068    4.983240   -0.097700
      3          6           0       -1.848052    3.598689   -0.171060
      4          6           0        0.486088    3.664160   -0.105600
      5          6           0       -0.721681    2.856299   -0.146850
      6          7           0       -0.639311    1.431309   -0.158440
      7          6           0        3.218710   -0.299979    0.143300
      8          6           0        2.651230   -0.035689   -1.105360
      9          6           0        2.476360    0.004160    1.284570
     10          6           0        1.391939    0.532370   -1.202790
     11          6           0        1.215549    0.571680    1.188120
     12          6           0        0.668599    0.834270   -0.057700
     13          6           0       -1.756801    0.639739   -0.254080
     14          6           0       -1.533580   -0.868401   -0.250000
     15          8           0       -2.889641    1.092878   -0.313450
     16          6           0       -3.829830   -1.823772    0.286560
     17          7           0       -2.743990   -1.589652   -0.503100
     18          6           0       -4.683849   -2.567122   -0.518320
     19          7           0       -2.945869   -2.149122   -1.730300
     20          7           0       -4.073849   -2.727382   -1.752160
     21          6           0       -4.167900   -1.490892    1.600930
     22          6           0       -5.382700   -1.944033    2.056300
     23          6           0       -5.916599   -3.020193   -0.050070
     24          6           0       -6.253339   -2.703713    1.242950
     25          6           0        7.141660   -1.959868    0.558830
     26          7           0        6.290001   -2.398038   -0.413590
     27          6           0        6.758330   -0.977878    1.392540
     28          6           0        5.019350   -1.913359   -0.640790
     29          6           0        5.448540   -0.429228    1.228180
     30          6           0        4.585980   -0.862329    0.274120
     31          8           0        4.352761   -2.379539   -1.570350
     32          1           0        0.970377    5.771600   -0.072480
     33          1           0       -2.853932    3.266308   -0.211550
     34          1           0        1.470598    3.251960   -0.087240
     35          1           0        3.185170   -0.291419   -1.994940
     36          1           0        2.873120   -0.221849    2.254960
     37          1           0        0.969339    0.744440   -2.165790
     38          1           0        0.658269    0.810070    2.073520
     39          1           0       -0.831410   -1.154371   -1.016050
     40          1           0       -1.116510   -1.171861    0.701650
     41          1           0       -3.527420   -0.894582    2.218570
     42          1           0       -5.687110   -1.708863    3.057820
     43          1           0       -6.563629   -3.590163   -0.685810
     44          1           0       -7.191309   -3.028453    1.648090
     45          1           0        8.098811   -2.435477    0.600780
     46          1           0        6.571481   -3.122348   -1.035400
     47          1           0        7.412350   -0.613458    2.155580
     48          1           0        5.147650    0.365611    1.882720
 ---------------------------------------------------------------------
 Rotational constants (GHZ):      0.1635413      0.0754414      0.0563005
 Leave Link  202 at Sat Sep  3 00:11:34 2022, MaxMem=  209715200 cpu:       0.0
 (Enter /opt/gaussian/l301.exe)
 Standard basis: CC-pVDZ (5D, 7F)
 Ernie: Thresh=  0.10000D-02 Tol=  0.10000D-05 Strict=F.
 Ernie:  70 primitive shells out of 795 were deleted.
 There are   523 symmetry adapted basis functions of A   symmetry.
 Integral buffers will be    131072 words long.
 Raffenetti 2 integral format.
 Two-electron integral symmetry is turned on.
   523 basis functions,  1180 primitive gaussians,   554 cartesian basis functions
   111 alpha electrons      111 beta electrons
       nuclear repulsion energy      2913.0117892290 Hartrees.
 IExCor=  402 DFT=T Ex+Corr=B3LYP ExCW=0 ScaHFX=  0.200000
 ScaDFX=  0.800000  0.720000  1.000000  0.810000 ScalE2=  1.000000  1.000000
 IRadAn=      0 IRanWt=     -1 IRanGd=            0 ICorTp=0
 NAtoms=   48 NActive=   48 NUniq=   48 SFac= 1.00D+00 NAtFMM=   60 NAOKFM=F Big=F
 Leave Link  301 at Sat Sep  3 00:11:34 2022, MaxMem=  209715200 cpu:       0.3
 (Enter /opt/gaussian/l302.exe)
 NPDir=0 NMtPBC=     1 NCelOv=     1 NCel=       1 NClECP=     1 NCelD=      1
         NCelK=      1 NCelE2=     1 NClLst=     1 CellRange=     0.0.
 One-electron integrals computed using PRISM.
 NBasis=   523 RedAO= T  NBF=   523
 NBsUse=   523 1.00D-06 NBFU=   523
 Precomputing XC quadrature grid using
 IXCGrd= 2 IRadAn=           0 IRanWt=          -1 IRanGd=           0 AccXCQ= 0.00D+00.
 NRdTot=    3098 NPtTot=      395776 NUsed=      418099 NTot=      418131
 NSgBfM=   529   533   534   534   534 NAtAll=    48    48.
 Leave Link  302 at Sat Sep  3 00:11:35 2022, MaxMem=  209715200 cpu:       7.3
 (Enter /opt/gaussian/l303.exe)
 DipDrv:  MaxL=1.
 Leave Link  303 at Sat Sep  3 00:11:35 2022, MaxMem=  209715200 cpu:       1.1
 (Enter /opt/gaussian/l401.exe)
 Harris functional with IExCor=  402 diagonalized for initial guess.
 ExpMin= 1.22D-01 ExpMax= 1.11D+05 ExpMxC= 1.07D+03 IAcc=2 IRadAn=         4 AccDes= 0.00D+00
 HarFok:  IExCor=  402 AccDes= 0.00D+00 IRadAn=         4 IDoV= 1
 ScaDFX=  1.000000  1.000000  1.000000  1.000000
 FoFCou: FMM=F IPFlag=           0 FMFlag=      100000 FMFlg1=           0
         NFxFlg=           0 DoJE=T BraDBF=F KetDBF=T FulRan=T
         Omega=  0.000000  0.000000  1.000000  0.000000  0.000000 ICntrl=     500 IOpCl=  0
         NMat0=    1 NMatS0=    1 NMatT0=    0 NMatD0=    1 NMtDS0=    0 NMtDT0=    0
         I1Cent=           4 NGrid=           0.
 Petite list used in FoFCou.
 Harris En= -1708.96683637439    
 Initial guess orbital symmetries:
       Occupied  (A) (A) (A) (A) (A) (A) (A) (A) (A) (A) (A) (A)
                 (A) (A) (A) (A) (A) (A) (A) (A) (A) (A) (A) (A)
                 (A) (A) (A) (A) (A) (A) (A) (A) (A) (A) (A) (A)
                 (A) (A) (A) (A) (A) (A) (A) (A) (A) (A) (A) (A)
                 (A) (A) (A) (A) (A) (A) (A) (A) (A) (A) (A) (A)
                 (A) (A) (A) (A) (A) (A) (A) (A) (A) (A) (A) (A)
                 (A) (A) (A) (A) (A) (A) (A) (A) (A) (A) (A) (A)
                 (A) (A) (A) (A) (A) (A) (A) (A) (A) (A) (A) (A)
                 (A) (A) (A) (A) (A) (A) (A) (A) (A) (A) (A) (A)
                 (A) (A) (A)
       Virtual   (A) (A) (A) (A) (A) (A) (A) (A) (A) (A) (A) (A)
                 (A) (A) (A) (A) (A) (A) (A) (A) (A) (A) (A) (A)
                 (A) (A) (A) (A) (A) (A) (A) (A) (A) (A) (A) (A)
                 (A) (A) (A) (A) (A) (A) (A) (A) (A) (A) (A) (A)
                 (A) (A) (A) (A) (A) (A) (A) (A) (A) (A) (A) (A)
                 (A) (A) (A) (A) (A) (A) (A) (A) (A) (A) (A) (A)
                 (A) (A) (A) (A) (A) (A) (A) (A) (A) (A) (A) (A)
                 (A) (A) (A) (A) (A) (A) (A) (A) (A) (A) (A) (A)
                 (A) (A) (A) (A) (A) (A) (A) (A) (A) (A) (A) (A)
                 (A) (A) (A) (A) (A) (A) (A) (A) (A) (A) (A) (A)
                 (A) (A) (A) (A) (A) (A) (A) (A) (A) (A) (A) (A)
                 (A) (A) (A) (A) (A) (A) (A) (A) (A) (A) (A) (A)
                 (A) (A) (A) (A) (A) (A) (A) (A) (A) (A) (A) (A)
                 (A) (A) (A) (A) (A) (A) (A) (A) (A) (A) (A) (A)
                 (A) (A) (A) (A) (A) (A) (A) (A) (A) (A) (A) (A)
                 (A) (A) (A) (A) (A) (A) (A) (A) (A) (A) (A) (A)
                 (A) (A) (A) (A) (A) (A) (A) (A) (A) (A) (A) (A)
                 (A) (A) (A) (A) (A) (A) (A) (A) (A) (A) (A) (A)
                 (A) (A) (A) (A) (A) (A) (A) (A) (A) (A) (A) (A)
                 (A) (A) (A) (A) (A) (A) (A) (A) (A) (A) (A) (A)
                 (A) (A) (A) (A) (A) (A) (A) (A) (A) (A) (A) (A)
                 (A) (A) (A) (A) (A) (A) (A) (A) (A) (A) (A) (A)
                 (A) (A) (A) (A) (A) (A) (A) (A) (A) (A) (A) (A)
                 (A) (A) (A) (A) (A) (A) (A) (A) (A) (A) (A) (A)
                 (A) (A) (A) (A) (A) (A) (A) (A) (A) (A) (A) (A)
                 (A) (A) (A) (A) (A) (A) (A) (A) (A) (A) (A) (A)
                 (A) (A) (A) (A) (A) (A) (A) (A) (A) (A) (A) (A)
                 (A) (A) (A) (A) (A) (A) (A) (A) (A) (A) (A) (A)
                 (A) (A) (A) (A) (A) (A) (A) (A) (A) (A) (A) (A)
                 (A) (A) (A) (A) (A) (A) (A) (A) (A) (A) (A) (A)
                 (A) (A) (A) (A) (A) (A) (A) (A) (A) (A) (A) (A)
                 (A) (A) (A) (A) (A) (A) (A) (A) (A) (A) (A) (A)
                 (A) (A) (A) (A) (A) (A) (A) (A) (A) (A) (A) (A)
                 (A) (A) (A) (A) (A) (A) (A) (A) (A) (A) (A) (A)
                 (A) (A) (A) (A)
 The electronic state of the initial guess is 1-A.
 Leave Link  401 at Sat Sep  3 00:11:38 2022, MaxMem=  209715200 cpu:      22.5
 (Enter /opt/gaussian/l502.exe)
 Closed shell SCF:
 Requested convergence on RMS density matrix=1.00D-08 within 128 cycles.
 Requested convergence on MAX density matrix=1.00D-06.
 Requested convergence on             energy=1.00D-06.
 No special actions if energy rises.
 Using DIIS extrapolation, IDIIS=  1040.
 Integral symmetry usage will be decided dynamically.
       417654 words used for storage of precomputed grid.
 IEnd=     1365162 IEndB=     1365162 NGot=   209715200 MDV=   208674149
 LenX=   208674149 LenY=   208366679
 Fock matrices will be formed incrementally for  20 cycles.
 Integral accuracy reduced to 1.0D-05 until final iterations.

 Cycle   1  Pass 0  IDiag  1:
 FoFCou: FMM=F IPFlag=           0 FMFlag=      100000 FMFlg1=           0
         NFxFlg=           0 DoJE=F BraDBF=F KetDBF=F FulRan=T
         Omega=  0.000000  0.000000  1.000000  0.000000  0.000000 ICntrl=       0 IOpCl=  0
         NMat0=    1 NMatS0=    1 NMatT0=    0 NMatD0=    1 NMtDS0=    0 NMtDT0=    0
         I1Cent=           0 NGrid=           0.
 Symmetry not used in FoFCou.
 E= -1708.43887713638    
 DIIS: error= 1.90D-02 at cycle   1 NSaved=   1.
 NSaved= 1 IEnMin= 1 EnMin= -1708.43887713638     IErMin= 1 ErrMin= 1.90D-02
 ErrMax= 1.90D-02 EMaxC= 1.00D-01 BMatC= 6.69D-01 BMatP= 6.69D-01
 IDIUse=3 WtCom= 8.10D-01 WtEn= 1.90D-01
 Coeff-Com:  0.100D+01
 Coeff-En:   0.100D+01
 Coeff:      0.100D+01
 Gap=     0.233 Goal=   None    Shift=    0.000
 GapD=    0.233 DampG=1.000 DampE=0.500 DampFc=0.5000 IDamp=-1.
 Damping current iteration by 5.00D-01
 RMSDP=4.79D-03 MaxDP=2.26D-01              OVMax= 3.16D-01

 Cycle   2  Pass 0  IDiag  1:
 RMSU=  1.68D-03    CP:  9.82D-01
 E= -1708.59270189053     Delta-E=       -0.153824754156 Rises=F Damp=T
 DIIS: error= 1.02D-02 at cycle   2 NSaved=   2.
 NSaved= 2 IEnMin= 2 EnMin= -1708.59270189053     IErMin= 2 ErrMin= 1.02D-02
 ErrMax= 1.02D-02 EMaxC= 1.00D-01 BMatC= 1.43D-01 BMatP= 6.69D-01
 IDIUse=3 WtCom= 8.98D-01 WtEn= 1.02D-01
 Coeff-Com:  0.262D+00 0.738D+00
 Coeff-En:   0.387D+00 0.613D+00
 Coeff:      0.274D+00 0.726D+00
 Gap=     0.224 Goal=   None    Shift=    0.000
 RMSDP=1.58D-03 MaxDP=8.40D-02 DE=-1.54D-01 OVMax= 2.82D-01

 Cycle   3  Pass 0  IDiag  1:
 RMSU=  9.94D-04    CP:  9.66D-01  7.16D-01
 E= -1709.05108581895     Delta-E=       -0.458383928419 Rises=F Damp=F
 DIIS: error= 1.02D-02 at cycle   3 NSaved=   3.
 NSaved= 3 IEnMin= 3 EnMin= -1709.05108581895     IErMin= 2 ErrMin= 1.02D-02
 ErrMax= 1.02D-02 EMaxC= 1.00D-01 BMatC= 1.02D-01 BMatP= 1.43D-01
 IDIUse=3 WtCom= 8.98D-01 WtEn= 1.02D-01
 Coeff-Com:  0.906D-01 0.449D+00 0.460D+00
 Coeff-En:   0.000D+00 0.000D+00 0.100D+01
 Coeff:      0.813D-01 0.403D+00 0.516D+00
 Gap=     0.151 Goal=   None    Shift=    0.000
 RMSDP=8.52D-04 MaxDP=5.46D-02 DE=-4.58D-01 OVMax= 9.75D-02

 Cycle   4  Pass 0  IDiag  1:
 RMSU=  4.38D-04    CP:  9.71D-01  8.23D-01  6.30D-01
 E= -1709.12400500391     Delta-E=       -0.072919184965 Rises=F Damp=F
 DIIS: error= 4.44D-03 at cycle   4 NSaved=   4.
 NSaved= 4 IEnMin= 4 EnMin= -1709.12400500391     IErMin= 4 ErrMin= 4.44D-03
 ErrMax= 4.44D-03 EMaxC= 1.00D-01 BMatC= 2.22D-02 BMatP= 1.02D-01
 IDIUse=3 WtCom= 9.56D-01 WtEn= 4.44D-02
 Coeff-Com:  0.240D-01 0.137D+00 0.330D+00 0.509D+00
 Coeff-En:   0.000D+00 0.000D+00 0.211D+00 0.789D+00
 Coeff:      0.229D-01 0.131D+00 0.324D+00 0.521D+00
 Gap=     0.149 Goal=   None    Shift=    0.000
 RMSDP=3.84D-04 MaxDP=2.60D-02 DE=-7.29D-02 OVMax= 4.33D-02

 Cycle   5  Pass 0  IDiag  1:
 RMSU=  1.53D-04    CP:  9.70D-01  7.85D-01  7.16D-01  5.51D-01
 E= -1709.14229235561     Delta-E=       -0.018287351691 Rises=F Damp=F
 DIIS: error= 1.65D-03 at cycle   5 NSaved=   5.
 NSaved= 5 IEnMin= 5 EnMin= -1709.14229235561     IErMin= 5 ErrMin= 1.65D-03
 ErrMax= 1.65D-03 EMaxC= 1.00D-01 BMatC= 2.50D-03 BMatP= 2.22D-02
 IDIUse=3 WtCom= 9.84D-01 WtEn= 1.65D-02
 Coeff-Com:  0.461D-02 0.266D-01 0.146D+00 0.341D+00 0.482D+00
 Coeff-En:   0.000D+00 0.000D+00 0.000D+00 0.105D+00 0.895D+00
 Coeff:      0.454D-02 0.261D-01 0.144D+00 0.337D+00 0.489D+00
 Gap=     0.152 Goal=   None    Shift=    0.000
 RMSDP=1.29D-04 MaxDP=8.57D-03 DE=-1.83D-02 OVMax= 1.74D-02

 Cycle   6  Pass 0  IDiag  1:
 RMSU=  4.41D-05    CP:  9.69D-01  7.85D-01  7.23D-01  6.42D-01  5.53D-01
 E= -1709.14486386584     Delta-E=       -0.002571510239 Rises=F Damp=F
 DIIS: error= 4.91D-04 at cycle   6 NSaved=   6.
 NSaved= 6 IEnMin= 6 EnMin= -1709.14486386584     IErMin= 6 ErrMin= 4.91D-04
 ErrMax= 4.91D-04 EMaxC= 1.00D-01 BMatC= 2.62D-04 BMatP= 2.50D-03
 IDIUse=3 WtCom= 9.95D-01 WtEn= 4.91D-03
 Coeff-Com:  0.246D-03-0.232D-02 0.476D-01 0.145D+00 0.302D+00 0.508D+00
 Coeff-En:   0.000D+00 0.000D+00 0.000D+00 0.000D+00 0.472D-01 0.953D+00
 Coeff:      0.244D-03-0.231D-02 0.474D-01 0.144D+00 0.301D+00 0.510D+00
 Gap=     0.151 Goal=   None    Shift=    0.000
 RMSDP=3.91D-05 MaxDP=2.51D-03 DE=-2.57D-03 OVMax= 4.68D-03

 Cycle   7  Pass 0  IDiag  1:
 RMSU=  1.78D-05    CP:  9.69D-01  7.87D-01  7.25D-01  6.40D-01  5.95D-01
                    CP:  5.54D-01
 E= -1709.14509976992     Delta-E=       -0.000235904078 Rises=F Damp=F
 DIIS: error= 1.89D-04 at cycle   7 NSaved=   7.
 NSaved= 7 IEnMin= 7 EnMin= -1709.14509976992     IErMin= 7 ErrMin= 1.89D-04
 ErrMax= 1.89D-04 EMaxC= 1.00D-01 BMatC= 3.83D-05 BMatP= 2.62D-04
 IDIUse=3 WtCom= 9.98D-01 WtEn= 1.89D-03
 Coeff-Com: -0.151D-03-0.435D-02 0.133D-01 0.502D-01 0.132D+00 0.326D+00
 Coeff-Com:  0.483D+00
 Coeff-En:   0.000D+00 0.000D+00 0.000D+00 0.000D+00 0.000D+00 0.965D-01
 Coeff-En:   0.904D+00
 Coeff:     -0.150D-03-0.435D-02 0.133D-01 0.501D-01 0.131D+00 0.326D+00
 Coeff:      0.484D+00
 Gap=     0.151 Goal=   None    Shift=    0.000
 RMSDP=1.44D-05 MaxDP=8.38D-04 DE=-2.36D-04 OVMax= 1.35D-03

 Cycle   8  Pass 0  IDiag  1:
 RMSU=  5.72D-06    CP:  9.69D-01  7.86D-01  7.26D-01  6.41D-01  6.03D-01
                    CP:  6.40D-01  6.00D-01
 E= -1709.14513536899     Delta-E=       -0.000035599071 Rises=F Damp=F
 DIIS: error= 5.00D-05 at cycle   8 NSaved=   8.
 NSaved= 8 IEnMin= 8 EnMin= -1709.14513536899     IErMin= 8 ErrMin= 5.00D-05
 ErrMax= 5.00D-05 EMaxC= 1.00D-01 BMatC= 3.61D-06 BMatP= 3.83D-05
 IDIUse=1 WtCom= 1.00D+00 WtEn= 0.00D+00
 Coeff-Com: -0.257D-04-0.254D-02 0.464D-02 0.191D-01 0.561D-01 0.160D+00
 Coeff-Com:  0.300D+00 0.464D+00
 Coeff:     -0.257D-04-0.254D-02 0.464D-02 0.191D-01 0.561D-01 0.160D+00
 Coeff:      0.300D+00 0.464D+00
 Gap=     0.151 Goal=   None    Shift=    0.000
 RMSDP=4.56D-06 MaxDP=3.45D-04 DE=-3.56D-05 OVMax= 4.07D-04

 Initial convergence to 1.0D-05 achieved.  Increase integral accuracy.
 Cycle   9  Pass 1  IDiag  1:
 E= -1709.14520265986     Delta-E=       -0.000067290870 Rises=F Damp=F
 DIIS: error= 1.85D-04 at cycle   1 NSaved=   1.
 NSaved= 1 IEnMin= 1 EnMin= -1709.14520265986     IErMin= 1 ErrMin= 1.85D-04
 ErrMax= 1.85D-04 EMaxC= 1.00D-01 BMatC= 9.71D-06 BMatP= 9.71D-06
 IDIUse=3 WtCom= 9.98D-01 WtEn= 1.85D-03
 Coeff-Com:  0.100D+01
 Coeff-En:   0.100D+01
 Coeff:      0.100D+01
 Gap=     0.151 Goal=   None    Shift=    0.000
 RMSDP=4.56D-06 MaxDP=3.45D-04 DE=-6.73D-05 OVMax= 5.80D-04

 Cycle  10  Pass 1  IDiag  1:
 RMSU=  9.82D-05    CP:  1.00D+00
 E= -1709.14521061784     Delta-E=       -0.000007957981 Rises=F Damp=F
 DIIS: error= 4.72D-05 at cycle   2 NSaved=   2.
 NSaved= 2 IEnMin= 2 EnMin= -1709.14521061784     IErMin= 2 ErrMin= 4.72D-05
 ErrMax= 4.72D-05 EMaxC= 1.00D-01 BMatC= 1.53D-06 BMatP= 9.71D-06
 IDIUse=1 WtCom= 1.00D+00 WtEn= 0.00D+00
 Coeff-Com:  0.173D+00 0.827D+00
 Coeff:      0.173D+00 0.827D+00
 Gap=     0.151 Goal=   None    Shift=    0.000
 RMSDP=6.87D-06 MaxDP=4.53D-04 DE=-7.96D-06 OVMax= 8.20D-04

 Cycle  11  Pass 1  IDiag  1:
 RMSU=  4.76D-06    CP:  1.00D+00  1.01D+00
 E= -1709.14520820477     Delta-E=        0.000002413072 Rises=F Damp=F
 DIIS: error= 8.40D-05 at cycle   3 NSaved=   3.
 NSaved= 3 IEnMin= 2 EnMin= -1709.14521061784     IErMin= 2 ErrMin= 4.72D-05
 ErrMax= 8.40D-05 EMaxC= 1.00D-01 BMatC= 4.31D-06 BMatP= 1.53D-06
 IDIUse=1 WtCom= 1.00D+00 WtEn= 0.00D+00
 Coeff-Com: -0.231D-02 0.629D+00 0.374D+00
 Coeff:     -0.231D-02 0.629D+00 0.374D+00
 Gap=     0.151 Goal=   None    Shift=    0.000
 RMSDP=4.38D-06 MaxDP=3.05D-04 DE= 2.41D-06 OVMax= 5.60D-04

 Cycle  12  Pass 1  IDiag  1:
 RMSU=  5.11D-07    CP:  1.00D+00  1.01D+00  3.62D-01
 E= -1709.14521193828     Delta-E=       -0.000003733510 Rises=F Damp=F
 DIIS: error= 5.69D-06 at cycle   4 NSaved=   4.
 NSaved= 4 IEnMin= 4 EnMin= -1709.14521193828     IErMin= 4 ErrMin= 5.69D-06
 ErrMax= 5.69D-06 EMaxC= 1.00D-01 BMatC= 4.16D-08 BMatP= 1.53D-06
 IDIUse=1 WtCom= 1.00D+00 WtEn= 0.00D+00
 Coeff-Com: -0.399D-02 0.377D+00 0.231D+00 0.396D+00
 Coeff:     -0.399D-02 0.377D+00 0.231D+00 0.396D+00
 Gap=     0.151 Goal=   None    Shift=    0.000
 RMSDP=4.11D-07 MaxDP=2.95D-05 DE=-3.73D-06 OVMax= 4.24D-05

 Cycle  13  Pass 1  IDiag  1:
 RMSU=  1.69D-07    CP:  1.00D+00  1.01D+00  3.76D-01  5.58D-01
 E= -1709.14521197678     Delta-E=       -0.000000038496 Rises=F Damp=F
 DIIS: error= 7.35D-07 at cycle   5 NSaved=   5.
 NSaved= 5 IEnMin= 5 EnMin= -1709.14521197678     IErMin= 5 ErrMin= 7.35D-07
 ErrMax= 7.35D-07 EMaxC= 1.00D-01 BMatC= 8.64D-10 BMatP= 4.16D-08
 IDIUse=1 WtCom= 1.00D+00 WtEn= 0.00D+00
 Coeff-Com: -0.192D-02 0.163D+00 0.101D+00 0.205D+00 0.533D+00
 Coeff:     -0.192D-02 0.163D+00 0.101D+00 0.205D+00 0.533D+00
 Gap=     0.151 Goal=   None    Shift=    0.000
 RMSDP=6.99D-08 MaxDP=3.75D-06 DE=-3.85D-08 OVMax= 6.89D-06

 Cycle  14  Pass 1  IDiag  1:
 RMSU=  4.47D-08    CP:  1.00D+00  1.01D+00  3.77D-01  5.77D-01  8.90D-01
 E= -1709.14521197751     Delta-E=       -0.000000000730 Rises=F Damp=F
 DIIS: error= 2.99D-07 at cycle   6 NSaved=   6.
 NSaved= 6 IEnMin= 6 EnMin= -1709.14521197751     IErMin= 6 ErrMin= 2.99D-07
 ErrMax= 2.99D-07 EMaxC= 1.00D-01 BMatC= 1.24D-10 BMatP= 8.64D-10
 IDIUse=1 WtCom= 1.00D+00 WtEn= 0.00D+00
 Coeff-Com: -0.592D-03 0.465D-01 0.289D-01 0.681D-01 0.307D+00 0.551D+00
 Coeff:     -0.592D-03 0.465D-01 0.289D-01 0.681D-01 0.307D+00 0.551D+00
 Gap=     0.151 Goal=   None    Shift=    0.000
 RMSDP=3.25D-08 MaxDP=1.87D-06 DE=-7.30D-10 OVMax= 4.34D-06

 Cycle  15  Pass 1  IDiag  1:
 RMSU=  1.64D-08    CP:  1.00D+00  1.01D+00  3.76D-01  5.84D-01  9.18D-01
                    CP:  6.69D-01
 E= -1709.14521197762     Delta-E=       -0.000000000111 Rises=F Damp=F
 DIIS: error= 1.48D-07 at cycle   7 NSaved=   7.
 NSaved= 7 IEnMin= 7 EnMin= -1709.14521197762     IErMin= 7 ErrMin= 1.48D-07
 ErrMax= 1.48D-07 EMaxC= 1.00D-01 BMatC= 3.03D-11 BMatP= 1.24D-10
 IDIUse=1 WtCom= 1.00D+00 WtEn= 0.00D+00
 Coeff-Com: -0.415D-04 0.729D-03 0.536D-03 0.737D-02 0.104D+00 0.370D+00
 Coeff-Com:  0.517D+00
 Coeff:     -0.415D-04 0.729D-03 0.536D-03 0.737D-02 0.104D+00 0.370D+00
 Coeff:      0.517D+00
 Gap=     0.151 Goal=   None    Shift=    0.000
 RMSDP=1.29D-08 MaxDP=6.82D-07 DE=-1.11D-10 OVMax= 1.37D-06

 Cycle  16  Pass 1  IDiag  1:
 RMSU=  5.22D-09    CP:  1.00D+00  1.01D+00  3.77D-01  5.86D-01  9.27D-01
                    CP:  7.47D-01  6.19D-01
 E= -1709.14521197765     Delta-E=       -0.000000000029 Rises=F Damp=F
 DIIS: error= 5.40D-08 at cycle   8 NSaved=   8.
 NSaved= 8 IEnMin= 8 EnMin= -1709.14521197765     IErMin= 8 ErrMin= 5.40D-08
 ErrMax= 5.40D-08 EMaxC= 1.00D-01 BMatC= 3.19D-12 BMatP= 3.03D-11
 IDIUse=1 WtCom= 1.00D+00 WtEn= 0.00D+00
 Coeff-Com:  0.401D-04-0.487D-02-0.300D-02-0.307D-02 0.317D-01 0.177D+00
 Coeff-Com:  0.320D+00 0.482D+00
 Coeff:      0.401D-04-0.487D-02-0.300D-02-0.307D-02 0.317D-01 0.177D+00
 Coeff:      0.320D+00 0.482D+00
 Gap=     0.151 Goal=   None    Shift=    0.000
 RMSDP=4.23D-09 MaxDP=3.53D-07 DE=-2.91D-11 OVMax= 5.34D-07

 SCF Done:  E(RB3LYP) =  -1709.14521198     A.U. after   16 cycles
             Convg  =    0.4229D-08             -V/T =  2.0049
 KE= 1.700833744876D+03 PE=-9.822812806221D+03 EE= 3.499822060138D+03
 Leave Link  502 at Sat Sep  3 00:22:39 2022, MaxMem=  209715200 cpu:    5276.7
 (Enter /opt/gaussian/l601.exe)
 Copying SCF densities to generalized density rwf, IOpCl= 0 IROHF=0.

 **********************************************************************

            Population analysis using the SCF density.

 **********************************************************************

 Orbital symmetries:
       Occupied  (A) (A) (A) (A) (A) (A) (A) (A) (A) (A) (A) (A)
                 (A) (A) (A) (A) (A) (A) (A) (A) (A) (A) (A) (A)
                 (A) (A) (A) (A) (A) (A) (A) (A) (A) (A) (A) (A)
                 (A) (A) (A) (A) (A) (A) (A) (A) (A) (A) (A) (A)
                 (A) (A) (A) (A) (A) (A) (A) (A) (A) (A) (A) (A)
                 (A) (A) (A) (A) (A) (A) (A) (A) (A) (A) (A) (A)
                 (A) (A) (A) (A) (A) (A) (A) (A) (A) (A) (A) (A)
                 (A) (A) (A) (A) (A) (A) (A) (A) (A) (A) (A) (A)
                 (A) (A) (A) (A) (A) (A) (A) (A) (A) (A) (A) (A)
                 (A) (A) (A)
       Virtual   (A) (A) (A) (A) (A) (A) (A) (A) (A) (A) (A) (A)
                 (A) (A) (A) (A) (A) (A) (A) (A) (A) (A) (A) (A)
                 (A) (A) (A) (A) (A) (A) (A) (A) (A) (A) (A) (A)
                 (A) (A) (A) (A) (A) (A) (A) (A) (A) (A) (A) (A)
                 (A) (A) (A) (A) (A) (A) (A) (A) (A) (A) (A) (A)
                 (A) (A) (A) (A) (A) (A) (A) (A) (A) (A) (A) (A)
                 (A) (A) (A) (A) (A) (A) (A) (A) (A) (A) (A) (A)
                 (A) (A) (A) (A) (A) (A) (A) (A) (A) (A) (A) (A)
                 (A) (A) (A) (A) (A) (A) (A) (A) (A) (A) (A) (A)
                 (A) (A) (A) (A) (A) (A) (A) (A) (A) (A) (A) (A)
                 (A) (A) (A) (A) (A) (A) (A) (A) (A) (A) (A) (A)
                 (A) (A) (A) (A) (A) (A) (A) (A) (A) (A) (A) (A)
                 (A) (A) (A) (A) (A) (A) (A) (A) (A) (A) (A) (A)
                 (A) (A) (A) (A) (A) (A) (A) (A) (A) (A) (A) (A)
                 (A) (A) (A) (A) (A) (A) (A) (A) (A) (A) (A) (A)
                 (A) (A) (A) (A) (A) (A) (A) (A) (A) (A) (A) (A)
                 (A) (A) (A) (A) (A) (A) (A) (A) (A) (A) (A) (A)
                 (A) (A) (A) (A) (A) (A) (A) (A) (A) (A) (A) (A)
                 (A) (A) (A) (A) (A) (A) (A) (A) (A) (A) (A) (A)
                 (A) (A) (A) (A) (A) (A) (A) (A) (A) (A) (A) (A)
                 (A) (A) (A) (A) (A) (A) (A) (A) (A) (A) (A) (A)
                 (A) (A) (A) (A) (A) (A) (A) (A) (A) (A) (A) (A)
                 (A) (A) (A) (A) (A) (A) (A) (A) (A) (A) (A) (A)
                 (A) (A) (A) (A) (A) (A) (A) (A) (A) (A) (A) (A)
                 (A) (A) (A) (A) (A) (A) (A) (A) (A) (A) (A) (A)
                 (A) (A) (A) (A) (A) (A) (A) (A) (A) (A) (A) (A)
                 (A) (A) (A) (A) (A) (A) (A) (A) (A) (A) (A) (A)
                 (A) (A) (A) (A) (A) (A) (A) (A) (A) (A) (A) (A)
                 (A) (A) (A) (A) (A) (A) (A) (A) (A) (A) (A) (A)
                 (A) (A) (A) (A) (A) (A) (A) (A) (A) (A) (A) (A)
                 (A) (A) (A) (A) (A) (A) (A) (A) (A) (A) (A) (A)
                 (A) (A) (A) (A) (A) (A) (A) (A) (A) (A) (A) (A)
                 (A) (A) (A) (A) (A) (A) (A) (A) (A) (A) (A) (A)
                 (A) (A) (A) (A) (A) (A) (A) (A) (A) (A) (A) (A)
                 (A) (A) (A) (A)
 The electronic state is 1-A.
 Alpha  occ. eigenvalues --  -88.90228 -19.12231 -19.10952 -14.40423 -14.40203
 Alpha  occ. eigenvalues --  -14.38930 -14.38170 -14.33917 -10.30123 -10.30004
 Alpha  occ. eigenvalues --  -10.26364 -10.24597 -10.24558 -10.23638 -10.22603
 Alpha  occ. eigenvalues --  -10.22217 -10.22088 -10.22032 -10.21468 -10.21194
 Alpha  occ. eigenvalues --  -10.21141 -10.21075 -10.20795 -10.20456 -10.20292
 Alpha  occ. eigenvalues --  -10.20092 -10.19439 -10.19400 -10.19084 -10.18892
 Alpha  occ. eigenvalues --  -10.18492  -7.96305  -5.92655  -5.92292  -5.91900
 Alpha  occ. eigenvalues --   -1.09576  -1.05679  -1.05098  -0.97520  -0.97183
 Alpha  occ. eigenvalues --   -0.92278  -0.88791  -0.86849  -0.86513  -0.84493
 Alpha  occ. eigenvalues --   -0.79777  -0.77984  -0.77525  -0.76801  -0.75992
 Alpha  occ. eigenvalues --   -0.74897  -0.73187  -0.72069  -0.67988  -0.66738
[...]
 0001391,-0.00000491,0.00000344,-0.00001988,0.00000635,-0.00069276,-0.0
 0054030,0.00058729,0.00018232,0.00002607,0.00009272,-0.00009093,-0.000
 00839,-0.00019418,0.00005462,0.00009661,0.00004192,0.00000472,0.000011
 03,0.00006837,-0.00001960,-0.00000534,-0.00001569,-0.00000921,0.000004
 59,0.00000685,-0.00000293,-0.00000164,-0.00000380,0.00000774,-0.000006
 10,-0.00000136,-0.00000210,0.00000065,0.00000139,0.00000274,0.00000103
 ,0.00000212,0.00000006,0.00000071,0.00000021,0.00000091,-0.00000360,-0
 .00000250,0.00000269,0.00000085,0.00000088,0.00000092,-0.00000060,-0.0
 0000005,-0.00000017,-0.00000041,0.00000063,-0.00000040,-0.00000062,-0.
 00000002,0.00000015,-0.00000046,0.00000012,0.12454383,-0.10498256,-0.0
 0593198,-0.00939824,0.00672203,-0.00135769,0.01707491,-0.00095051,0.00
 279606,0.00084671,0.00267852,-0.00265759,0.00225668,0.00256132,-0.0062
 2587,-0.00010588,0.00001071,-0.00026749,-0.00052861,-0.00008242,-0.000
 43618,0.00000028,-0.00000027,-0.00000088,-0.00000016,0.00000098,-0.000
 00062,0.00000102,0.00000353,-0.00000209,-0.00001322,-0.00010491,-0.000
 00965,-0.00000916,0.00002875,0.00006495,0.00000737,-0.00000173,0.00000
 029,-0.00000793,0.00000727,-0.00000208,-0.00000165,-0.00000074,-0.0000
 0155,-0.00000062,0.00000041,0.00000212,-0.00000054,0.00000091,0.,-0.00
 000022,0.00000020,-0.00000034,-0.00000020,0.00000045,0.,0.00000015,0.0
 0000037,-0.00000024,-0.13197688,0.09857158,0.00000244,-0.00000113,-0.0
 0000024,-0.00000124,0.00000292,-0.00000008,0.00000201,0.00000036,-0.00
 000031,-0.00000211,-0.00000041,-0.00000007,0.00000203,-0.00000113,0.00
 000429,0.00001063,0.00001285,0.00000697,0.00061194,0.00044670,-0.00007
 607,-0.00005698,-0.00002152,-0.00019355,0.00004973,0.00004221,0.000075
 25,-0.00001689,-0.00008384,0.00002210,-0.00002588,0.00002068,0.0000139
 2,-0.00000400,-0.00000279,0.00001634,-0.00001691,-0.00001746,-0.000005
 99,-0.00000387,-0.00000040,0.00000040,0.00001042,0.00000467,0.00000091
 ,-0.00000197,-0.00000084,0.00000284,0.00000206,0.00000245,0.00000073,-
 0.00000002,0.00000020,0.00000112,-0.00000091,-0.00000097,-0.00000405,0
 .00000237,0.00000215,0.00000012,-0.00000009,-0.00000005,-0.00000128,-0
 .00000067,0.00000028,-0.00000002,0.00000014,0.00000033,-0.00000008,0.0
 0000014,0.00000053,-0.00000008,-0.00539602,-0.00844728,-0.05323528,-0.
 03051424,0.01313832,-0.00165592,0.01878237,-0.00843884,0.00798130,0.00
 179754,-0.00501173,-0.00114630,-0.00082903,-0.00560264,-0.00127587,-0.
 00067643,0.00029508,-0.00000413,-0.00203842,0.00050212,-0.00131458,-0.
 00000046,0.00000059,0.00000027,-0.00000036,-0.00000053,0.00000034,-0.0
 0000035,-0.00000036,-0.00000072,0.00004133,-0.00000403,0.00004612,-0.0
 0002701,-0.00004693,0.00002960,0.00000196,-0.00000100,0.00000051,0.000
 00394,-0.00000075,-0.00000092,0.00000195,-0.00000124,-0.00000087,-0.00
 000004,-0.00000113,0.00000005,0.00000005,-0.00000057,0.00000080,0.0000
 0023,-0.00000035,0.,0.00000019,-0.00000016,0.00000019,0.00000030,-0.00
 000011,0.00000014,0.01608941,0.00960563,0.05111581,0.00001023,-0.00002
 081,0.,-0.00000778,0.00000426,0.00000061,0.00000059,0.00000107,0.00000
 060,-0.00000311,-0.00001440,0.,0.00001662,0.00005525,0.00000290,0.0000
 3615,-0.00002260,-0.00001085,-0.00000200,0.00056728,0.00160826,0.00013
 875,-0.00017715,0.00011995,-0.00040817,0.00015454,-0.00023623,-0.00003
 440,0.00000509,-0.00009684,-0.00002123,-0.00004993,0.00018219,0.000013
 25,0.00001765,-0.00002397,-0.00005457,-0.00000714,-0.00000455,-0.00002
 984,-0.00001575,-0.00000185,0.00005497,-0.00001823,0.00000353,-0.00001
 626,-0.00000023,0.00001507,0.00002061,0.00001300,0.00001109,0.00000151
 ,0.00000505,0.00000276,0.00000748,-0.00001850,-0.00002188,0.00001650,0
 .00000623,0.00000189,0.00000348,-0.00000022,-0.00000077,-0.00000022,-0
 .00000061,0.00000052,-0.00000513,-0.00000310,0.00000036,0.00000168,-0.
 00000137,-0.00000209,0.01091160,-0.01720033,-0.01378810,-0.10435827,0.
 09537766,0.07773646,-0.00132537,-0.00008983,-0.00517769,-0.00462394,0.
 02262269,0.02901587,-0.00151043,-0.00007340,-0.00058541,-0.00460315,0.
 00311995,-0.00320821,0.00336271,-0.00560829,-0.00148799,-0.00000040,-0
 .00000038,-0.00000095,-0.00000177,0.00000363,-0.00000020,0.00000570,0.
 00000864,0.,-0.00004151,0.00015313,-0.00008096,0.00002213,0.00000763,0
 .00002199,-0.00000790,0.00000104,0.00000538,-0.00003743,0.00002028,-0.
 00001087,-0.00000807,0.00000184,-0.00000866,-0.00000332,0.00000285,0.0
 0000978,-0.00000186,0.00000143,0.00000169,0.00000045,-0.00000030,-0.00
 000203,0.00000007,0.00000164,0.00000078,0.00000235,0.00000105,-0.00000
 147,-0.00006548,-0.00114927,0.00033608,0.10195447,-0.00001552,0.000015
 98,-0.00000103,0.00001021,-0.00001627,0.00000207,-0.00000901,-0.000001
 69,0.00000038,0.00000937,0.00001068,0.00000206,-0.00001966,-0.00002592
 ,-0.00000154,-0.00008116,-0.00003093,0.00000267,-0.00037418,-0.0006456
 6,-0.00034135,0.00001415,0.00005877,-0.00007999,0.00008280,-0.00012208
 ,0.00004921,0.00000557,0.00000450,0.00004417,0.00002973,0.00007979,-0.
 00002391,0.00001991,-0.00002522,0.00000135,0.00012745,0.00009219,0.000
 00566,0.00004358,0.00001567,0.00000467,-0.00008693,-0.00001377,-0.0000
 0129,0.00001796,0.00000284,-0.00002777,-0.00002530,-0.00002598,-0.0000
 1850,-0.00000112,-0.00000406,-0.00000906,0.00001292,0.00002344,0.00004
 194,-0.00003195,-0.00002327,0.00000016,-0.00000249,0.00000210,0.000009
 12,0.00000602,0.00000129,0.00000063,-0.00000009,0.00000002,0.00000286,
 -0.00000219,-0.00000434,-0.00000168,-0.00054777,-0.00514755,-0.0003558
 0,0.09481712,-0.18249863,-0.18069368,-0.00104348,0.00529959,-0.0002709
 4,0.00346664,-0.00544402,-0.01150868,0.00140689,-0.00064404,0.00162912
 ,0.00362764,0.00214180,-0.00137877,-0.00368486,-0.00192801,0.00184339,
 0.00000184,-0.00000217,-0.00000119,0.00000297,0.00000075,-0.00000047,-
 0.00000243,-0.00000489,-0.00000269,0.00004775,-0.00006816,0.00004768,0
 .00000243,-0.00001782,-0.00000410,0.00000296,0.00000821,-0.00000774,0.
 00000266,0.00000608,0.00000833,0.00000353,0.00001096,0.00000653,-0.000
 00062,0.00000285,-0.00000612,0.00000013,0.00000104,-0.00000496,-0.0000
 0046,0.00000138,0.00000033,-0.00000240,0.,-0.00000123,-0.00000255,0.00
 000020,0.00000044,-0.00100199,-0.00111415,0.00162857,-0.09738516,0.189
 25110,-0.00001456,0.00002650,0.00000116,0.00000807,-0.00000631,-0.0000
 0352,-0.00000068,0.00000221,-0.00000320,0.00000643,0.00001667,-0.00000
 273,-0.00002577,-0.00006923,-0.00000511,-0.00005717,0.00001621,-0.0000
 1217,-0.00011422,0.00046591,0.00006237,-0.00014085,0.00006755,0.000154
 37,-0.00003835,0.00006748,0.00002005,0.00005952,-0.00003484,-0.0000231
 9,-0.00005958,-0.00001558,-0.00006699,0.00000535,-0.00000841,0.0000702
 8,0.00010065,0.00005149,0.00001212,0.00003901,0.00001611,0.00001030,-0
 .00008252,0.00000914,-0.00000711,0.00001765,-0.00000169,-0.00002359,-0
 .00002457,-0.00001953,-0.00001899,0.00000061,-0.00000527,-0.00000735,0
 .00000728,0.00002913,0.00003430,-0.00002998,-0.00001651,-0.00000238,-0
 .00000462,0.00000316,0.00000577,0.00000506,0.00000298,-0.00000137,-0.0
 0000001,0.00000169,0.00000229,-0.00000217,-0.00000185,-0.00000297,0.01
 236458,-0.01326131,-0.01608484,0.07716204,-0.18171835,-0.23963133,-0.0
 0634716,0.00036725,0.00019270,-0.00026896,0.00444842,0.01029664,0.0012
 2298,0.00037024,0.00064997,-0.00229472,-0.00145597,0.00050734,0.001112
 60,0.00046563,-0.00344562,0.00000019,0.00000108,0.00000262,0.00000179,
 -0.00000308,0.00000187,-0.00000771,-0.00001282,0.00000403,0.00004404,-
 0.00004750,-0.00000940,0.00000826,0.00000914,-0.00001355,-0.00001872,0
 .00000897,-0.00000742,-0.00001411,-0.00000382,0.00000878,0.00000517,0.
 00000398,0.00001437,0.00000381,-0.00000007,-0.00001249,0.00000154,-0.0
 0000216,-0.00000271,0.00000036,0.,0.00000116,-0.00000106,-0.00000158,-
 0.00000015,-0.00000183,-0.00000108,0.00000119,0.00049148,0.00146079,0.
 00014397,-0.08339579,0.18984946,0.24726309,-0.00001132,0.00001993,-0.0
 0000104,0.00000500,-0.00000499,0.00000293,0.00000012,0.00000282,0.0000
 0185,0.00000492,0.00001278,0.00000298,-0.00002013,-0.00005587,-0.00000
 401,-0.00005242,0.00000508,0.00000519,-0.00003917,-0.00035338,-0.00129
 064,-0.00041670,0.00011404,0.00019320,-0.00000229,0.00005233,-0.000095
 01,-0.00001413,0.00004176,-0.00011860,-0.00001810,0.00000100,0.0000296
 3,0.00003841,-0.00002369,-0.00000554,0.00008807,0.00005538,0.00000509,
 0.00002807,0.00001045,0.00000020,-0.00006641,0.00000127,-0.00000085,0.
 00001501,0.00000240,-0.00001796,-0.00001879,-0.00001367,-0.00000844,-0
 .00000223,-0.00000368,-0.00000413,0.00000064,0.00001361,0.00002433,-0.
 00001726,-0.00001085,-0.00000113,-0.00000198,-0.00000076,0.00000372,0.
 00000216,-0.00000034,0.00000016,0.00000222,0.00000079,0.00000021,-0.00
 000196,-0.00000109,0.00000138,0.00847339,0.00219447,0.01092141,0.00116
 696,0.00391011,0.00103661,-0.14554443,-0.03090154,-0.13822358,-0.00109
 312,0.00072500,0.00074167,-0.01118048,-0.00902994,-0.02170154,-0.00270
 060,0.00394282,0.00057552,0.00027396,-0.00039188,-0.00003993,0.,0.0000
 0149,-0.00000210,0.00000153,-0.00000182,-0.00000120,-0.00000604,-0.000
 01141,-0.00000387,0.00000287,0.00000042,0.00000367,-0.00001097,-0.0000
 0786,0.00000419,-0.00004270,0.00002116,-0.00000620,-0.00002461,0.00000
 975,0.00000482,0.00000425,0.00000674,0.00000733,0.00000162,0.00000180,
 -0.00000709,0.00000080,0.00000127,-0.00000351,-0.00000132,0.00000083,0
 .00000095,-0.00000080,-0.00000030,-0.00000056,-0.00000153,-0.00000007,
 0.00000025,-0.00020810,-0.00177674,0.00075135,0.00065474,0.00071869,0.
 00014438,0.15013713,0.00000311,-0.00001111,-0.00000010,0.00000016,-0.0
 0000248,-0.00000057,-0.00000520,-0.00000313,-0.00000006,0.00000047,-0.
 00000758,-0.00000085,0.00000966,0.00003954,0.00000244,0.00000931,-0.00
 000894,-0.00000168,0.00000867,0.00077160,0.00025396,0.00016727,-0.0001
 4111,0.00005889,-0.00000278,-0.00007482,0.00000475,-0.00008187,-0.0000
 4484,0.00005062,-0.00000911,-0.00004226,-0.00000517,0.00002198,0.00000
 414,-0.00003145,-0.00001708,-0.00000835,-0.00000260,-0.00000965,-0.000
 00438,-0.00000262,0.00002082,-0.00000712,0.00000187,-0.00000393,0.0000
 0073,0.00000444,0.00000606,0.00000274,0.00000360,0.00000020,0.00000106
 ,0.00000104,-0.00000071,-0.00000591,-0.00000636,0.00000574,0.00000305,
 0.00000070,0.00000159,-0.00000068,-0.00000052,-0.00000078,-0.00000083,
 0.00000064,-0.00000015,-0.00000058,-0.00000028,0.00000053,-0.00000008,
 0.00000049,-0.01440936,-0.00277873,-0.01336189,0.00436185,0.00188313,-
 0.00501318,-0.02961039,-0.05573121,-0.06510937,0.00076422,-0.00102270,
 0.00003311,0.00649323,0.00438721,0.01181591,0.00380825,0.00149681,-0.0
 0142633,-0.00047981,0.00002109,0.00023620,0.00000129,-0.00000237,0.000
 00094,0.00000004,0.00000211,-0.00000006,0.00000524,0.00000862,0.000001
 44,0.00003054,0.00001097,-0.00000647,-0.00001516,0.00005376,-0.0000256
 7,0.00001427,0.00000208,0.00000145,0.00000793,-0.00000030,-0.00000273,
 -0.00000216,-0.00000182,-0.00000340,-0.00000145,-0.00000042,0.00000320
 ,-0.00000068,0.00000108,0.00000027,-0.00000013,0.00000034,-0.00000043,
 0.00000004,0.00000048,-0.00000007,0.00000020,0.00000041,-0.00000031,-0
 .00152359,-0.00230486,0.00221380,-0.00008246,0.00113104,-0.00127438,0.
 03179335,0.05344438,-0.00000684,0.00001387,0.00000020,0.00000330,-0.00
 000269,-0.00000077,0.00000192,0.00000145,-0.00000069,0.00000193,0.0000
 1005,-0.00000091,-0.00001255,-0.00004104,-0.00000196,-0.00002720,0.000
 00736,-0.00000250,0.00017940,-0.00039860,0.00014637,-0.00005406,0.0000
 4916,-0.00002159,-0.00002510,0.00005311,-0.00000778,0.00004486,0.00001
 915,-0.00000257,-0.00000147,0.00001532,-0.00001481,0.00000388,-0.00001
 024,0.00002396,0.00004583,0.00002403,0.00000400,0.00001864,0.00000767,
 0.00000369,-0.00003920,0.00000543,-0.00000221,0.00000838,0.00000007,-0
 .00000991,-0.00001186,-0.00000835,-0.00000741,-0.00000066,-0.00000230,
 -0.00000260,0.00000120,0.00001130,0.00001498,-0.00001231,-0.00000721,-
 0.00000129,-0.00000198,0.00000114,0.00000233,0.00000158,0.00000076,-0.
 00000053,0.00000094,0.00000092,0.00000061,-0.00000086,-0.00000041,-0.0
 0000026,-0.01398715,-0.00098414,-0.01367551,0.00180301,-0.00535252,0.0
 0090072,-0.13671617,-0.06549655,-0.23110294,0.00046300,0.00018005,0.00
 005773,0.00198356,-0.00021948,0.00114966,-0.00049297,-0.00115805,0.002
 00836,0.00002087,0.00023493,-0.00004134,-0.00000065,0.00000119,0.00000
 056,0.00000095,-0.00000188,0.00000045,-0.00000551,-0.00000822,0.000001
 03,-0.00001354,-0.00001190,0.00001567,0.00001840,-0.00002115,-0.000007
 69,-0.00000382,-0.00000316,-0.00000162,-0.00000479,0.00000224,0.000004
 91,0.00000290,0.00000285,0.00000495,0.00000142,0.00000090,-0.00000493,
 0.00000080,-0.00000086,-0.00000136,0.00000005,0.00000015,0.00000068,-0
 .00000034,-0.00000061,-0.00000036,-0.00000098,-0.00000042,0.00000048,0
 .00118996,0.00204287,-0.00066388,-0.00106089,-0.00066872,0.00007772,0.
 14622270,0.07042729,0.24134498,0.00002116,-0.00003348,0.00000061,-0.00
 001009,0.00001397,0.,-0.00000063,0.00000178,-0.00000013,-0.00000991,-0
 .00002548,0.00000238,0.00001767,0.00009124,-0.00000317,0.00010423,-0.0
 0002276,0.00004532,-0.00100440,-0.00138361,0.00102654,0.00037573,-0.00
 017677,0.00014182,-0.00164152,-0.00024277,-0.00110110,0.00001997,0.000
 12686,0.00021650,-0.00002061,0.00013631,0.00020931,-0.00012744,0.00006
 012,-0.00007038,-0.00013200,-0.00006376,0.00000260,-0.00004115,-0.0000
 1723,-0.00001360,0.00009981,-0.00001119,-0.00000067,-0.00002256,-0.000
 00097,0.00002644,0.00002848,0.00002249,0.00001885,0.00000167,0.0000051
 9,0.00000717,-0.00000322,-0.00002707,-0.00003960,0.00003068,0.00001953
 ,0.00000278,0.00000439,-0.00000237,-0.00000691,-0.00000442,-0.00000107
 ,0.00000146,-0.00000213,-0.00000167,-0.00000128,0.00000253,0.00000168,
 -0.00000006,-0.00468089,0.00339670,-0.00220134,0.00022610,-0.00081764,
 -0.00055490,-0.00461920,0.01832110,0.02019649,-0.00167377,0.00327061,-
 0.00444872,-0.08337063,0.06333219,0.05836695,0.01105649,-0.01057246,-0
 .01223423,0.00041198,-0.00153025,-0.00042208,0.00000119,-0.00000259,0.
 00000082,-0.00000244,0.00000374,-0.00000032,0.00001197,0.00002440,-0.0
 0000428,0.00001656,-0.00012870,0.00006612,-0.00192781,-0.00025721,0.00
 014460,0.00003250,0.00000409,0.00001106,-0.00002828,-0.00004350,-0.000
 01526,-0.00000843,-0.00001316,-0.00000889,-0.00000381,-0.00000614,0.00
 001111,-0.00000221,0.00000097,0.00000450,0.00000065,-0.00000082,-0.000
 00161,0.00000114,0.00000111,0.00000099,0.00000264,0.00000081,-0.000000
 82,-0.00034790,0.00079326,0.00111329,-0.00006446,-0.00015959,0.0001322
 5,0.00059572,-0.00127959,0.00046139,0.08668667,-0.00000212,-0.00000432
 ,-0.00000108,-0.00000063,-0.00000448,0.00000059,-0.00000514,0.00000009
 ,0.00000251,0.00000381,-0.00000759,0.00000229,-0.00001014,0.00004199,-
 0.00001077,0.00005983,-0.00000457,0.00005254,-0.00157735,-0.00246103,0
 .00241413,0.00048021,0.00002728,0.00019052,-0.00010727,0.00049448,-0.0
 0099313,-0.00011243,0.00029822,0.00028095,0.00030486,-0.00024606,0.000
 67025,-0.00005065,-0.00010819,-0.00035158,-0.00000898,0.00000468,0.000
 01745,-0.00000313,-0.00000190,-0.00001826,0.00001108,-0.00001009,-0.00
 000469,-0.00000181,0.00000224,0.00000158,0.00000257,0.00000260,0.00001
 001,-0.00000159,0.00000001,0.00000184,-0.00000354,-0.00000888,-0.00000
 585,0.00000713,0.00000537,0.00000083,0.00000211,-0.00000326,-0.0000016
 8,-0.00000186,-0.00000193,0.00000162,0.00000145,-0.00000040,-0.0000013
 3,-0.00000005,0.00000058,0.00000229,0.00364356,0.00240138,-0.00078086,
 -0.00027112,0.00011869,0.00066597,0.00273492,-0.00307328,-0.00986384,0
 .00176342,0.00730516,-0.00325232,0.06226481,-0.16637328,-0.13147534,0.
 00577236,0.00051728,-0.00560426,-0.00065842,-0.00184757,-0.00001163,0.
 00000146,-0.00000260,0.00000034,-0.00000016,0.00000277,-0.00000134,0.0
 0000619,0.00000730,0.00000088,0.00002546,-0.00015544,0.00007350,-0.000
 09011,0.00035105,0.00064014,-0.00000412,-0.00003517,0.00000232,-0.0000
 1456,0.00006740,-0.00001727,-0.00000307,-0.00000225,0.00000025,-0.0000
 0059,-0.00000196,0.00000395,-0.00000109,0.00000306,-0.00000051,-0.0000
 0114,0.00000048,-0.00000018,0.00000016,0.00000057,0.00000009,0.0000003
 1,0.00000059,-0.00000039,-0.00006331,-0.00060601,-0.00023226,-0.000213
 44,-0.00035366,0.00020014,-0.00107168,-0.00105977,0.00128525,-0.072806
 29,0.16472040,0.00002716,-0.00002760,0.00000097,-0.00001258,0.00002130
 ,-0.00000057,0.00001272,0.00000102,-0.00000232,-0.00001910,-0.00001237
 ,-0.00000111,0.00003721,0.00004209,0.00001520,0.00006878,-0.00004887,0
 .00004108,0.00367665,0.00106669,-0.00104748,-0.00083303,0.00034830,-0.
 00052475,0.00088427,0.00033433,0.00035000,0.00040681,-0.00038131,-0.00
 025012,-0.00041755,0.00047256,0.00004495,-0.00007557,0.00001772,0.0005
 1903,-0.00016209,-0.00008782,-0.00002700,-0.00004596,-0.00001286,0.000
 00032,0.00010478,0.00000424,0.00000640,-0.00002268,-0.00000213,0.00003
 075,0.00002910,0.00002571,0.00001484,0.00000137,0.00000512,0.00000869,
 -0.00000835,-0.00002655,-0.00004397,0.00003341,0.00002193,0.00000245,0
 .00000360,-0.00000166,-0.00000883,-0.00000587,-0.00000089,0.00000060,-
 0.00000080,-0.00000064,-0.00000183,0.00000259,0.00000313,0.00000086,-0
 .00166525,-0.00090874,0.00220065,-0.00003326,0.00023043,-0.00015174,-0
 .00304339,0.00225600,0.00566496,-0.00619685,-0.00306380,0.00144715,0.0
 5867750,-0.13019488,-0.18556842,0.00744535,-0.01733929,-0.01328119,0.0
 0094078,-0.00017129,-0.00210542,-0.00000287,0.00000247,-0.00000031,-0.
 00000283,-0.00000027,0.00000028,-0.00000238,0.00001202,-0.00000478,0.0
 0010716,-0.00000952,0.00006093,0.00024384,-0.00039279,0.00064483,-0.00
 002207,-0.00000133,0.00000287,0.00001826,0.00001195,-0.00001646,0.0000
 0162,-0.00001314,-0.00001367,-0.00000445,-0.00000612,0.00000797,-0.000
 00112,-0.00000089,0.00000571,0.00000098,-0.00000127,-0.00000105,0.0000
 0168,0.00000063,0.00000096,0.00000259,0.00000034,-0.00000051,-0.000049
 96,0.00033183,0.00011619,0.00013046,0.00023041,-0.00015031,0.00085125,
 0.00115951,-0.00018662,-0.06108200,0.14610630,0.19219982\\0.00001363,-
 0.00001182,0.00000591,-0.00001105,0.00001080,-0.00001357,-0.00000698,-
 0.00000164,-0.00001248,0.00000141,-0.00000620,-0.00000061,0.00001002,-
 0.00000107,0.00000596,0.00001087,-0.00000151,-0.00000636,0.00000062,0.
 00000802,-0.00000031,-0.00000399,-0.00000343,0.00000063,-0.00001161,0.
 00000420,0.00000046,0.00000129,-0.00000469,-0.00000030,-0.00000039,0.0
 0000009,-0.00000024,0.00000115,-0.00000085,0.00000303,-0.00001432,0.00
 000629,0.00000529,-0.00000074,-0.00000057,-0.00001100,0.00001382,-0.00
 000254,-0.00000316,-0.00000663,-0.00000027,0.00000276,-0.00000337,0.00
 000369,0.00000575,-0.00000685,-0.00000375,0.00001072,0.00001426,-0.000
 00748,-0.00000962,-0.00000199,0.00000270,0.00000574,-0.00000030,0.0000
 0062,-0.00000227,-0.00000284,-0.00000535,-0.00000629,0.00000167,-0.000
 00107,-0.00000084,0.00000426,0.00000391,0.00000241,0.00000478,0.000001
 67,0.00001740,-0.00001740,-0.00000142,0.00000511,-0.00000559,0.0000023
 2,-0.00000658,0.00002073,0.00001789,-0.00003456,0.00000260,-0.00000235
 ,0.00000741,-0.00000245,-0.00000782,0.00001775,0.00000191,-0.00000899,
 0.00002517,-0.00000871,0.00000503,-0.00000865,0.00000019,0.00000978,-0
 .00000607,-0.00000754,-0.00000551,-0.00000311,0.00000120,-0.00000067,0
 .00000403,-0.00000246,0.00000200,-0.00000362,0.00000072,-0.00000049,0.
 00000151,-0.00000309,0.00000143,-0.00000356,0.00000144,-0.00000317,0.0
 0000350,0.00000278,-0.00000141,0.00000135,-0.00000049,-0.00000118,-0.0
 0000414,-0.00000099,0.00000096,-0.00000207,0.00000197,-0.00000101,0.00
 000117,0.00000019,0.00000069,-0.00000003,-0.00000227,0.00000203,0.0000
 0362,0.00000516,-0.00000133,0.00000486,0.00000214,0.00000159,0.0000019
 3,0.00000324,0.00000188,-0.00000404\\\@


 WE LEARN WISDOM FROM FAILURE MUCH MORE THAN FROM SUCCESS.
 WE DISCOVER WHAT WILL DO BY FINDING OUT WHAT WILL NOT DO...
 AND HE WHO NEVER MADE A MISTAKE NEVER MADE A DISCOVERY
 Job cpu time:  0 days 18 hours 42 minutes 55.6 seconds.
 File lengths (MBytes):  RWF=   1564 Int=      0 D2E=      0 Chk=     22 Scr=      1
 Normal termination of Gaussian 09 at Sat Sep  3 05:07:30 2022.
