 Entering Gaussian System, Link 0=g09
 Input=Mol15.gjf
 Output=Mol15.log
 Initial command:
 /opt/gaussian/l1.exe /home/scr/lqcapf-6/Gau-142925.inp -scrdir=/home/scr/lqcapf-6/
 Entering Link 1 = /opt/gaussian/l1.exe PID=    142927.
  
 Copyright (c) 1988,1990,1992,1993,1995,1998,2003,2009,2011,
            Gaussian, Inc.  All Rights Reserved.
  
 This is part of the Gaussian(R) 09 program.  It is based on
 the Gaussian(R) 03 system (copyright 2003, Gaussian, Inc.),
 the Gaussian(R) 98 system (copyright 1998, Gaussian, Inc.),
 the Gaussian(R) 94 system (copyright 1995, Gaussian, Inc.),
 the Gaussian 92(TM) system (copyright 1992, Gaussian, Inc.),
 the Gaussian 90(TM) system (copyright 1990, Gaussian, Inc.),
 the Gaussian 88(TM) system (copyright 1988, Gaussian, Inc.),
 the Gaussian 86(TM) system (copyright 1986, Carnegie Mellon
 University), and the Gaussian 82(TM) system (copyright 1983,
 Carnegie Mellon University). Gaussian is a federally registered
 trademark of Gaussian, Inc.
  
 This software contains proprietary and confidential information,
 including trade secrets, belonging to Gaussian, Inc.
  
 This software is provided under written license and may be
 used, copied, transmitted, or stored only in accord with that
 written license.
  
 The following legend is applicable only to US Government
 contracts under FAR:
  
                    RESTRICTED RIGHTS LEGEND
  
 Use, reproduction and disclosure by the US Government is
 subject to restrictions as set forth in subparagraphs (a)
 and (c) of the Commercial Computer Software - Restricted
 Rights clause in FAR 52.227-19.
  
 Gaussian, Inc.
 340 Quinnipiac St., Bldg. 40, Wallingford CT 06492
  
  
 ---------------------------------------------------------------
 Warning -- This program may not be used in any manner that
 competes with the business of Gaussian, Inc. or will provide
 assistance to any competitor of Gaussian, Inc.  The licensee
 of this program is prohibited from giving any competitor of
 Gaussian, Inc. access to this program.  By using this program,
 the user acknowledges that Gaussian, Inc. is engaged in the
 business of creating and licensing software in the field of
 computational chemistry and represents and warrants to the
 licensee that it is not a competitor of Gaussian, Inc. and that
 it will not use this program in any manner prohibited above.
 ---------------------------------------------------------------
  

 Cite this work as:
 Gaussian 09, Revision C.01,
 M. J. Frisch, G. W. Trucks, H. B. Schlegel, G. E. Scuseria, 
 M. A. Robb, J. R. Cheeseman, G. Scalmani, V. Barone, B. Mennucci, 
 G. A. Petersson, H. Nakatsuji, M. Caricato, X. Li, H. P. Hratchian, 
 A. F. Izmaylov, J. Bloino, G. Zheng, J. L. Sonnenberg, M. Hada, 
 M. Ehara, K. Toyota, R. Fukuda, J. Hasegawa, M. Ishida, T. Nakajima, 
 Y. Honda, O. Kitao, H. Nakai, T. Vreven, J. A. Montgomery, Jr., 
 J. E. Peralta, F. Ogliaro, M. Bearpark, J. J. Heyd, E. Brothers, 
 K. N. Kudin, V. N. Staroverov, T. Keith, R. Kobayashi, J. Normand, 
 K. Raghavachari, A. Rendell, J. C. Burant, S. S. Iyengar, J. Tomasi, 
 M. Cossi, N. Rega, J. M. Millam, M. Klene, J. E. Knox, J. B. Cross, 
 V. Bakken, C. Adamo, J. Jaramillo, R. Gomperts, R. E. Stratmann, 
 O. Yazyev, A. J. Austin, R. Cammi, C. Pomelli, J. W. Ochterski, 
 R. L. Martin, K. Morokuma, V. G. Zakrzewski, G. A. Voth, 
 P. Salvador, J. J. Dannenberg, S. Dapprich, A. D. Daniels, 
 O. Farkas, J. B. Foresman, J. V. Ortiz, J. Cioslowski, 
 and D. J. Fox, Gaussian, Inc., Wallingford CT, 2010.
 
 ******************************************
 Gaussian 09:  EM64L-G09RevC.01 23-Sep-2011
                 2-Sep-2022 
 ******************************************
 %nprocshared=8
 Will use up to    8 processors via shared memory.
 %mem=1600MB
 -------------------------
 #p opt freq b3lyp/cc-pvdz
 -------------------------
 1/14=-1,18=20,19=15,26=3,38=1/1,3;
 2/9=110,12=2,17=6,18=5,40=1/2;
 3/5=16,11=2,16=1,25=1,30=1,71=1,74=-5/1,2,3;
 4//1;
 5/5=2,38=5/2;
 6/7=2,8=2,9=2,10=2,28=1/1;
 7//1,2,3,16;
 1/14=-1,18=20,19=15/3(2);
 2/9=110/2;
 99//99;
 2/9=110/2;
 3/5=16,11=2,16=1,25=1,30=1,71=1,74=-5/1,2,3;
 4/5=5,16=3/1;
 5/5=2,38=5/2;
 7//1,2,3,16;
 1/14=-1,18=20,19=15/3(-5);
 2/9=110/2;
 6/7=2,8=2,9=2,10=2,19=2,28=1/1;
 99/9=1/99;
 Leave Link    1 at Fri Sep  2 10:12:36 2022, MaxMem=  209715200 cpu:       0.2
 (Enter /opt/gaussian/l101.exe)
 ---------
 Mol15.log
 ---------
 Charge =  0 Multiplicity = 1
 Symbolic Z-Matrix:
 O                     0.9277   -1.40322  -0.01695 
 C                     1.10418  -0.38154  -0.66158 
 C                     2.49035  -0.03665  -1.19396 
 N                     3.44238  -1.07177  -0.93274 
 N                     3.78633  -1.93432  -1.93121 
 N                     4.60876  -2.79052  -1.4866 
 C                     4.84264  -2.5333   -0.14519 
 C                     5.66421  -3.18443   0.77423 
 C                     5.69376  -2.68707   2.05376 
 C                     4.91702  -1.5637    2.41629 
 C                     4.10261  -0.91833   1.51702 
 C                     4.08226  -1.42834   0.21628 
 N                     0.09229   0.5018   -0.94356 
 C                     0.33641   1.7894   -1.59746 
 C                     0.90107   2.86776  -0.70166 
 C                     1.34177   4.13866  -1.24319 
 C                     1.80753   4.99209  -0.31945 
 S                     1.74385   4.29003   1.32269 
 C                     1.04915   2.79201   0.63258 
 C                    -1.26564   0.16744  -0.61191 
 C                    -2.06756   1.08366   0.05219 
 C                    -3.39515   0.78563   0.32046 
 C                    -3.94667  -0.4335   -0.05697 
 C                    -3.13152  -1.34319  -0.73037 
 C                    -1.81016  -1.04961  -1.00684 
 C                    -5.36056  -0.77811   0.22946 
 C                    -6.07964  -0.1983    1.27415 
 C                    -7.39907  -0.56777   1.4752 
 C                    -7.97619  -1.51293   0.64043 
 C                    -7.1924   -2.05637  -0.36346 
 N                    -5.92779  -1.69696  -0.5579 
 H                     2.45441   0.07974  -2.26683 
 H                     2.83499   0.89459  -0.76586 
 H                     6.24189  -4.03702   0.47926 
 H                     6.30912  -3.15434   2.79692 
 H                     4.96286  -1.21031   3.42817 
 H                     3.50549  -0.07773   1.80748 
 H                     0.99408   1.65553  -2.44811 
 H                    -0.60863   2.12061  -2.00446 
 H                     1.29903   4.37477  -2.28785 
 H                     2.18751   5.97825  -0.46258 
 H                     0.79579   1.98076   1.27751 
 H                    -1.66793   2.02929   0.35927 
 H                    -3.99547   1.52482   0.81297 
 H                    -3.548    -2.27809  -1.04215 
 H                    -1.19891  -1.76962  -1.50911 
 H                    -5.61512   0.50821   1.93024 
 H                    -7.96368  -0.13171   2.27635 
 H                    -8.99343  -1.82377   0.76733 
 H                    -7.58155  -2.79722  -1.03195 
 
 NAtoms=     50 NQM=        0 NQMF=       0 NMMI=     50 NMMIF=      0
                NMic=       0 NMicF=      0.
                    Isotopes and Nuclear Properties:
 (Nuclear quadrupole moments (NQMom) in fm**2, nuclear magnetic moments (NMagM)
  in nuclear magnetons)

  Atom         1           2           3           4           5           6           7           8           9          10
 IAtWgt=          16          12          12          14          14          14          12          12          12          12
 AtmWgt=  15.9949146  12.0000000  12.0000000  14.0030740  14.0030740  14.0030740  12.0000000  12.0000000  12.0000000  12.0000000
 NucSpn=           0           0           0           2           2           2           0           0           0           0
 AtZEff=   0.0000000   0.0000000   0.0000000   0.0000000   0.0000000   0.0000000   0.0000000   0.0000000   0.0000000   0.0000000
 NQMom=    0.0000000   0.0000000   0.0000000   2.0440000   2.0440000   2.0440000   0.0000000   0.0000000   0.0000000   0.0000000
 NMagM=    0.0000000   0.0000000   0.0000000   0.4037610   0.4037610   0.4037610   0.0000000   0.0000000   0.0000000   0.0000000

  Atom        11          12          13          14          15          16          17          18          19          20
 IAtWgt=          12          12          14          12          12          12          12          32          12          12
 AtmWgt=  12.0000000  12.0000000  14.0030740  12.0000000  12.0000000  12.0000000  12.0000000  31.9720718  12.0000000  12.0000000
 NucSpn=           0           0           2           0           0           0           0           0           0           0
 AtZEff=   0.0000000   0.0000000   0.0000000   0.0000000   0.0000000   0.0000000   0.0000000   0.0000000   0.0000000   0.0000000
 NQMom=    0.0000000   0.0000000   2.0440000   0.0000000   0.0000000   0.0000000   0.0000000   0.0000000   0.0000000   0.0000000
 NMagM=    0.0000000   0.0000000   0.4037610   0.0000000   0.0000000   0.0000000   0.0000000   0.0000000   0.0000000   0.0000000

  Atom        21          22          23          24          25          26          27          28          29          30
 IAtWgt=          12          12          12          12          12          12          12          12          12          12
 AtmWgt=  12.0000000  12.0000000  12.0000000  12.0000000  12.0000000  12.0000000  12.0000000  12.0000000  12.0000000  12.0000000
 NucSpn=           0           0           0           0           0           0           0           0           0           0
 AtZEff=   0.0000000   0.0000000   0.0000000   0.0000000   0.0000000   0.0000000   0.0000000   0.0000000   0.0000000   0.0000000
 NQMom=    0.0000000   0.0000000   0.0000000   0.0000000   0.0000000   0.0000000   0.0000000   0.0000000   0.0000000   0.0000000
 NMagM=    0.0000000   0.0000000   0.0000000   0.0000000   0.0000000   0.0000000   0.0000000   0.0000000   0.0000000   0.0000000

  Atom        31          32          33          34          35          36          37          38          39          40
 IAtWgt=          14           1           1           1           1           1           1           1           1           1
 AtmWgt=  14.0030740   1.0078250   1.0078250   1.0078250   1.0078250   1.0078250   1.0078250   1.0078250   1.0078250   1.0078250
 NucSpn=           2           1           1           1           1           1           1           1           1           1
 AtZEff=   0.0000000   0.0000000   0.0000000   0.0000000   0.0000000   0.0000000   0.0000000   0.0000000   0.0000000   0.0000000
 NQMom=    2.0440000   0.0000000   0.0000000   0.0000000   0.0000000   0.0000000   0.0000000   0.0000000   0.0000000   0.0000000
 NMagM=    0.4037610   2.7928460   2.7928460   2.7928460   2.7928460   2.7928460   2.7928460   2.7928460   2.7928460   2.7928460

  Atom        41          42          43          44          45          46          47          48          49          50
 IAtWgt=           1           1           1           1           1           1           1           1           1           1
 AtmWgt=   1.0078250   1.0078250   1.0078250   1.0078250   1.0078250   1.0078250   1.0078250   1.0078250   1.0078250   1.0078250
 NucSpn=           1           1           1           1           1           1           1           1           1           1
 AtZEff=   0.0000000   0.0000000   0.0000000   0.0000000   0.0000000   0.0000000   0.0000000   0.0000000   0.0000000   0.0000000
 NQMom=    0.0000000   0.0000000   0.0000000   0.0000000   0.0000000   0.0000000   0.0000000   0.0000000   0.0000000   0.0000000
 NMagM=    2.7928460   2.7928460   2.7928460   2.7928460   2.7928460   2.7928460   2.7928460   2.7928460   2.7928460   2.7928460
 Leave Link  101 at Fri Sep  2 10:12:36 2022, MaxMem=  209715200 cpu:       0.9
 (Enter /opt/gaussian/l103.exe)

 GradGradGradGradGradGradGradGradGradGradGradGradGradGradGradGradGradGrad
 Berny optimization.
 Initialization pass.
                           ----------------------------
                           !    Initial Parameters    !
                           ! (Angstroms and Degrees)  !
 --------------------------                            --------------------------
 ! Name  Definition              Value          Derivative Info.                !
 --------------------------------------------------------------------------------
 ! R1    R(1,2)                  1.2209         estimate D2E/DX2                !
 ! R2    R(2,3)                  1.5244         estimate D2E/DX2                !
 ! R3    R(2,13)                 1.3725         estimate D2E/DX2                !
 ! R4    R(3,4)                  1.4304         estimate D2E/DX2                !
 ! R5    R(3,32)                 1.0798         estimate D2E/DX2                !
 ! R6    R(3,33)                 1.0813         estimate D2E/DX2                !
 ! R7    R(4,5)                  1.3635         estimate D2E/DX2                !
 ! R8    R(4,12)                 1.3627         estimate D2E/DX2                !
 ! R9    R(5,6)                  1.2677         estimate D2E/DX2                !
 ! R10   R(6,7)                  1.3857         estimate D2E/DX2                !
 ! R11   R(7,8)                  1.3944         estimate D2E/DX2                !
 ! R12   R(7,12)                 1.3892         estimate D2E/DX2                !
 ! R13   R(8,9)                  1.3731         estimate D2E/DX2                !
 ! R14   R(8,34)                 1.0713         estimate D2E/DX2                !
 ! R15   R(9,10)                 1.4131         estimate D2E/DX2                !
 ! R16   R(9,35)                 1.0721         estimate D2E/DX2                !
 ! R17   R(10,11)                1.3742         estimate D2E/DX2                !
 ! R18   R(10,36)                1.0728         estimate D2E/DX2                !
 ! R19   R(11,12)                1.3973         estimate D2E/DX2                !
 ! R20   R(11,37)                1.0712         estimate D2E/DX2                !
 ! R21   R(13,14)                1.4646         estimate D2E/DX2                !
 ! R22   R(13,20)                1.4373         estimate D2E/DX2                !
 ! R23   R(14,15)                1.5113         estimate D2E/DX2                !
 ! R24   R(14,38)                1.0835         estimate D2E/DX2                !
 ! R25   R(14,39)                1.0809         estimate D2E/DX2                !
 ! R26   R(15,16)                1.4501         estimate D2E/DX2                !
 ! R27   R(15,19)                1.3446         estimate D2E/DX2                !
 ! R28   R(16,17)                1.3411         estimate D2E/DX2                !
 ! R29   R(16,40)                1.0719         estimate D2E/DX2                !
 ! R30   R(17,18)                1.7871         estimate D2E/DX2                !
 ! R31   R(17,41)                1.0665         estimate D2E/DX2                !
 ! R32   R(18,19)                1.7897         estimate D2E/DX2                !
 ! R33   R(19,42)                1.0669         estimate D2E/DX2                !
 ! R34   R(20,21)                1.3869         estimate D2E/DX2                !
 ! R35   R(20,25)                1.3906         estimate D2E/DX2                !
 ! R36   R(21,22)                1.3868         estimate D2E/DX2                !
 ! R37   R(21,43)                1.0715         estimate D2E/DX2                !
 ! R38   R(22,23)                1.3903         estimate D2E/DX2                !
 ! R39   R(22,44)                1.0721         estimate D2E/DX2                !
 ! R40   R(23,24)                1.3948         estimate D2E/DX2                !
 ! R41   R(23,26)                1.4832         estimate D2E/DX2                !
 ! R42   R(24,25)                1.3815         estimate D2E/DX2                !
 ! R43   R(24,45)                1.0699         estimate D2E/DX2                !
 ! R44   R(25,46)                1.0697         estimate D2E/DX2                !
 ! R45   R(26,27)                1.3945         estimate D2E/DX2                !
 ! R46   R(26,31)                1.3364         estimate D2E/DX2                !
 ! R47   R(27,28)                1.3849         estimate D2E/DX2                !
 ! R48   R(27,47)                1.0702         estimate D2E/DX2                !
 ! R49   R(28,29)                1.3868         estimate D2E/DX2                !
 ! R50   R(28,48)                1.0727         estimate D2E/DX2                !
 ! R51   R(29,30)                1.3847         estimate D2E/DX2                !
 ! R52   R(29,49)                1.0712         estimate D2E/DX2                !
 ! R53   R(30,31)                1.329          estimate D2E/DX2                !
 ! R54   R(30,50)                1.0711         estimate D2E/DX2                !
 ! A1    A(1,2,3)              120.3429         estimate D2E/DX2                !
 ! A2    A(1,2,13)             122.718          estimate D2E/DX2                !
 ! A3    A(3,2,13)             116.9391         estimate D2E/DX2                !
 ! A4    A(2,3,4)              112.1917         estimate D2E/DX2                !
 ! A5    A(2,3,32)             109.9455         estimate D2E/DX2                !
 ! A6    A(2,3,33)             110.267          estimate D2E/DX2                !
 ! A7    A(4,3,32)             106.3564         estimate D2E/DX2                !
 ! A8    A(4,3,33)             109.8029         estimate D2E/DX2                !
 ! A9    A(32,3,33)            108.1288         estimate D2E/DX2                !
 ! A10   A(3,4,5)              119.4677         estimate D2E/DX2                !
 ! A11   A(3,4,12)             130.9868         estimate D2E/DX2                !
 ! A12   A(5,4,12)             109.4801         estimate D2E/DX2                !
 ! A13   A(4,5,6)              109.5155         estimate D2E/DX2                !
 ! A14   A(5,6,7)              108.8823         estimate D2E/DX2                !
 ! A15   A(6,7,8)              130.6212         estimate D2E/DX2                !
 ! A16   A(6,7,12)             107.8874         estimate D2E/DX2                !
 ! A17   A(8,7,12)             121.4913         estimate D2E/DX2                !
 ! A18   A(7,8,9)              117.2566         estimate D2E/DX2                !
 ! A19   A(7,8,34)             120.5183         estimate D2E/DX2                !
 ! A20   A(9,8,34)             122.2251         estimate D2E/DX2                !
 ! A21   A(8,9,10)             121.0109         estimate D2E/DX2                !
 ! A22   A(8,9,35)             120.0294         estimate D2E/DX2                !
 ! A23   A(10,9,35)            118.9591         estimate D2E/DX2                !
 ! A24   A(9,10,11)            122.0887         estimate D2E/DX2                !
 ! A25   A(9,10,36)            118.7104         estimate D2E/DX2                !
 ! A26   A(11,10,36)           119.1998         estimate D2E/DX2                !
 ! A27   A(10,11,12)           116.5121         estimate D2E/DX2                !
 ! A28   A(10,11,37)           121.4284         estimate D2E/DX2                !
 ! A29   A(12,11,37)           122.0532         estimate D2E/DX2                !
 ! A30   A(4,12,7)             104.2267         estimate D2E/DX2                !
 ! A31   A(4,12,11)            134.1292         estimate D2E/DX2                !
 ! A32   A(7,12,11)            121.6398         estimate D2E/DX2                !
 ! A33   A(2,13,14)            122.3208         estimate D2E/DX2                !
 ! A34   A(2,13,20)            119.9625         estimate D2E/DX2                !
 ! A35   A(14,13,20)           117.7113         estimate D2E/DX2                !
 ! A36   A(13,14,15)           115.1457         estimate D2E/DX2                !
 ! A37   A(13,14,38)           110.0632         estimate D2E/DX2                !
 ! A38   A(13,14,39)           106.9631         estimate D2E/DX2                !
 ! A39   A(15,14,38)           109.0689         estimate D2E/DX2                !
 ! A40   A(15,14,39)           109.3408         estimate D2E/DX2                !
 ! A41   A(38,14,39)           105.8377         estimate D2E/DX2                !
 ! A42   A(14,15,16)           121.1682         estimate D2E/DX2                !
 ! A43   A(14,15,19)           126.0942         estimate D2E/DX2                !
 ! A44   A(16,15,19)           112.7364         estimate D2E/DX2                !
 ! A45   A(15,16,17)           113.9574         estimate D2E/DX2                !
 ! A46   A(15,16,40)           123.0194         estimate D2E/DX2                !
 ! A47   A(17,16,40)           123.0232         estimate D2E/DX2                !
 ! A48   A(16,17,18)           111.75           estimate D2E/DX2                !
 ! A49   A(16,17,41)           128.2966         estimate D2E/DX2                !
 ! A50   A(18,17,41)           119.9531         estimate D2E/DX2                !
 ! A51   A(17,18,19)            89.3314         estimate D2E/DX2                !
 ! A52   A(15,19,18)           112.2246         estimate D2E/DX2                !
 ! A53   A(15,19,42)           128.0637         estimate D2E/DX2                !
 ! A54   A(18,19,42)           119.7064         estimate D2E/DX2                !
 ! A55   A(13,20,21)           120.2045         estimate D2E/DX2                !
 ! A56   A(13,20,25)           120.533          estimate D2E/DX2                !
 ! A57   A(21,20,25)           119.1933         estimate D2E/DX2                !
 ! A58   A(20,21,22)           120.2758         estimate D2E/DX2                !
 ! A59   A(20,21,43)           120.3025         estimate D2E/DX2                !
 ! A60   A(22,21,43)           119.4213         estimate D2E/DX2                !
 ! A61   A(21,22,23)           121.0429         estimate D2E/DX2                !
 ! A62   A(21,22,44)           118.4724         estimate D2E/DX2                !
 ! A63   A(23,22,44)           120.4769         estimate D2E/DX2                !
 ! A64   A(22,23,24)           118.1082         estimate D2E/DX2                !
 ! A65   A(22,23,26)           121.9696         estimate D2E/DX2                !
 ! A66   A(24,23,26)           119.9214         estimate D2E/DX2                !
 ! A67   A(23,24,25)           121.1305         estimate D2E/DX2                !
 ! A68   A(23,24,45)           118.8878         estimate D2E/DX2                !
 ! A69   A(25,24,45)           119.9793         estimate D2E/DX2                !
 ! A70   A(20,25,24)           120.2437         estimate D2E/DX2                !
 ! A71   A(20,25,46)           119.9132         estimate D2E/DX2                !
 ! A72   A(24,25,46)           119.8316         estimate D2E/DX2                !
 ! A73   A(23,26,27)           122.6582         estimate D2E/DX2                !
 ! A74   A(23,26,31)           116.781          estimate D2E/DX2                !
 ! A75   A(27,26,31)           120.5559         estimate D2E/DX2                !
 ! A76   A(26,27,28)           119.283          estimate D2E/DX2                !
 ! A77   A(26,27,47)           120.6586         estimate D2E/DX2                !
 ! A78   A(28,27,47)           120.0434         estimate D2E/DX2                !
 ! A79   A(27,28,29)           119.4018         estimate D2E/DX2                !
 ! A80   A(27,28,48)           120.0948         estimate D2E/DX2                !
 ! A81   A(29,28,48)           120.5008         estimate D2E/DX2                !
 ! A82   A(28,29,30)           117.9246         estimate D2E/DX2                !
 ! A83   A(28,29,49)           121.4422         estimate D2E/DX2                !
 ! A84   A(30,29,49)           120.6312         estimate D2E/DX2                !
 ! A85   A(29,30,31)           122.5844         estimate D2E/DX2                !
 ! A86   A(29,30,50)           121.2176         estimate D2E/DX2                !
 ! A87   A(31,30,50)           116.198          estimate D2E/DX2                !
 ! A88   A(26,31,30)           120.2402         estimate D2E/DX2                !
 ! D1    D(1,2,3,4)              4.5155         estimate D2E/DX2                !
 ! D2    D(1,2,3,32)           122.6524         estimate D2E/DX2                !
 ! D3    D(1,2,3,33)          -118.2134         estimate D2E/DX2                !
 ! D4    D(13,2,3,4)          -175.4474         estimate D2E/DX2                !
 ! D5    D(13,2,3,32)          -57.3105         estimate D2E/DX2                !
 ! D6    D(13,2,3,33)           61.8237         estimate D2E/DX2                !
 ! D7    D(1,2,13,14)          173.5936         estimate D2E/DX2                !
 ! D8    D(1,2,13,20)           -7.272          estimate D2E/DX2                !
 ! D9    D(3,2,13,14)           -6.4444         estimate D2E/DX2                !
 ! D10   D(3,2,13,20)          172.69           estimate D2E/DX2                !
 ! D11   D(2,3,4,5)            101.171          estimate D2E/DX2                !
 ! D12   D(2,3,4,12)           -75.5493         estimate D2E/DX2                !
 ! D13   D(32,3,4,5)           -19.0725         estimate D2E/DX2                !
 ! D14   D(32,3,4,12)          164.2071         estimate D2E/DX2                !
 ! D15   D(33,3,4,5)          -135.838          estimate D2E/DX2                !
 ! D16   D(33,3,4,12)           47.4417         estimate D2E/DX2                !
 ! D17   D(3,4,5,6)           -178.2406         estimate D2E/DX2                !
 ! D18   D(12,4,5,6)            -0.8661         estimate D2E/DX2                !
 ! D19   D(3,4,12,7)           177.8665         estimate D2E/DX2                !
 ! D20   D(3,4,12,11)           -2.9121         estimate D2E/DX2                !
 ! D21   D(5,4,12,7)             0.895          estimate D2E/DX2                !
 ! D22   D(5,4,12,11)         -179.8835         estimate D2E/DX2                !
 ! D23   D(4,5,6,7)              0.4387         estimate D2E/DX2                !
 ! D24   D(5,6,7,8)           -179.7296         estimate D2E/DX2                !
 ! D25   D(5,6,7,12)             0.1306         estimate D2E/DX2                !
 ! D26   D(6,7,8,9)            179.7209         estimate D2E/DX2                !
 ! D27   D(6,7,8,34)            -0.3317         estimate D2E/DX2                !
 ! D28   D(12,7,8,9)            -0.123          estimate D2E/DX2                !
 ! D29   D(12,7,8,34)          179.8243         estimate D2E/DX2                !
 ! D30   D(6,7,12,4)            -0.6292         estimate D2E/DX2                !
 ! D31   D(6,7,12,11)         -179.9728         estimate D2E/DX2                !
 ! D32   D(8,7,12,4)           179.2464         estimate D2E/DX2                !
 ! D33   D(8,7,12,11)           -0.0972         estimate D2E/DX2                !
 ! D34   D(7,8,9,10)             0.1957         estimate D2E/DX2                !
 ! D35   D(7,8,9,35)           179.9129         estimate D2E/DX2                !
 ! D36   D(34,8,9,10)         -179.7507         estimate D2E/DX2                !
 ! D37   D(34,8,9,35)           -0.0335         estimate D2E/DX2                !
 ! D38   D(8,9,10,11)           -0.0534         estimate D2E/DX2                !
 ! D39   D(8,9,10,36)          179.5654         estimate D2E/DX2                !
 ! D40   D(35,9,10,11)        -179.7735         estimate D2E/DX2                !
 ! D41   D(35,9,10,36)          -0.1547         estimate D2E/DX2                !
 ! D42   D(9,10,11,12)          -0.1628         estimate D2E/DX2                !
 ! D43   D(9,10,11,37)         178.944          estimate D2E/DX2                !
 ! D44   D(36,10,11,12)       -179.7798         estimate D2E/DX2                !
 ! D45   D(36,10,11,37)         -0.673          estimate D2E/DX2                !
 ! D46   D(10,11,12,4)        -178.8776         estimate D2E/DX2                !
 ! D47   D(10,11,12,7)           0.236          estimate D2E/DX2                !
 ! D48   D(37,11,12,4)           2.0217         estimate D2E/DX2                !
 ! D49   D(37,11,12,7)        -178.8648         estimate D2E/DX2                !
 ! D50   D(2,13,14,15)         -77.5288         estimate D2E/DX2                !
 ! D51   D(2,13,14,38)          46.2276         estimate D2E/DX2                !
 ! D52   D(2,13,14,39)         160.7571         estimate D2E/DX2                !
 ! D53   D(20,13,14,15)        103.3183         estimate D2E/DX2                !
 ! D54   D(20,13,14,38)       -132.9253         estimate D2E/DX2                !
 ! D55   D(20,13,14,39)        -18.3958         estimate D2E/DX2                !
 ! D56   D(2,13,20,21)         132.0851         estimate D2E/DX2                !
 ! D57   D(2,13,20,25)         -50.9642         estimate D2E/DX2                !
 ! D58   D(14,13,20,21)        -48.7412         estimate D2E/DX2                !
 ! D59   D(14,13,20,25)        128.2095         estimate D2E/DX2                !
 ! D60   D(13,14,15,16)        172.5337         estimate D2E/DX2                !
 ! D61   D(13,14,15,19)         -7.8962         estimate D2E/DX2                !
 ! D62   D(38,14,15,16)         48.2538         estimate D2E/DX2                !
 ! D63   D(38,14,15,19)       -132.1761         estimate D2E/DX2                !
 ! D64   D(39,14,15,16)        -67.0462         estimate D2E/DX2                !
 ! D65   D(39,14,15,19)        112.5239         estimate D2E/DX2                !
 ! D66   D(14,15,16,17)        179.5127         estimate D2E/DX2                !
 ! D67   D(14,15,16,40)         -0.4825         estimate D2E/DX2                !
 ! D68   D(19,15,16,17)         -0.1107         estimate D2E/DX2                !
 ! D69   D(19,15,16,40)        179.8941         estimate D2E/DX2                !
 ! D70   D(14,15,19,18)       -179.517          estimate D2E/DX2                !
 ! D71   D(14,15,19,42)         -0.3621         estimate D2E/DX2                !
 ! D72   D(16,15,19,18)          0.0842         estimate D2E/DX2                !
 ! D73   D(16,15,19,42)        179.2391         estimate D2E/DX2                !
 ! D74   D(15,16,17,18)          0.0829         estimate D2E/DX2                !
 ! D75   D(15,16,17,41)        179.9075         estimate D2E/DX2                !
 ! D76   D(40,16,17,18)       -179.9218         estimate D2E/DX2                !
 ! D77   D(40,16,17,41)         -0.0973         estimate D2E/DX2                !
 ! D78   D(16,17,18,19)         -0.0301         estimate D2E/DX2                !
 ! D79   D(41,17,18,19)       -179.8712         estimate D2E/DX2                !
 ! D80   D(17,18,19,15)         -0.0331         estimate D2E/DX2                !
 ! D81   D(17,18,19,42)       -179.267          estimate D2E/DX2                !
 ! D82   D(13,20,21,22)        177.1388         estimate D2E/DX2                !
 ! D83   D(13,20,21,43)         -2.6357         estimate D2E/DX2                !
 ! D84   D(25,20,21,22)          0.1474         estimate D2E/DX2                !
 ! D85   D(25,20,21,43)       -179.6271         estimate D2E/DX2                !
 ! D86   D(13,20,25,24)       -177.4673         estimate D2E/DX2                !
 ! D87   D(13,20,25,46)          3.7701         estimate D2E/DX2                !
 ! D88   D(21,20,25,24)         -0.486          estimate D2E/DX2                !
 ! D89   D(21,20,25,46)       -179.2486         estimate D2E/DX2                !
 ! D90   D(20,21,22,23)          0.5375         estimate D2E/DX2                !
 ! D91   D(20,21,22,44)       -178.4524         estimate D2E/DX2                !
 ! D92   D(43,21,22,23)       -179.686          estimate D2E/DX2                !
 ! D93   D(43,21,22,44)          1.3241         estimate D2E/DX2                !
 ! D94   D(21,22,23,24)         -0.8601         estimate D2E/DX2                !
 ! D95   D(21,22,23,26)        179.4843         estimate D2E/DX2                !
 ! D96   D(44,22,23,24)        178.1096         estimate D2E/DX2                !
 ! D97   D(44,22,23,26)         -1.5459         estimate D2E/DX2                !
 ! D98   D(22,23,24,25)          0.5181         estimate D2E/DX2                !
 ! D99   D(22,23,24,45)       -178.9153         estimate D2E/DX2                !
 ! D100  D(26,23,24,25)       -179.819          estimate D2E/DX2                !
 ! D101  D(26,23,24,45)          0.7475         estimate D2E/DX2                !
 ! D102  D(22,23,26,27)        -24.6496         estimate D2E/DX2                !
 ! D103  D(22,23,26,31)        156.1494         estimate D2E/DX2                !
 ! D104  D(24,23,26,27)        155.7009         estimate D2E/DX2                !
 ! D105  D(24,23,26,31)        -23.5001         estimate D2E/DX2                !
 ! D106  D(23,24,25,20)          0.1495         estimate D2E/DX2                !
 ! D107  D(23,24,25,46)        178.9131         estimate D2E/DX2                !
 ! D108  D(45,24,25,20)        179.5768         estimate D2E/DX2                !
 ! D109  D(45,24,25,46)         -1.6595         estimate D2E/DX2                !
 ! D110  D(23,26,27,28)        179.7315         estimate D2E/DX2                !
 ! D111  D(23,26,27,47)         -1.6714         estimate D2E/DX2                !
 ! D112  D(31,26,27,28)         -1.0969         estimate D2E/DX2                !
 ! D113  D(31,26,27,47)        177.5002         estimate D2E/DX2                !
 ! D114  D(23,26,31,30)       -179.9195         estimate D2E/DX2                !
 ! D115  D(27,26,31,30)          0.8617         estimate D2E/DX2                !
 ! D116  D(26,27,28,29)          0.443          estimate D2E/DX2                !
 ! D117  D(26,27,28,48)        179.8543         estimate D2E/DX2                !
 ! D118  D(47,27,28,29)       -178.1629         estimate D2E/DX2                !
 ! D119  D(47,27,28,48)          1.2484         estimate D2E/DX2                !
 ! D120  D(27,28,29,30)          0.4037         estimate D2E/DX2                !
 ! D121  D(27,28,29,49)        179.9031         estimate D2E/DX2                !
 ! D122  D(48,28,29,30)       -179.0052         estimate D2E/DX2                !
 ! D123  D(48,28,29,49)          0.4942         estimate D2E/DX2                !
 ! D124  D(28,29,30,31)         -0.6691         estimate D2E/DX2                !
 ! D125  D(28,29,30,50)        179.3967         estimate D2E/DX2                !
 ! D126  D(49,29,30,31)        179.8272         estimate D2E/DX2                !
 ! D127  D(49,29,30,50)         -0.107          estimate D2E/DX2                !
 ! D128  D(29,30,31,26)          0.033          estimate D2E/DX2                !
 ! D129  D(50,30,31,26)        179.9703         estimate D2E/DX2                !
 --------------------------------------------------------------------------------
 Trust Radius=3.00D-01 FncErr=1.00D-07 GrdErr=1.00D-06
 Number of steps in this run=    281 maximum allowed number of steps=    300.
 GradGradGradGradGradGradGradGradGradGradGradGradGradGradGradGradGradGrad

 Leave Link  103 at Fri Sep  2 10:12:36 2022, MaxMem=  209715200 cpu:       0.1
 (Enter /opt/gaussian/l202.exe)
                          Input orientation:                          
 ---------------------------------------------------------------------
 Center     Atomic      Atomic             Coordinates (Angstroms)
 Number     Number       Type             X           Y           Z
 ---------------------------------------------------------------------
      1          8           0        0.927700   -1.403220   -0.016950
      2          6           0        1.104180   -0.381540   -0.661580
      3          6           0        2.490350   -0.036650   -1.193960
      4          7           0        3.442380   -1.071770   -0.932740
      5          7           0        3.786330   -1.934320   -1.931210
      6          7           0        4.608760   -2.790520   -1.486600
      7          6           0        4.842640   -2.533300   -0.145190
      8          6           0        5.664210   -3.184430    0.774230
      9          6           0        5.693760   -2.687070    2.053760
     10          6           0        4.917020   -1.563700    2.416290
     11          6           0        4.102610   -0.918330    1.517020
     12          6           0        4.082260   -1.428340    0.216280
     13          7           0        0.092290    0.501800   -0.943560
     14          6           0        0.336410    1.789400   -1.597460
     15          6           0        0.901070    2.867760   -0.701660
     16          6           0        1.341770    4.138660   -1.243190
     17          6           0        1.807530    4.992090   -0.319450
     18         16           0        1.743850    4.290030    1.322690
     19          6           0        1.049150    2.792010    0.632580
     20          6           0       -1.265640    0.167440   -0.611910
     21          6           0       -2.067560    1.083660    0.052190
     22          6           0       -3.395150    0.785630    0.320460
     23          6           0       -3.946670   -0.433500   -0.056970
     24          6           0       -3.131520   -1.343190   -0.730370
     25          6           0       -1.810160   -1.049610   -1.006840
     26          6           0       -5.360560   -0.778110    0.229460
     27          6           0       -6.079640   -0.198300    1.274150
     28          6           0       -7.399070   -0.567770    1.475200
     29          6           0       -7.976190   -1.512930    0.640430
     30          6           0       -7.192400   -2.056370   -0.363460
     31          7           0       -5.927790   -1.696960   -0.557900
     32          1           0        2.454410    0.079740   -2.266830
     33          1           0        2.834990    0.894590   -0.765860
     34          1           0        6.241890   -4.037020    0.479260
     35          1           0        6.309120   -3.154340    2.796920
     36          1           0        4.962860   -1.210310    3.428170
     37          1           0        3.505490   -0.077730    1.807480
     38          1           0        0.994080    1.655530   -2.448110
     39          1           0       -0.608630    2.120610   -2.004460
     40          1           0        1.299030    4.374770   -2.287850
     41          1           0        2.187510    5.978250   -0.462580
     42          1           0        0.795790    1.980760    1.277510
     43          1           0       -1.667930    2.029290    0.359270
     44          1           0       -3.995470    1.524820    0.812970
     45          1           0       -3.548000   -2.278090   -1.042150
     46          1           0       -1.198910   -1.769620   -1.509110
     47          1           0       -5.615120    0.508210    1.930240
     48          1           0       -7.963680   -0.131710    2.276350
     49          1           0       -8.993430   -1.823770    0.767330
     50          1           0       -7.581550   -2.797220   -1.031950
 ---------------------------------------------------------------------
                    Distance matrix (angstroms):
                    1          2          3          4          5
     1  O    0.000000
     2  C    1.220870   0.000000
     3  C    2.386366   1.524416   0.000000
     4  N    2.696692   2.452983   1.430409   0.000000
     5  N    3.481124   3.349181   2.413349   1.363538   0.000000
     6  N    4.199366   4.331965   3.486703   2.149722   1.267733
     7  C    4.076798   4.344285   3.586983   2.171873   2.159730
     8  C    5.121836   5.541806   4.884227   3.509075   3.522586
     9  C    5.352704   5.809715   5.275817   4.073952   4.481619
    10  C    4.675584   5.040688   4.610262   3.692230   4.507391
    11  C    3.559247   3.745000   3.275081   2.541805   3.608678
    12  C    3.163270   3.276490   2.541605   1.362658   2.226051
    13  N    2.277195   1.372488   2.470490   3.701262   4.533880
    14  C    3.611157   2.485623   2.852495   4.274950   5.087183
    15  C    4.325599   3.255889   3.347203   4.693778   5.735546
    16  C    5.691006   4.563653   4.330690   5.626502   6.582578
    17  C    6.462631   5.430254   5.149683   6.310250   7.381638
    18  S    5.905407   5.115669   5.060726   6.059775   7.314515
    19  C    4.246951   3.427725   3.662598   4.806930   6.033520
    20  C    2.762551   2.433083   3.806297   4.878937   5.628530
    21  C    3.893705   3.565980   4.856184   5.997950   6.878234
    22  C    4.857154   4.750859   6.132595   7.195294   8.002612
    23  C    4.970054   5.087174   6.548699   7.468094   8.097192
    24  C    4.121873   4.344037   5.790284   6.582612   7.046141
    25  C    2.932712   3.009801   4.422159   5.253109   5.740895
    26  C    6.324057   6.537896   8.013281   8.884182   9.469473
    27  C    7.226450   7.442305   8.919777   9.813367  10.517864
    28  C    8.500564   8.769594  10.257053  11.117069  11.772182
    29  C    8.928798   9.242748  10.728134  11.534870  12.047729
    30  C    8.153692   8.469189   9.925958  10.695423  11.090773
    31  N    6.883070   7.154696   8.603853   9.398481   9.813585
    32  H    3.097091   2.147726   1.079763   2.020360   2.437845
    33  H    3.078726   2.152925   1.081321   2.064786   3.204032
    34  H    5.951785   6.407817   5.733819   4.315519   4.032554
    35  H    6.320124   6.836742   6.342722   5.144479   5.496192
    36  H    5.309292   5.683514   5.371673   4.620453   5.534561
    37  H    3.424977   3.457578   3.168728   2.915631   4.183730
    38  H    3.907799   2.711727   2.583639   3.965941   4.577212
    39  H    4.327572   3.316293   3.861911   5.267880   5.980259
    40  H    6.219328   5.030428   4.698560   6.007917   6.791058
    41  H    7.501454   6.454466   6.066766   7.176248   8.204990
    42  H    3.625513   3.071748   3.612429   4.605169   5.879376
    43  H    4.319834   3.812982   4.896113   6.115646   7.120776
    44  H    5.787900   5.640473   6.966478   8.069163   8.947211
    45  H    4.674219   5.038305   6.442730   7.094547   7.396013
    46  H    2.623597   2.819450   4.088171   4.728718   5.005788
    47  H    7.088978   7.256596   8.703800   9.629709  10.452943
    48  H    9.269984   9.535194  11.015391  11.886134  12.610143
    49  H    9.960963  10.299686  11.786334  12.573986  13.062029
    50  H    8.682212   9.023003  10.444624  11.158587  11.435994
                    6          7          8          9         10
     6  N    0.000000
     7  C    1.385728   0.000000
     8  C    2.525964   1.394375   0.000000
     9  C    3.704332   2.362929   1.373112   0.000000
    10  C    4.102763   2.739861   2.425164   1.413051   0.000000
    11  C    3.575334   2.432841   2.850533   2.438912   1.374210
    12  C    2.243332   1.389163   2.428523   2.749121   2.356945
    13  N    5.615404   5.693422   6.898216   7.108395   6.231605
    14  C    6.264258   6.411001   7.664813   7.878540   6.952371
    15  C    6.810230   6.709477   7.841859   7.836986   6.744428
    16  C    7.664594   7.614246   8.739629   8.740726   7.661013
    17  C    8.353331   8.116265   9.106349   8.927733   7.754456
    18  S    8.138428   7.636426   8.457989   8.050849   6.747675
    19  C    6.951718   6.584407   7.552263   7.322054   6.092147
    20  C    6.634997   6.694991   7.821716   7.980431   7.098741
    21  C    7.870857   7.802065   8.861050   8.857922   7.834656
    22  C    8.950804   8.893442   9.901479   9.882928   8.888421
    23  C    8.988591   9.037085  10.031327  10.122828   9.271427
    24  C    7.910663   8.083689   9.111468   9.351094   8.644599
    25  C    6.668094   6.870482   7.974702   8.267851   7.565518
    26  C   10.314165  10.359843  11.297464  11.365306  10.536984
    27  C   11.339455  11.258905  12.127857  12.058802  11.139808
    28  C   12.565861  12.503937  13.341198  13.275856  12.392078
    29  C   12.827216  12.883352  13.743083  13.792884  13.015034
    30  C   11.877197  12.046464  12.956052  13.126075  12.434138
    31  N   10.633778  10.810733  11.762721  11.952469  11.246042
    32  H    3.672652   4.127103   5.495968   6.067629   5.540483
    33  H    4.152802   4.020736   5.197573   5.380624   4.528147
    34  H    2.843498   2.146861   1.071275   2.145195   3.409498
    35  H    4.623000   3.345484   2.123226   1.072052   2.147780
    36  H    5.174690   3.812303   3.381189   2.145702   1.072794
    37  H    4.407652   3.410383   3.921640   3.414357   2.138030
    38  H    5.810144   6.136868   7.457801   7.823810   7.029601
    39  H    7.183908   7.404871   8.672548   8.905226   7.978094
    40  H    7.933328   8.054166   9.250548   9.382580   8.395488
    41  H    9.154365   8.921711   9.877846   9.680575   8.521686
    42  H    6.704040   6.227183   7.115757   6.810383   5.553787
    43  H    8.126170   7.966130   9.006406   8.905607   7.778334
    44  H    9.896613   9.772338  10.746532  10.637704   9.567762
    45  H    8.184916   8.442305   9.433213   9.755104   9.172117
    46  H    5.896760   6.240498   7.370057   7.813108   7.270197
    47  H   11.273160  11.087062  11.924564  11.752269  10.745000
    48  H   13.390120  13.252672  14.046169  13.896225  12.960811
    49  H   13.821519  13.884270  14.720661  14.768674  14.010258
    50  H   12.198787  12.458591  13.373944  13.629659  13.024062
                   11         12         13         14         15
    11  C    0.000000
    12  C    1.397301   0.000000
    13  N    4.914661   4.581542   0.000000
    14  C    5.587133   5.260693   1.464614   0.000000
    15  C    5.432023   5.423934   2.512052   1.511343   0.000000
    16  C    6.388595   6.374310   3.857166   2.579783   1.450054
    17  C    6.600991   6.832520   4.847088   3.748963   2.341054
    18  S    5.720885   6.276309   4.713197   4.094058   2.613642
    19  C    4.885947   5.213868   2.940214   2.546822   1.344568
    20  C    5.876168   5.642025   1.437276   2.483672   3.463295
    21  C    6.650165   6.645100   2.448475   2.999748   3.544583
    22  C    7.781493   7.798986   3.720288   4.313990   4.882366
    23  C    8.216046   8.094942   4.239578   5.065488   5.900384
    24  C    7.587088   7.276127   3.720536   4.753052   5.830498
    25  C    6.430237   6.029931   2.455645   3.607849   4.773855
    26  C    9.551390   9.465190   5.722562   6.510393   7.305297
    27  C   10.210565  10.290593   6.595536   7.304984   7.876221
    28  C   11.507097  11.582159   7.944486   8.650731   9.243047
    29  C   12.125154  12.066204   8.465727   9.220242   9.989865
    30  C   11.506893  11.307010   7.742574   8.543751   9.479752
    31  N   10.272316  10.043536   6.420642   7.244004   8.215270
    32  H    4.246202   3.330171   2.740217   2.803019   3.554670
    33  H    3.178849   2.813589   2.776376   2.781213   2.763615
    34  H    3.921695   3.396818   7.774502   8.551879   8.808798
    35  H    3.392134   3.820692   8.124502   8.912037   8.817752
    36  H    2.116076   3.337549   6.765042   7.460513   7.084087
    37  H    1.071227   2.165347   4.421992   5.012271   4.664193
    38  H    5.657735   5.113324   2.099521   1.083539   2.127966
    39  H    6.620556   6.287383   2.058481   1.080949   2.129487
    40  H    7.096056   6.906021   4.273550   2.843838   2.223837
    41  H    7.426253   7.675188   5.883264   4.718155   3.374498
    42  H    4.404219   4.852737   2.759599   2.917722   2.171397
    43  H    6.582399   6.711210   2.670012   2.811355   2.903165
    44  H    8.487848   8.621306   4.565276   4.964409   5.298462
    45  H    8.181084   7.779884   4.581399   5.651680   6.811015
    46  H    6.163463   5.566345   2.673274   3.877065   5.154337
    47  H    9.830567  10.036287   6.390094   7.036109   7.413171
    48  H   12.115721  12.289419   8.698725   9.358876   9.820853
    49  H   13.148693  13.093269   9.533401  10.280717  11.048507
    50  H   12.105663  11.810012   8.353392   9.167932  10.205681
                   16         17         18         19         20
    16  C    0.000000
    17  C    1.341108   0.000000
    18  S    2.601600   1.787055   0.000000
    19  C    2.327575   2.514330   1.789671   0.000000
    20  C    4.792462   5.727753   5.458521   3.714213   0.000000
    21  C    4.757580   5.516363   5.140216   3.601277   1.386926
    22  C    6.010509   6.720987   6.300365   4.886183   2.405470
    23  C    7.090794   7.913074   7.523112   5.986452   2.803036
    24  C    7.093940   8.043559   7.727707   6.036184   2.403652
    25  C    6.075251   7.075473   6.824181   5.061758   1.390569
    26  C    8.441833   9.218353   8.795103   7.347969   4.286063
    27  C    8.956760   9.575341   9.019671   7.757139   5.183202
    28  C   10.292833  10.903866  10.354442   9.130748   6.520393
    29  C   11.059515  11.788038  11.341032   9.999467   7.030184
    30  C   10.582267  11.431599  11.089475   9.613638   6.335104
    31  N    9.347223  10.229146   9.911343   8.381276   5.021409
    32  H    4.331355   5.323713   5.578180   4.211620   4.072496
    33  H    3.602990   4.247877   4.132994   2.957205   4.167447
    34  H    9.686060  10.090903   9.501763   8.580426   8.673589
    35  H    9.704891   9.815314   8.856280   8.228653   8.946023
    36  H    7.971535   7.903830   6.711841   6.257077   7.550805
    37  H    5.636153   5.754127   4.734525   3.955933   5.355113
    38  H    2.781844   4.040486   4.660652   3.284094   3.269920
    39  H    2.907941   4.113695   4.616327   3.186376   2.487113
    40  H    1.071862   2.124678   3.638825   3.331138   5.204607
    41  H    2.169958   1.066481   2.496820   3.556313   6.761069
    42  H    3.362820   3.555560   2.496715   1.066889   3.332796
    43  H    4.009441   4.617106   4.204684   2.835307   2.138110
    44  H    6.288568   6.854133   6.391087   5.204469   3.365224
    45  H    8.070003   9.058671   8.759928   7.045880   3.372668
    46  H    6.436889   7.494978   7.307413   5.518068   2.135795
    47  H    8.464582   8.958907   8.296127   7.163251   5.049418
    48  H   10.826570  11.334375  10.709687   9.616716   7.300361
    49  H   12.099964  12.817869  12.368353  11.053370   8.098516
    50  H   11.303835  12.220304  11.947239  10.416292   6.989733
                   21         22         23         24         25
    21  C    0.000000
    22  C    1.386826   0.000000
    23  C    2.417591   1.390290   0.000000
    24  C    2.762972   2.388644   1.394802   0.000000
    25  C    2.395546   2.764421   2.417958   1.381527   0.000000
    26  C    3.787012   2.513245   1.483200   2.491828   3.769282
    27  C    4.385589   3.013989   2.525225   3.744367   4.914886
    28  C    5.759963   4.381380   3.779502   4.865984   6.134216
    29  C    6.480757   5.135337   4.229488   5.037731   6.399069
    30  C    6.024661   4.792058   3.641759   4.139323   5.513258
    31  N    4.796398   3.653633   2.402519   2.823832   4.192313
    32  H    5.180147   6.435037   6.791224   5.965572   4.587980
    33  H    4.973927   6.325078   6.946745   6.372453   5.041369
    34  H    9.769888  10.777556  10.820335   9.827550   8.715998
    35  H    9.780744  10.762392  10.987670  10.239518   9.209842
    36  H    8.129351   9.137722   9.598404   9.101104   8.097465
    37  H    5.957244   7.111642   7.690087   7.217477   6.092707
    38  H    3.994017   5.261848   5.873041   5.381777   4.154372
    39  H    2.726454   3.866797   4.632354   4.470592   3.534008
    40  H    5.257482   6.459143   7.457456   7.399364   6.382159
    41  H    6.505968   7.664369   8.882749   9.053578   8.103604
    42  H    3.241137   4.461867   5.486385   5.523042   4.603517
    43  H    1.071550   2.128729   3.381013   3.834453   3.371366
    44  H    2.119020   1.072078   2.143407   3.369538   3.836011
    45  H    3.832838   3.356553   2.128856   1.069907   2.128497
    46  H    3.366514   3.834071   3.382915   2.126796   1.069727
    47  H    4.055046   2.756197   2.760353   4.083478   5.052817
    48  H    6.417807   5.053562   4.655301   5.818747   7.034748
    49  H    7.545346   6.192689   5.299255   6.069271   7.439514
    50  H    6.829398   5.673779   4.444110   4.691260   6.030233
                   26         27         28         29         30
    26  C    0.000000
    27  C    1.394501   0.000000
    28  C    2.398256   1.384855   0.000000
    29  C    2.747795   2.393064   1.386808   0.000000
    30  C    2.311091   2.715221   2.374724   1.384720   0.000000
    31  N    1.336402   2.371803   2.751950   2.380295   1.328992
    32  H    8.248705   9.243693  10.559978  10.944687  10.062143
    33  H    8.423516   9.210140  10.578130  11.164919  10.460337
    34  H   12.054034  12.930109  14.110400  14.441288  13.605635
    35  H   12.182765  12.827251  14.012557  14.540109  13.909874
    36  H   10.816263  11.296051  12.531730  13.239414  12.760980
    37  H    9.032581   9.600713  10.920622  11.629737  11.093820
    38  H    7.312553   8.205451   9.527874  10.002198   9.227265
    39  H    5.997818   6.786647   8.089839   8.630121   7.967815
    40  H    8.788581   9.383261  10.688601  11.369676  10.824381
    41  H   10.153851  10.464787  11.768937  12.674195  12.351018
    42  H    6.827182   7.212479   8.584277   9.463581   9.099581
    43  H    4.640459   5.026166   6.390304   7.240201   6.909032
    44  H    2.739971   2.743282   4.049935   5.010372   4.942598
    45  H    2.674380   4.012477   4.908461   4.798480   3.713682
    46  H    4.617905   5.834133   6.985165   7.114628   6.108737
    47  H    2.147574   1.070229   2.132433   3.365006   3.784963
    48  H    3.373992   2.135052   1.072741   2.141065   3.356752
    49  H    3.818436   3.374788   2.149558   1.071215   2.139275
    50  H    3.255880   3.785263   3.359992   2.145226   1.071063
                   31         32         33         34         35
    31  N    0.000000
    32  H    8.737184   0.000000
    33  H    9.140333   1.749781   0.000000
    34  H   12.435944   6.231671   6.121933   0.000000
    35  H   12.771873   7.138601   6.415358   2.480966   0.000000
    36  H   11.607405   6.355279   5.152506   4.280453   2.447477
    37  H    9.859194   4.210649   2.831440   4.992798   4.278418
    38  H    7.919872   2.156047   2.607287   8.277326   8.882277
    39  H    6.705210   3.690014   3.859504   9.540173   9.936479
    40  H    9.596122   4.447767   4.097228  10.141350  10.375133
    41  H   11.170319   6.174057   5.133693  10.845768  10.536423
    42  H    7.880411   4.350545   3.084390   8.155421   7.686005
    43  H    5.733459   5.262208   4.778049   9.968940   9.820666
    44  H    3.999126   7.292076   7.038826  11.655426  11.489786
    45  H    2.497120   6.564155   7.133358  10.062329  10.614570
    46  H    4.824146   4.164255   4.891092   8.028712   8.765264
    47  H    3.339368   9.105839   8.878209  12.780968  12.504116
    48  H    3.824634  11.367576  11.265860  14.841806  14.598634
    49  H    3.342224  11.995104  12.233220  15.397936  15.493795
    50  H    2.042111  10.512960  11.054618  13.960958  14.413136
                   36         37         38         39         40
    36  H    0.000000
    37  H    2.456278   0.000000
    38  H    7.648197   5.236546   0.000000
    39  H    8.464632   6.024082   1.726790   0.000000
    40  H    8.791453   6.439328   2.740975   2.966600   0.000000
    41  H    8.632259   6.600389   4.904336   5.007712   2.586920
    42  H    5.672102   3.443940   3.745042   3.572573   4.323925
    43  H    7.992530   5.770712   3.886821   2.591848   4.616424
    44  H    9.724808   7.734444   5.962159   4.445623   6.765281
    45  H    9.672572   7.919198   6.170946   5.377220   8.325023
    46  H    7.915616   5.999470   4.174036   3.965815   6.678298
    47  H   10.820849   9.140236   8.010482   6.568610   8.974856
    48  H   13.022500  11.478877  10.283784   8.803127  11.266680
    49  H   14.220915  12.663079  11.054182   9.671909  12.397208
    50  H   13.407952  11.763522   9.765957   8.587924  11.483877
                   41         42         43         44         45
    41  H    0.000000
    42  H    4.576541   0.000000
    43  H    5.579797   2.629722   0.000000
    44  H    7.725886   4.835272   2.424413   0.000000
    45  H   10.069713   6.510540   4.904301   4.254859   0.000000
    46  H    8.520126   5.080298   4.259406   4.905725   2.448432
    47  H    9.824864   6.610161   4.512421   2.214736   4.568540
    48  H   12.160592   9.065789   6.926874   4.542275   5.926012
    49  H   13.689325  10.514921   8.287070   6.016207   5.756156
    50  H   13.144109   9.916780   7.758969   5.911322   4.066832
                   46         47         48         49         50
    46  H    0.000000
    47  H    6.043223   0.000000
    48  H    7.923040   2.458663   0.000000
    49  H    8.120323   4.266552   2.490099   0.000000
    50  H    6.482418   4.854615   4.265655   2.485642   0.000000
 Stoichiometry    C24H19N5OS
 Framework group  C1[X(C24H19N5OS)]
 Deg. of freedom   144
 Full point group                 C1      NOp   1
 Largest Abelian subgroup         C1      NOp   1
 Largest concise Abelian subgroup C1      NOp   1
                         Standard orientation:                         
 ---------------------------------------------------------------------
 Center     Atomic      Atomic             Coordinates (Angstroms)
 Number     Number       Type             X           Y           Z
 ---------------------------------------------------------------------
      1          8           0        0.927701   -1.403221   -0.016950
      2          6           0        1.104181   -0.381541   -0.661580
      3          6           0        2.490351   -0.036651   -1.193960
      4          7           0        3.442381   -1.071770   -0.932740
      5          7           0        3.786331   -1.934320   -1.931210
      6          7           0        4.608761   -2.790520   -1.486600
      7          6           0        4.842641   -2.533300   -0.145190
      8          6           0        5.664211   -3.184430    0.774230
      9          6           0        5.693761   -2.687070    2.053760
     10          6           0        4.917021   -1.563700    2.416290
     11          6           0        4.102611   -0.918330    1.517020
     12          6           0        4.082261   -1.428340    0.216280
     13          7           0        0.092291    0.501799   -0.943560
     14          6           0        0.336411    1.789399   -1.597460
     15          6           0        0.901071    2.867759   -0.701660
     16          6           0        1.341770    4.138659   -1.243190
     17          6           0        1.807530    4.992089   -0.319450
     18         16           0        1.743850    4.290029    1.322690
     19          6           0        1.049151    2.792009    0.632580
     20          6           0       -1.265639    0.167439   -0.611910
     21          6           0       -2.067559    1.083659    0.052190
     22          6           0       -3.395149    0.785629    0.320460
     23          6           0       -3.946669   -0.433501   -0.056970
     24          6           0       -3.131519   -1.343191   -0.730370
     25          6           0       -1.810159   -1.049611   -1.006840
     26          6           0       -5.360559   -0.778111    0.229460
     27          6           0       -6.079639   -0.198301    1.274150
     28          6           0       -7.399069   -0.567771    1.475200
     29          6           0       -7.976189   -1.512931    0.640430
     30          6           0       -7.192399   -2.056371   -0.363460
     31          7           0       -5.927789   -1.696961   -0.557900
     32          1           0        2.454411    0.079739   -2.266830
     33          1           0        2.834991    0.894590   -0.765860
     34          1           0        6.241891   -4.037020    0.479260
     35          1           0        6.309121   -3.154340    2.796920
     36          1           0        4.962861   -1.210310    3.428170
     37          1           0        3.505491   -0.077730    1.807480
     38          1           0        0.994081    1.655529   -2.448110
     39          1           0       -0.608629    2.120609   -2.004460
     40          1           0        1.299030    4.374769   -2.287850
     41          1           0        2.187510    5.978249   -0.462580
     42          1           0        0.795791    1.980759    1.277510
     43          1           0       -1.667929    2.029289    0.359270
     44          1           0       -3.995469    1.524819    0.812970
     45          1           0       -3.547999   -2.278091   -1.042150
     46          1           0       -1.198909   -1.769621   -1.509110
     47          1           0       -5.615119    0.508209    1.930240
     48          1           0       -7.963679   -0.131711    2.276350
     49          1           0       -8.993429   -1.823771    0.767330
     50          1           0       -7.581549   -2.797221   -1.031950
 ---------------------------------------------------------------------
 Rotational constants (GHZ):      0.1841723      0.0671672      0.0550707
 Leave Link  202 at Fri Sep  2 10:12:36 2022, MaxMem=  209715200 cpu:       0.0
 (Enter /opt/gaussian/l301.exe)
 Standard basis: CC-pVDZ (5D, 7F)
 Ernie: Thresh=  0.10000D-02 Tol=  0.10000D-05 Strict=F.
 Ernie:  70 primitive shells out of 805 were deleted.
 There are   533 symmetry adapted basis functions of A   symmetry.
 Integral buffers will be    131072 words long.
 Raffenetti 2 integral format.
 Two-electron integral symmetry is turned on.
   533 basis functions,  1194 primitive gaussians,   564 cartesian basis functions
   111 alpha electrons      111 beta electrons
       nuclear repulsion energy      2891.7096727013 Hartrees.
 IExCor=  402 DFT=T Ex+Corr=B3LYP ExCW=0 ScaHFX=  0.200000
 ScaDFX=  0.800000  0.720000  1.000000  0.810000 ScalE2=  1.000000  1.000000
 IRadAn=      0 IRanWt=     -1 IRanGd=            0 ICorTp=0
 NAtoms=   50 NActive=   50 NUniq=   50 SFac= 1.00D+00 NAtFMM=   60 NAOKFM=F Big=F
 Leave Link  301 at Fri Sep  2 10:12:36 2022, MaxMem=  209715200 cpu:       0.3
 (Enter /opt/gaussian/l302.exe)
 NPDir=0 NMtPBC=     1 NCelOv=     1 NCel=       1 NClECP=     1 NCelD=      1
         NCelK=      1 NCelE2=     1 NClLst=     1 CellRange=     0.0.
 One-electron integrals computed using PRISM.
 NBasis=   533 RedAO= T  NBF=   533
 NBsUse=   533 1.00D-06 NBFU=   533
 Precomputing XC quadrature grid using
 IXCGrd= 2 IRadAn=           0 IRanWt=          -1 IRanGd=           0 AccXCQ= 0.00D+00.
 NRdTot=    3229 NPtTot=      412696 NUsed=      435962 NTot=      435994
 NSgBfM=   538   538   541   541   541 NAtAll=    50    50.
 Leave Link  302 at Fri Sep  2 10:12:37 2022, MaxMem=  209715200 cpu:       8.0
 (Enter /opt/gaussian/l303.exe)
 DipDrv:  MaxL=1.
 Leave Link  303 at Fri Sep  2 10:12:37 2022, MaxMem=  209715200 cpu:       1.1
 (Enter /opt/gaussian/l401.exe)
 Harris functional with IExCor=  402 diagonalized for initial guess.
 ExpMin= 1.22D-01 ExpMax= 1.11D+05 ExpMxC= 1.07D+03 IAcc=2 IRadAn=         4 AccDes= 0.00D+00
 HarFok:  IExCor=  402 AccDes= 0.00D+00 IRadAn=         4 IDoV= 1
 ScaDFX=  1.000000  1.000000  1.000000  1.000000
 FoFCou: FMM=F IPFlag=           0 FMFlag=      100000 FMFlg1=           0
         NFxFlg=           0 DoJE=T BraDBF=F KetDBF=T FulRan=T
         Omega=  0.000000  0.000000  1.000000  0.000000  0.000000 ICntrl=     500 IOpCl=  0
         NMat0=    1 NMatS0=    1 NMatT0=    0 NMatD0=    1 NMtDS0=    0 NMtDT0=    0
         I1Cent=           4 NGrid=           0.
 Petite list used in FoFCou.
 Harris En= -1673.02675376176    
 Initial guess orbital symmetries:
       Occupied  (A) (A) (A) (A) (A) (A) (A) (A) (A) (A) (A) (A)
                 (A) (A) (A) (A) (A) (A) (A) (A) (A) (A) (A) (A)
                 (A) (A) (A) (A) (A) (A) (A) (A) (A) (A) (A) (A)
                 (A) (A) (A) (A) (A) (A) (A) (A) (A) (A) (A) (A)
                 (A) (A) (A) (A) (A) (A) (A) (A) (A) (A) (A) (A)
                 (A) (A) (A) (A) (A) (A) (A) (A) (A) (A) (A) (A)
                 (A) (A) (A) (A) (A) (A) (A) (A) (A) (A) (A) (A)
                 (A) (A) (A) (A) (A) (A) (A) (A) (A) (A) (A) (A)
                 (A) (A) (A) (A) (A) (A) (A) (A) (A) (A) (A) (A)
                 (A) (A) (A)
       Virtual   (A) (A) (A) (A) (A) (A) (A) (A) (A) (A) (A) (A)
                 (A) (A) (A) (A) (A) (A) (A) (A) (A) (A) (A) (A)
                 (A) (A) (A) (A) (A) (A) (A) (A) (A) (A) (A) (A)
                 (A) (A) (A) (A) (A) (A) (A) (A) (A) (A) (A) (A)
                 (A) (A) (A) (A) (A) (A) (A) (A) (A) (A) (A) (A)
                 (A) (A) (A) (A) (A) (A) (A) (A) (A) (A) (A) (A)
                 (A) (A) (A) (A) (A) (A) (A) (A) (A) (A) (A) (A)
                 (A) (A) (A) (A) (A) (A) (A) (A) (A) (A) (A) (A)
                 (A) (A) (A) (A) (A) (A) (A) (A) (A) (A) (A) (A)
                 (A) (A) (A) (A) (A) (A) (A) (A) (A) (A) (A) (A)
                 (A) (A) (A) (A) (A) (A) (A) (A) (A) (A) (A) (A)
                 (A) (A) (A) (A) (A) (A) (A) (A) (A) (A) (A) (A)
                 (A) (A) (A) (A) (A) (A) (A) (A) (A) (A) (A) (A)
                 (A) (A) (A) (A) (A) (A) (A) (A) (A) (A) (A) (A)
                 (A) (A) (A) (A) (A) (A) (A) (A) (A) (A) (A) (A)
                 (A) (A) (A) (A) (A) (A) (A) (A) (A) (A) (A) (A)
                 (A) (A) (A) (A) (A) (A) (A) (A) (A) (A) (A) (A)
                 (A) (A) (A) (A) (A) (A) (A) (A) (A) (A) (A) (A)
                 (A) (A) (A) (A) (A) (A) (A) (A) (A) (A) (A) (A)
                 (A) (A) (A) (A) (A) (A) (A) (A) (A) (A) (A) (A)
                 (A) (A) (A) (A) (A) (A) (A) (A) (A) (A) (A) (A)
                 (A) (A) (A) (A) (A) (A) (A) (A) (A) (A) (A) (A)
                 (A) (A) (A) (A) (A) (A) (A) (A) (A) (A) (A) (A)
                 (A) (A) (A) (A) (A) (A) (A) (A) (A) (A) (A) (A)
                 (A) (A) (A) (A) (A) (A) (A) (A) (A) (A) (A) (A)
                 (A) (A) (A) (A) (A) (A) (A) (A) (A) (A) (A) (A)
                 (A) (A) (A) (A) (A) (A) (A) (A) (A) (A) (A) (A)
                 (A) (A) (A) (A) (A) (A) (A) (A) (A) (A) (A) (A)
                 (A) (A) (A) (A) (A) (A) (A) (A) (A) (A) (A) (A)
                 (A) (A) (A) (A) (A) (A) (A) (A) (A) (A) (A) (A)
                 (A) (A) (A) (A) (A) (A) (A) (A) (A) (A) (A) (A)
                 (A) (A) (A) (A) (A) (A) (A) (A) (A) (A) (A) (A)
                 (A) (A) (A) (A) (A) (A) (A) (A) (A) (A) (A) (A)
                 (A) (A) (A) (A) (A) (A) (A) (A) (A) (A) (A) (A)
                 (A) (A) (A) (A) (A) (A) (A) (A) (A) (A) (A) (A)
                 (A) (A)
 The electronic state of the initial guess is 1-A.
 Leave Link  401 at Fri Sep  2 10:12:40 2022, MaxMem=  209715200 cpu:      23.5
 (Enter /opt/gaussian/l502.exe)
 Closed shell SCF:
 Requested convergence on RMS density matrix=1.00D-08 within 128 cycles.
 Requested convergence on MAX density matrix=1.00D-06.
 Requested convergence on             energy=1.00D-06.
 No special actions if energy rises.
 Using DIIS extrapolation, IDIIS=  1040.
 Integral symmetry usage will be decided dynamically.
       435499 words used for storage of precomputed grid.
 IEnd=     1416707 IEndB=     1416707 NGot=   209715200 MDV=   208633794
 LenX=   208633794 LenY=   208315134
 Fock matrices will be formed incrementally for  20 cycles.
 Integral accuracy reduced to 1.0D-05 until final iterations.

 Cycle   1  Pass 0  IDiag  1:
 FoFCou: FMM=F IPFlag=           0 FMFlag=      100000 FMFlg1=           0
         NFxFlg=           0 DoJE=F BraDBF=F KetDBF=F FulRan=T
         Omega=  0.000000  0.000000  1.000000  0.000000  0.000000 ICntrl=       0 IOpCl=  0
         NMat0=    1 NMatS0=    1 NMatT0=    0 NMatD0=    1 NMtDS0=    0 NMtDT0=    0
         I1Cent=           0 NGrid=           0.
 Symmetry not used in FoFCou.
 E= -1672.52636020217    
 DIIS: error= 2.48D-02 at cycle   1 NSaved=   1.
 NSaved= 1 IEnMin= 1 EnMin= -1672.52636020217     IErMin= 1 ErrMin= 2.48D-02
 ErrMax= 2.48D-02 EMaxC= 1.00D-01 BMatC= 6.22D-01 BMatP= 6.22D-01
 IDIUse=3 WtCom= 7.52D-01 WtEn= 2.48D-01
 Coeff-Com:  0.100D+01
 Coeff-En:   0.100D+01
 Coeff:      0.100D+01
 Gap=     0.319 Goal=   None    Shift=    0.000
 GapD=    0.319 DampG=1.000 DampE=0.500 DampFc=0.5000 IDamp=-1.
 Damping current iteration by 5.00D-01
 RMSDP=4.30D-03 MaxDP=1.99D-01              OVMax= 3.11D-01

 Cycle   2  Pass 0  IDiag  1:
 RMSU=  1.50D-03    CP:  9.79D-01
 E= -1672.71037935813     Delta-E=       -0.184019155957 Rises=F Damp=T
 DIIS: error= 8.43D-03 at cycle   2 NSaved=   2.
 NSaved= 2 IEnMin= 2 EnMin= -1672.71037935813     IErMin= 2 ErrMin= 8.43D-03
 ErrMax= 8.43D-03 EMaxC= 1.00D-01 BMatC= 1.13D-01 BMatP= 6.22D-01
 IDIUse=3 WtCom= 9.16D-01 WtEn= 8.43D-02
 Coeff-Com:  0.232D+00 0.768D+00
 Coeff-En:   0.350D+00 0.650D+00
 Coeff:      0.242D+00 0.758D+00
 Gap=     0.259 Goal=   None    Shift=    0.000
 RMSDP=1.48D-03 MaxDP=7.32D-02 DE=-1.84D-01 OVMax= 2.68D-01

 Cycle   3  Pass 0  IDiag  1:
 RMSU=  9.73D-04    CP:  9.63D-01  7.74D-01
 E= -1673.13398448694     Delta-E=       -0.423605128807 Rises=F Damp=F
 DIIS: error= 9.38D-03 at cycle   3 NSaved=   3.
 NSaved= 3 IEnMin= 3 EnMin= -1673.13398448694     IErMin= 2 ErrMin= 8.43D-03
 ErrMax= 9.38D-03 EMaxC= 1.00D-01 BMatC= 8.91D-02 BMatP= 1.13D-01
 IDIUse=3 WtCom= 9.06D-01 WtEn= 9.38D-02
 Coeff-Com:  0.702D-01 0.462D+00 0.468D+00
 Coeff-En:   0.000D+00 0.000D+00 0.100D+01
 Coeff:      0.637D-01 0.419D+00 0.518D+00
 Gap=     0.184 Goal=   None    Shift=    0.000
 RMSDP=7.55D-04 MaxDP=5.74D-02 DE=-4.24D-01 OVMax= 7.48D-02

 Cycle   4  Pass 0  IDiag  1:
 RMSU=  4.04D-04    CP:  9.67D-01  8.52D-01  6.65D-01
 E= -1673.19774750964     Delta-E=       -0.063763022705 Rises=F Damp=F
 DIIS: error= 3.82D-03 at cycle   4 NSaved=   4.
 NSaved= 4 IEnMin= 4 EnMin= -1673.19774750964     IErMin= 4 ErrMin= 3.82D-03
 ErrMax= 3.82D-03 EMaxC= 1.00D-01 BMatC= 2.03D-02 BMatP= 8.91D-02
 IDIUse=3 WtCom= 9.62D-01 WtEn= 3.82D-02
 Coeff-Com:  0.166D-01 0.141D+00 0.335D+00 0.507D+00
 Coeff-En:   0.000D+00 0.000D+00 0.210D+00 0.790D+00
 Coeff:      0.159D-01 0.136D+00 0.330D+00 0.518D+00
 Gap=     0.180 Goal=   None    Shift=    0.000
 RMSDP=3.36D-04 MaxDP=2.06D-02 DE=-6.38D-02 OVMax= 3.65D-02

 Cycle   5  Pass 0  IDiag  1:
 RMSU=  1.49D-04    CP:  9.66D-01  8.26D-01  7.24D-01  5.75D-01
 E= -1673.21374837758     Delta-E=       -0.016000867942 Rises=F Damp=F
 DIIS: error= 2.39D-03 at cycle   5 NSaved=   5.
 NSaved= 5 IEnMin= 5 EnMin= -1673.21374837758     IErMin= 5 ErrMin= 2.39D-03
 ErrMax= 2.39D-03 EMaxC= 1.00D-01 BMatC= 2.12D-03 BMatP= 2.03D-02
 IDIUse=3 WtCom= 9.76D-01 WtEn= 2.39D-02
 Coeff-Com:  0.307D-02 0.258D-01 0.145D+00 0.333D+00 0.493D+00
 Coeff-En:   0.000D+00 0.000D+00 0.000D+00 0.918D-01 0.908D+00
 Coeff:      0.300D-02 0.251D-01 0.142D+00 0.327D+00 0.503D+00
 Gap=     0.179 Goal=   None    Shift=    0.000
 RMSDP=1.24D-04 MaxDP=6.90D-03 DE=-1.60D-02 OVMax= 1.76D-02

 Cycle   6  Pass 0  IDiag  1:
 RMSU=  3.85D-05    CP:  9.66D-01  8.27D-01  7.42D-01  6.55D-01  5.35D-01
 E= -1673.21593716758     Delta-E=       -0.002188789993 Rises=F Damp=F
 DIIS: error= 7.46D-04 at cycle   6 NSaved=   6.
 NSaved= 6 IEnMin= 6 EnMin= -1673.21593716758     IErMin= 6 ErrMin= 7.46D-04
 ErrMax= 7.46D-04 EMaxC= 1.00D-01 BMatC= 1.91D-04 BMatP= 2.12D-03
 IDIUse=3 WtCom= 9.93D-01 WtEn= 7.46D-03
 Coeff-Com:  0.219D-03-0.354D-02 0.425D-01 0.128D+00 0.293D+00 0.539D+00
 Coeff-En:   0.000D+00 0.000D+00 0.000D+00 0.000D+00 0.338D-01 0.966D+00
 Coeff:      0.218D-03-0.352D-02 0.422D-01 0.127D+00 0.292D+00 0.543D+00
 Gap=     0.179 Goal=   None    Shift=    0.000
 RMSDP=3.08D-05 MaxDP=2.39D-03 DE=-2.19D-03 OVMax= 4.44D-03

 Cycle   7  Pass 0  IDiag  1:
 RMSU=  1.40D-05    CP:  9.66D-01  8.27D-01  7.43D-01  6.50D-01  5.93D-01
                    CP:  6.35D-01
 E= -1673.21612247386     Delta-E=       -0.000185306279 Rises=F Damp=F
 DIIS: error= 1.92D-04 at cycle   7 NSaved=   7.
 NSaved= 7 IEnMin= 7 EnMin= -1673.21612247386     IErMin= 7 ErrMin= 1.92D-04
 ErrMax= 1.92D-04 EMaxC= 1.00D-01 BMatC= 2.06D-05 BMatP= 1.91D-04
 IDIUse=3 WtCom= 9.98D-01 WtEn= 1.92D-03
 Coeff-Com:  0.395D-04-0.427D-02 0.114D-01 0.417D-01 0.120D+00 0.316D+00
 Coeff-Com:  0.515D+00
 Coeff-En:   0.000D+00 0.000D+00 0.000D+00 0.000D+00 0.000D+00 0.429D-01
 Coeff-En:   0.957D+00
 Coeff:      0.394D-04-0.426D-02 0.113D-01 0.416D-01 0.119D+00 0.316D+00
 Coeff:      0.516D+00
 Gap=     0.179 Goal=   None    Shift=    0.000
 RMSDP=9.55D-06 MaxDP=8.23D-04 DE=-1.85D-04 OVMax= 9.85D-04

 Initial convergence to 1.0D-05 achieved.  Increase integral accuracy.
 Cycle   8  Pass 1  IDiag  1:
 E= -1673.21618921406     Delta-E=       -0.000066740203 Rises=F Damp=F
 DIIS: error= 2.39D-04 at cycle   1 NSaved=   1.
 NSaved= 1 IEnMin= 1 EnMin= -1673.21618921406     IErMin= 1 ErrMin= 2.39D-04
 ErrMax= 2.39D-04 EMaxC= 1.00D-01 BMatC= 1.22D-05 BMatP= 1.22D-05
 IDIUse=3 WtCom= 9.98D-01 WtEn= 2.39D-03
 Coeff-Com:  0.100D+01
 Coeff-En:   0.100D+01
 Coeff:      0.100D+01
 Gap=     0.179 Goal=   None    Shift=    0.000
 RMSDP=9.55D-06 MaxDP=8.23D-04 DE=-6.67D-05 OVMax= 7.38D-04

 Cycle   9  Pass 1  IDiag  1:
 RMSU=  9.38D-05    CP:  1.00D+00
 E= -1673.21619605277     Delta-E=       -0.000006838714 Rises=F Damp=F
 DIIS: error= 7.33D-05 at cycle   2 NSaved=   2.
 NSaved= 2 IEnMin= 2 EnMin= -1673.21619605277     IErMin= 2 ErrMin= 7.33D-05
 ErrMax= 7.33D-05 EMaxC= 1.00D-01 BMatC= 4.95D-06 BMatP= 1.22D-05
 IDIUse=1 WtCom= 1.00D+00 WtEn= 0.00D+00
 Coeff-Com:  0.332D+00 0.668D+00
 Coeff:      0.332D+00 0.668D+00
 Gap=     0.179 Goal=   None    Shift=    0.000
 RMSDP=9.41D-06 MaxDP=4.11D-04 DE=-6.84D-06 OVMax= 1.14D-03

 Cycle  10  Pass 1  IDiag  1:
 RMSU=  6.64D-06    CP:  1.00D+00  1.00D+00
 E= -1673.21619408595     Delta-E=        0.000001966818 Rises=F Damp=F
 DIIS: error= 9.08D-05 at cycle   3 NSaved=   3.
 NSaved= 3 IEnMin= 2 EnMin= -1673.21619605277     IErMin= 2 ErrMin= 7.33D-05
 ErrMax= 9.08D-05 EMaxC= 1.00D-01 BMatC= 6.74D-06 BMatP= 4.95D-06
 IDIUse=1 WtCom= 1.00D+00 WtEn= 0.00D+00
 Coeff-Com:  0.252D-02 0.538D+00 0.460D+00
 Coeff:      0.252D-02 0.538D+00 0.460D+00
 Gap=     0.179 Goal=   None    Shift=    0.000
 RMSDP=5.35D-06 MaxDP=2.51D-04 DE= 1.97D-06 OVMax= 6.93D-04

 Cycle  11  Pass 1  IDiag  1:
 RMSU=  8.04D-07    CP:  1.00D+00  1.01D+00  4.52D-01
 E= -1673.21620130591     Delta-E=       -0.000007219959 Rises=F Damp=F
 DIIS: error= 8.86D-06 at cycle   4 NSaved=   4.
 NSaved= 4 IEnMin= 4 EnMin= -1673.21620130591     IErMin= 4 ErrMin= 8.86D-06
 ErrMax= 8.86D-06 EMaxC= 1.00D-01 BMatC= 1.12D-07 BMatP= 4.95D-06
 IDIUse=1 WtCom= 1.00D+00 WtEn= 0.00D+00
 Coeff-Com: -0.348D-02 0.332D+00 0.293D+00 0.379D+00
 Coeff:     -0.348D-02 0.332D+00 0.293D+00 0.379D+00
 Gap=     0.179 Goal=   None    Shift=    0.000
 RMSDP=6.93D-07 MaxDP=3.60D-05 DE=-7.22D-06 OVMax= 6.66D-05

 Cycle  12  Pass 1  IDiag  1:
 RMSU=  2.19D-07    CP:  1.00D+00  1.01D+00  4.63D-01  4.63D-01
 E= -1673.21620141294     Delta-E=       -0.000000107028 Rises=F Damp=F
 DIIS: error= 1.92D-06 at cycle   5 NSaved=   5.
 NSaved= 5 IEnMin= 5 EnMin= -1673.21620141294     IErMin= 5 ErrMin= 1.92D-06
 ErrMax= 1.92D-06 EMaxC= 1.00D-01 BMatC= 3.98D-09 BMatP= 1.12D-07
 IDIUse=1 WtCom= 1.00D+00 WtEn= 0.00D+00
 Coeff-Com: -0.224D-02 0.178D+00 0.158D+00 0.233D+00 0.434D+00
 Coeff:     -0.224D-02 0.178D+00 0.158D+00 0.233D+00 0.434D+00
 Gap=     0.179 Goal=   None    Shift=    0.000
 RMSDP=1.51D-07 MaxDP=1.12D-05 DE=-1.07D-07 OVMax= 1.47D-05

 Cycle  13  Pass 1  IDiag  1:
 RMSU=  8.11D-08    CP:  1.00D+00  1.01D+00  4.65D-01  4.86D-01  6.97D-01
 E= -1673.21620141649     Delta-E=       -0.000000003551 Rises=F Damp=F
 DIIS: error= 4.67D-07 at cycle   6 NSaved=   6.
 NSaved= 6 IEnMin= 6 EnMin= -1673.21620141649     IErMin= 6 ErrMin= 4.67D-07
 ErrMax= 4.67D-07 EMaxC= 1.00D-01 BMatC= 2.89D-10 BMatP= 3.98D-09
 IDIUse=1 WtCom= 1.00D+00 WtEn= 0.00D+00
 Coeff-Com: -0.898D-03 0.656D-01 0.579D-01 0.916D-01 0.253D+00 0.533D+00
 Coeff:     -0.898D-03 0.656D-01 0.579D-01 0.916D-01 0.253D+00 0.533D+00
 Gap=     0.179 Goal=   None    Shift=    0.000
 RMSDP=4.02D-08 MaxDP=2.94D-06 DE=-3.55D-09 OVMax= 4.00D-06

 Cycle  14  Pass 1  IDiag  1:
 RMSU=  2.14D-08    CP:  1.00D+00  1.01D+00  4.64D-01  4.91D-01  7.27D-01
                    CP:  7.95D-01
 E= -1673.21620141672     Delta-E=       -0.000000000233 Rises=F Damp=F
 DIIS: error= 1.75D-07 at cycle   7 NSaved=   7.
 NSaved= 7 IEnMin= 7 EnMin= -1673.21620141672     IErMin= 7 ErrMin= 1.75D-07
 ErrMax= 1.75D-07 EMaxC= 1.00D-01 BMatC= 3.04D-11 BMatP= 2.89D-10
 IDIUse=1 WtCom= 1.00D+00 WtEn= 0.00D+00
 Coeff-Com: -0.204D-03 0.128D-01 0.112D-01 0.200D-01 0.855D-01 0.296D+00
 Coeff-Com:  0.575D+00
 Coeff:     -0.204D-03 0.128D-01 0.112D-01 0.200D-01 0.855D-01 0.296D+00
 Coeff:      0.575D+00
 Gap=     0.179 Goal=   None    Shift=    0.000
 RMSDP=1.47D-08 MaxDP=6.98D-07 DE=-2.33D-10 OVMax= 1.89D-06

 Cycle  15  Pass 1  IDiag  1:
 RMSU=  7.63D-09    CP:  1.00D+00  1.01D+00  4.64D-01  4.91D-01  7.40D-01
                    CP:  8.21D-01  7.19D-01
 E= -1673.21620141683     Delta-E=       -0.000000000106 Rises=F Damp=F
 DIIS: error= 8.60D-08 at cycle   8 NSaved=   8.
 NSaved= 8 IEnMin= 8 EnMin= -1673.21620141683     IErMin= 8 ErrMin= 8.60D-08
 ErrMax= 8.60D-08 EMaxC= 1.00D-01 BMatC= 5.29D-12 BMatP= 3.04D-11
 IDIUse=1 WtCom= 1.00D+00 WtEn= 0.00D+00
 Coeff-Com:  0.346D-04-0.369D-02-0.338D-02-0.386D-02 0.734D-02 0.869D-01
 Coeff-Com:  0.340D+00 0.577D+00
 Coeff:      0.346D-04-0.369D-02-0.338D-02-0.386D-02 0.734D-02 0.869D-01
 Coeff:      0.340D+00 0.577D+00
 Gap=     0.179 Goal=   None    Shift=    0.000
 RMSDP=6.02D-09 MaxDP=2.58D-07 DE=-1.06D-10 OVMax= 9.02D-07

 SCF Done:  E(RB3LYP) =  -1673.21620142     A.U. after   15 cycles
             Convg  =    0.6021D-08             -V/T =  2.0049
 KE= 1.665004339841D+03 PE=-9.693099638615D+03 EE= 3.463169424656D+03
 Leave Link  502 at Fri Sep  2 10:23:43 2022, MaxMem=  209715200 cpu:    5290.7
 (Enter /opt/gaussian/l601.exe)
 Copying SCF densities to generalized density rwf, IOpCl= 0 IROHF=0.

 **********************************************************************

            Population analysis using the SCF density.

 **********************************************************************

 Orbital symmetries:
       Occupied  (A) (A) (A) (A) (A) (A) (A) (A) (A) (A) (A) (A)
                 (A) (A) (A) (A) (A) (A) (A) (A) (A) (A) (A) (A)
                 (A) (A) (A) (A) (A) (A) (A) (A) (A) (A) (A) (A)
                 (A) (A) (A) (A) (A) (A) (A) (A) (A) (A) (A) (A)
                 (A) (A) (A) (A) (A) (A) (A) (A) (A) (A) (A) (A)
                 (A) (A) (A) (A) (A) (A) (A) (A) (A) (A) (A) (A)
                 (A) (A) (A) (A) (A) (A) (A) (A) (A) (A) (A) (A)
                 (A) (A) (A) (A) (A) (A) (A) (A) (A) (A) (A) (A)
                 (A) (A) (A) (A) (A) (A) (A) (A) (A) (A) (A) (A)
                 (A) (A) (A)
       Virtual   (A) (A) (A) (A) (A) (A) (A) (A) (A) (A) (A) (A)
                 (A) (A) (A) (A) (A) (A) (A) (A) (A) (A) (A) (A)
                 (A) (A) (A) (A) (A) (A) (A) (A) (A) (A) (A) (A)
                 (A) (A) (A) (A) (A) (A) (A) (A) (A) (A) (A) (A)
                 (A) (A) (A) (A) (A) (A) (A) (A) (A) (A) (A) (A)
                 (A) (A) (A) (A) (A) (A) (A) (A) (A) (A) (A) (A)
                 (A) (A) (A) (A) (A) (A) (A) (A) (A) (A) (A) (A)
                 (A) (A) (A) (A) (A) (A) (A) (A) (A) (A) (A) (A)
                 (A) (A) (A) (A) (A) (A) (A) (A) (A) (A) (A) (A)
                 (A) (A) (A) (A) (A) (A) (A) (A) (A) (A) (A) (A)
                 (A) (A) (A) (A) (A) (A) (A) (A) (A) (A) (A) (A)
                 (A) (A) (A) (A) (A) (A) (A) (A) (A) (A) (A) (A)
                 (A) (A) (A) (A) (A) (A) (A) (A) (A) (A) (A) (A)
                 (A) (A) (A) (A) (A) (A) (A) (A) (A) (A) (A) (A)
                 (A) (A) (A) (A) (A) (A) (A) (A) (A) (A) (A) (A)
                 (A) (A) (A) (A) (A) (A) (A) (A) (A) (A) (A) (A)
                 (A) (A) (A) (A) (A) (A) (A) (A) (A) (A) (A) (A)
                 (A) (A) (A) (A) (A) (A) (A) (A) (A) (A) (A) (A)
[...]
 -0.05569902,0.00012493,-0.00502047,-0.00239053,-0.00210628,0.00259356,
 -0.00104528,0.00130930,0.00087803,-0.00002122,0.00308482,-0.00199675,-
 0.00353010,-0.00000031,-0.00000067,-0.00000288,-0.00000111,0.00000100,
 0.00000078,-0.00000093,0.00000055,0.00000035,-0.00000090,0.00000056,-0
 .00000093,0.00000079,-0.00000056,0.00000002,0.00000040,0.00000149,0.00
 000137,-0.00000668,0.00000118,0.00000146,0.00000171,0.00000235,-0.0000
 1247,0.00000149,-0.00000027,0.00000138,0.00000081,-0.00000075,0.000000
 66,0.00001196,-0.00000560,0.00000082,0.00002575,-0.00000697,-0.0000017
 5,-0.00123100,0.00131034,0.00026109,-0.00021733,0.00005196,0.00010498,
 0.00001336,0.00000608,-0.00000967,0.08461498,0.32526394,-0.00001904,0.
 00005194,-0.00003103,0.00007785,-0.00008303,0.00005289,0.00001018,-0.0
 0001812,0.00000036,-0.00001376,0.00001041,0.00000285,0.00000551,-0.000
 00976,-0.00001837,-0.00000952,0.00000990,-0.00000385,-0.00000197,0.000
 00245,0.00000302,0.00000143,-0.00000121,0.00000078,-0.00000076,0.00000
 121,-0.00000193,0.00000103,-0.00000060,0.00000189,-0.00000066,0.000000
 72,-0.00000335,0.00000864,-0.00000268,0.00001711,-0.00012832,0.0000330
 1,0.00006392,0.00001203,0.00001251,0.00000168,0.00000208,0.00000998,-0
 .00000111,-0.00000472,-0.00000180,-0.00001310,-0.00000286,-0.00000750,
 0.00001030,-0.00000420,-0.00000632,-0.00000676,-0.00000307,0.00000575,
 0.00001055,0.00005106,-0.00001296,-0.00009932,-0.00017032,0.00036385,-
 0.00024754,0.00037865,-0.00055776,-0.00020788,-0.00079971,0.00070224,-
 0.00203296,0.00002992,0.00003198,0.00003300,0.00002637,0.00002234,0.00
 021620,-0.00604219,-0.00888289,0.00032013,-0.00955186,-0.05606899,-0.0
 4930629,0.00218351,0.00601438,0.00442154,0.00309532,-0.00127844,0.0071
 1697,0.00075696,0.00038195,-0.00051433,0.00349076,-0.00394116,0.005393
 12,0.00000004,-0.00000026,-0.00000246,-0.00000508,0.00000200,0.0000021
 1,-0.00000059,0.00000036,0.00000019,-0.00000110,0.00000051,-0.00000064
 ,-0.00000084,-0.00000040,-0.00000155,0.00000037,-0.00000014,0.00000315
 ,-0.00000524,-0.00000327,0.00000090,-0.00000014,-0.00000457,-0.0000110
 7,0.00000299,0.00000079,-0.00000168,0.00000105,-0.00000025,-0.00000020
 ,0.00000218,0.00000035,0.00000855,0.00001281,-0.00001473,0.00001018,0.
 00084844,0.00034900,0.00097628,-0.00014228,0.00007188,-0.00009312,-0.0
 0000087,0.00000009,0.00000688,0.00766437,0.06097625,0.03874669,-0.0000
 4257,0.00002989,-0.00002348,0.00008609,-0.00007917,0.00001070,0.000013
 40,-0.00001150,0.00000914,-0.00001879,0.00001033,0.00000695,0.00000679
 ,-0.00001468,-0.00002084,-0.00001250,0.00001274,-0.00000466,-0.0000019
 4,0.00000272,0.00000421,0.00000117,-0.00000162,0.00000009,-0.00000137,
 0.00000086,-0.00000085,0.00000090,-0.00000204,0.00000255,-0.00000166,-
 0.00000060,-0.00000433,0.00001084,-0.00000199,0.00001903,-0.00013980,-
 0.00000846,0.00001537,-0.00000247,0.00006038,-0.00000349,0.00000493,0.
 00000546,0.00000211,-0.00000170,-0.00000319,-0.00001501,-0.00000264,-0
 .00001545,0.00000664,-0.00000487,-0.00000526,-0.00000532,-0.00000020,0
 .00000473,0.00001103,0.00010694,0.00000250,-0.00003830,-0.00004754,-0.
 00003755,0.00000803,0.00002035,0.00009923,0.00001126,-0.00019353,0.001
 45176,0.00040092,-0.00044745,-0.00031075,-0.00000527,-0.00002577,0.000
 14390,0.00005662,-0.00382869,-0.00409101,0.00246480,-0.01365906,0.0210
 8519,0.01115815,-0.17830295,0.11887807,0.07241631,0.00913382,-0.006947
 55,-0.00310885,0.00136623,-0.00275808,0.00123753,-0.00042578,-0.000374
 35,-0.00104495,-0.00000317,-0.00000022,-0.00000133,-0.00000721,0.00000
 270,0.00000029,-0.00000032,0.00000078,0.00000020,-0.00000076,0.0000009
 8,-0.00000086,0.00000010,0.00000009,-0.00000134,0.00000149,0.00000205,
 0.00000314,-0.00001147,-0.00001221,0.00000418,0.00000183,0.00000113,-0
 .00000919,-0.00000056,0.00000172,0.00000072,-0.00000171,-0.00000042,0.
 00000006,0.00000436,0.00000205,0.00000792,-0.00001783,-0.00001127,0.00
 000508,0.00002447,-0.00001340,-0.00001129,0.00002310,0.00001411,-0.000
 01144,-0.00004104,-0.00001566,0.00002549,0.00077894,0.00025132,-0.0013
 7095,0.18494634,0.00001904,-0.00002750,0.00001238,-0.00005430,0.000059
 82,-0.00000825,-0.00000915,0.00000901,-0.00000477,0.00001234,-0.000008
 10,-0.00000482,-0.00000531,0.00001005,0.00001419,0.00000899,-0.0000088
 9,0.00000325,0.00000127,-0.00000180,-0.00000309,-0.00000075,0.00000108
 ,0.00000013,0.00000081,-0.00000050,0.00000010,-0.00000072,0.00000135,-
 0.00000170,0.00000051,0.00000073,0.00000332,-0.00000637,0.00000097,-0.
 00001228,0.00009073,-0.00000570,-0.00000795,-0.00000138,-0.00002789,-0
 .00000078,-0.00000096,-0.00000290,-0.00000009,0.00000185,0.00000125,0.
 00000708,0.00000315,0.00000538,-0.00000273,0.00000045,0.00000220,0.000
 00137,0.00000284,-0.00000284,-0.00000581,-0.00004476,-0.00002431,0.000
 01610,0.00000034,-0.00004008,-0.00001380,0.00002380,0.00002814,-0.0000
 1206,-0.00019266,0.00035454,0.00020121,-0.00013181,-0.00005184,0.00008
 346,0.00000352,0.00007808,0.00000052,-0.00314486,0.00128545,-0.0012109
 2,-0.00759752,0.00914341,0.00342286,0.11932471,-0.17741942,-0.07221921
 ,0.02182627,-0.01281465,-0.01119703,-0.00393747,-0.00453140,-0.0024746
 5,-0.00033548,-0.00026722,0.00105838,0.00000138,0.00000028,0.00000136,
 0.00000332,-0.00000159,-0.00000028,0.00000023,-0.00000057,-0.00000026,
 0.00000061,-0.00000072,0.00000071,-0.00000030,0.00000016,0.00000071,-0
 .00000075,-0.00000124,-0.00000192,0.00000562,0.00000619,-0.00000282,-0
 .00000068,-0.00000012,0.00000488,-0.00000110,-0.00000056,-0.00000024,-
 0.00000049,0.00000040,-0.00000006,-0.00000378,0.00000025,-0.00000337,-
 0.00000125,0.00000691,-0.00000012,-0.00000533,-0.00002921,0.00000073,-
 0.00001513,0.00000254,0.00001472,-0.00001161,-0.00000229,-0.00000855,0
 .00062961,0.00062049,0.00120136,-0.12772682,0.18354813,0.00002487,-0.0
 0000974,0.00000450,-0.00003824,0.00002745,0.00000196,-0.00000483,0.000
 00634,-0.00000224,0.00000811,-0.00000428,-0.00000431,-0.00000514,0.000
 00813,0.00000786,0.00000662,-0.00000685,0.00000238,0.00000070,-0.00000
 077,-0.00000236,-0.00000007,0.00000053,0.00000092,0.00000086,-0.000000
 34,-0.00000100,-0.00000059,0.00000170,-0.00000093,0.00000063,0.0000011
 3,0.00000251,-0.00000375,-0.00000017,-0.00000698,0.00006757,0.00000397
 ,-0.00001983,0.00000224,-0.00002870,0.00000461,-0.00000167,-0.00000027
 ,-0.00000117,-0.00000021,0.00000064,0.00000450,0.00000164,0.00000570,0
 .00000044,0.00000046,0.00000055,0.00000003,0.00000123,-0.00000093,-0.0
 0000426,-0.00006273,-0.00000358,-0.00001672,0.00002645,-0.00001819,0.0
 0003598,0.00002111,-0.00001213,0.00003731,-0.00005033,-0.00026904,-0.0
 0024065,0.00001243,0.00012784,-0.00019913,0.00002900,-0.00001239,-0.00
 000068,0.00269893,-0.00089206,0.00782240,0.00316711,-0.00479805,0.0024
 3338,0.07252662,-0.07216010,-0.08167825,0.00491772,-0.00290612,0.00277
 999,0.00092059,-0.00280283,0.00730838,-0.00105398,0.00103380,-0.003117
 19,0.00000153,0.00000005,0.00000053,0.00000324,-0.00000105,0.00000003,
 0.00000010,-0.00000048,-0.00000009,0.00000004,-0.00000051,0.00000051,-
 0.00000071,-0.00000020,0.00000003,-0.00000077,-0.00000172,-0.00000086,
 0.00000599,0.00000524,-0.00000232,-0.00000166,-0.00000063,0.00000407,0
 .00000063,-0.00000064,-0.00000130,0.00000081,0.00000044,-0.00000006,-0
 .00000289,-0.00000015,-0.00000150,0.00000616,0.00000453,0.00000313,-0.
 00000494,-0.00000385,-0.00001678,-0.00001318,0.00000649,-0.00002525,0.
 00001689,-0.00000467,0.00003333,-0.00127516,0.00132393,-0.00358016,-0.
 08088144,0.08027215,0.07210634,-0.00004184,0.00002972,-0.00001817,0.00
 008405,-0.00006697,0.00001155,0.00001427,-0.00001600,0.00000758,-0.000
 01974,0.00001330,0.00000784,0.00000959,-0.00001672,-0.00002280,-0.0000
 1471,0.00001501,-0.00000556,-0.00000176,0.00000266,0.00000529,0.000001
 16,-0.00000144,-0.00000046,-0.00000126,0.00000125,0.00000006,0.0000015
 4,-0.00000235,0.00000243,-0.00000055,-0.00000129,-0.00000532,0.0000098
 1,-0.00000139,0.00001979,-0.00010666,-0.00000860,0.00002388,-0.0000018
 1,0.00003883,-0.00000172,0.00000106,0.00000469,0.00000101,-0.00000248,
 -0.00000149,-0.00001106,-0.00000495,-0.00000993,0.00000408,-0.00000081
 ,-0.00000312,-0.00000203,-0.00000523,0.00000516,0.00000919,0.00006570,
 0.00000643,-0.00003377,-0.00004011,-0.00001404,0.00000037,-0.00001842,
 0.00000843,0.00000491,-0.00012565,0.00001447,-0.00040518,-0.00009050,0
 .00003482,0.00005535,0.00001459,-0.00003385,-0.00002887,0.00099035,0.0
 0125140,-0.00001120,0.00225769,-0.00169686,0.00105785,-0.00305228,0.00
 089337,0.00177385,-0.30127552,-0.08683968,0.05170532,-0.01380155,-0.01
 211357,0.00073425,-0.00198599,0.00308493,0.00359384,-0.00000217,-0.000
 00054,-0.00000230,-0.00000530,0.00000262,0.00000074,-0.00000070,0.0000
 0086,0.00000042,-0.00000119,0.00000102,-0.00000124,0.00000041,-0.00000
 042,-0.00000104,0.00000104,0.00000201,0.00000290,-0.00000983,-0.000009
 27,0.00000438,0.00000105,0.00000096,-0.00000958,0.00000135,0.00000088,
 0.00000055,0.00000040,-0.00000062,0.00000008,0.00000705,-0.00000095,0.
 00000527,-0.00000636,-0.00001013,0.00000511,0.00001235,0.00001443,0.00
 001969,0.00013626,-0.00007341,-0.00001459,-0.00000567,0.00000228,0.000
 00294,-0.00016303,0.00014490,0.00019312,0.00042200,0.00009060,-0.00121
 120,0.31640491,-0.00001180,0.00001121,-0.00000413,0.00002159,-0.000027
 05,0.00000336,0.00000356,-0.00000320,0.00000149,-0.00000586,0.00000354
 ,0.00000262,0.00000274,-0.00000517,-0.00000604,-0.00000445,0.00000415,
 -0.00000161,-0.00000032,0.00000075,0.00000166,0.00000009,-0.00000044,-
 0.00000037,-0.00000058,0.00000016,0.00000037,0.00000035,-0.00000094,0.
 00000077,-0.00000030,-0.00000066,-0.00000152,0.00000263,-0.00000009,0.
 00000524,-0.00004851,0.00001990,-0.00000700,0.00000587,0.00001274,-0.0
 0000459,-0.00000060,0.00000077,-0.00000086,-0.00000052,-0.00000014,-0.
 00000319,-0.00000173,-0.00000331,0.00000067,0.00000033,-0.00000021,0.0
 0000019,-0.00000218,0.00000153,0.00000353,0.00002486,0.00003636,0.0000
 1724,0.00004456,0.00006490,0.00000890,-0.00000877,-0.00011531,-0.00002
 861,0.00017708,0.00016884,0.00043227,0.00004270,-0.00004178,-0.0000387
 1,-0.00005645,0.00001207,0.00004894,0.00023460,-0.00192472,-0.00052673
 ,-0.00085590,-0.00453959,-0.00313534,-0.02814694,-0.00366800,0.0063556
 5,-0.08693229,-0.08623243,0.01045465,0.01829297,0.01114926,-0.00226932
 ,0.00348149,-0.00111005,-0.00341797,-0.00000078,0.00000002,-0.00000066
 ,-0.00000153,0.00000062,0.00000003,-0.00000002,0.00000039,0.00000007,-
 0.00000012,0.00000045,-0.00000036,0.00000036,0.00000009,-0.00000021,0.
 00000047,0.00000084,0.00000070,-0.00000232,-0.00000124,0.00000085,0.00
 000134,-0.00000011,-0.00000274,0.00000034,0.00000030,0.00000041,-0.000
 00001,-0.00000012,0.00000014,0.00000257,-0.00000076,0.00000116,0.00000
 342,-0.00000104,-0.00000357,0.00000801,0.00009192,-0.00000410,-0.00008
 861,0.00004996,-0.00000186,-0.00000257,-0.00000219,0.00000166,-0.00138
 418,-0.00023890,0.00022648,0.00076033,0.00092415,0.00112850,0.09473085
 ,0.08502844,0.00001222,0.00000212,0.00000084,-0.00000800,0.00000759,0.
 00000276,-0.00000173,-0.00000020,-0.00000254,0.00000350,-0.00000166,-0
 .00000284,-0.00000296,0.00000421,0.00000231,0.00000303,-0.00000317,0.0
 0000121,-0.00000003,-0.00000014,-0.00000125,0.00000024,0.00000011,0.00
 000096,0.00000054,-0.00000021,-0.00000118,-0.00000045,0.00000117,-0.00
 000020,0.00000026,0.00000073,0.00000101,-0.00000078,-0.00000063,-0.000
 00191,0.00004391,-0.00001354,0.00003970,-0.00000689,-0.00000798,0.0000
 1222,0.00000135,0.00000262,0.00000025,-0.00000067,-0.00000079,0.000001
 10,0.00000094,0.00000209,0.00000145,-0.00000045,-0.00000044,-0.0000012
 6,0.00000190,0.00000029,-0.00000156,-0.00003202,-0.00002038,-0.0000601
 5,-0.00002218,0.00004813,-0.00000298,0.00004873,-0.00003511,-0.0000017
 0,-0.00035320,0.00045523,-0.00132979,0.00001351,-0.00004508,0.00005447
 ,-0.00000237,0.00006840,-0.00006762,-0.00028624,-0.00082529,-0.0004158
 8,0.00127056,-0.00289621,0.00644772,-0.00627710,-0.00191332,0.00357042
 ,0.05172171,0.01042776,-0.04659937,0.00911570,0.00636760,-0.00028578,0
 .00372848,-0.00329386,0.00574433,0.00000123,-0.00000004,0.00000042,0.0
 0000063,-0.00000014,0.00000056,0.00000006,-0.00000027,0.00000004,-0.00
 000015,-0.00000022,0.00000028,-0.00000055,-0.00000023,-0.00000029,-0.0
 0000029,-0.00000104,-0.00000003,0.00000041,-0.00000209,0.00000067,-0.0
 0000250,-0.00000059,0.00000087,0.00000022,-0.00000003,-0.00000068,0.00
 000022,0.00000011,0.00000006,-0.00000130,0.00000034,0.00000003,0.00000
 845,-0.00000243,0.00001007,0.00001416,0.00001104,0.00006791,-0.0000244
 8,0.00001646,0.00012461,-0.00000266,0.00000026,-0.00000290,-0.00023264
 ,-0.00021402,0.00037589,-0.00103369,0.00132797,-0.00325486,-0.05667215
 ,-0.01023123,0.03804630,-0.00003101,0.00006023,-0.00002644,0.00008468,
 -0.00010991,0.00002321,0.00001301,-0.00001358,0.00000484,-0.00001804,0
 .00001202,0.00000770,0.00001115,-0.00001459,-0.00001999,-0.00001273,0.
 00001567,-0.00000522,-0.00000208,0.00000178,0.00000492,0.00000064,-0.0
 0000012,-0.00000087,-0.00000103,0.00000242,-0.00000003,0.00000220,-0.0
 0000178,0.00000162,0.00000072,-0.00000088,-0.00000537,0.00000768,-0.00
 000184,0.00001803,-0.00014015,0.00001899,0.00001467,-0.00000067,0.0000
 3463,-0.00000043,0.00000039,0.00000403,0.00000083,-0.00000194,-0.00000
 026,-0.00000884,-0.00000399,-0.00000819,0.00000294,-0.00000070,-0.0000
 0258,-0.00000115,-0.00000604,0.00000414,0.00000748,0.00008804,0.000025
 82,-0.00002982,-0.00002505,-0.00009764,-0.00003682,-0.00039074,0.00011
 183,0.00009453,0.00031115,-0.00106961,-0.00022313,-0.00001543,0.000025
 89,0.00001447,-0.00002974,-0.00001564,0.00002659,-0.00287044,-0.002937
 97,0.00314915,-0.00085837,-0.00024274,0.00003835,-0.00246571,0.0021580
 8,0.00332781,0.00879536,0.02018293,0.00499417,-0.06183112,-0.04688159,
 -0.00725674,-0.01624162,-0.03411544,-0.00607830,-0.00000229,-0.0000015
 3,-0.00000239,-0.00000410,0.00000231,0.00000102,-0.00000129,0.00000028
 ,0.00000022,-0.00000135,0.00000032,-0.00000086,-0.00000024,-0.00000077
 ,-0.00000073,0.00000027,0.00000089,0.00000263,-0.00000943,-0.00000830,
 0.00000418,0.00000190,0.00000109,-0.00000930,0.00000101,0.00000036,0.0
 0000047,0.00000037,-0.00000057,-0.00000006,0.00000653,-0.00000137,0.00
 000481,-0.00003745,-0.00001563,0.00001548,0.00003453,-0.00000522,-0.00
 000469,0.00000056,-0.00007357,-0.00003163,-0.00001933,-0.00000551,0.00
 000982,0.00008550,-0.00004536,-0.00057662,0.00029119,0.00117877,0.0001
 4323,0.00034947,-0.00028574,-0.00102649,0.07493574,-0.00005978,0.00007
 103,-0.00003450,0.00014185,-0.00014925,0.00002264,0.00002261,-0.000023
 84,0.00001105,-0.00003156,0.00002080,0.00001383,0.00001748,-0.00002721
 ,-0.00003499,-0.00002360,0.00002537,-0.00000908,-0.00000282,0.00000370
 ,0.00000871,0.00000132,-0.00000161,-0.00000161,-0.00000216,0.00000262,
 0.00000084,0.00000298,-0.00000402,0.00000351,-0.00000042,-0.00000214,-
 0.00000887,0.00001448,-0.00000195,0.00003075,-0.00022607,0.00000656,0.
 00002508,-0.00000190,0.00006979,-0.00000375,0.00000207,0.00000508,0.00
 000234,-0.00000320,-0.00000131,-0.00001635,-0.00000758,-0.00001470,0.0
 0000459,-0.00000087,-0.00000475,-0.00000209,-0.00000868,0.00000695,0.0
 0001334,0.00015441,0.00000140,-0.00003294,-0.00008873,-0.00001715,0.00
 002124,-0.00007647,0.00012707,0.00007324,0.00014000,-0.00028044,-0.000
 24380,-0.00010995,0.00005066,0.00003930,-0.00000347,-0.00007548,0.0000
 0576,-0.00041866,0.00354828,-0.00196231,0.00036864,0.00041483,0.000150
 45,0.00322693,-0.00030833,-0.00297625,-0.00733486,-0.01329877,-0.00345
 525,-0.04703633,-0.30519222,-0.05926856,-0.01115747,-0.00638656,0.0026
 2614,-0.00000422,-0.00000157,-0.00000368,-0.00000826,0.00000422,0.0000
 0108,-0.00000137,0.00000120,0.00000050,-0.00000176,0.00000133,-0.00000
 183,0.00000062,-0.00000068,-0.00000124,0.00000138,0.00000310,0.0000043
 8,-0.00001688,-0.00001555,0.00000745,0.00000338,0.00000165,-0.00001433
 ,0.00000179,0.00000109,0.00000112,0.00000053,-0.00000110,-0.00000004,0
 .00001059,-0.00000126,0.00000780,-0.00001780,-0.00001196,-0.00000169,0
 .00001659,0.00000725,-0.00000730,0.00011506,-0.00009929,-0.00004350,-0
 .00001137,0.00000240,0.00000176,0.00015312,-0.00024136,0.00041317,-0.0
 0038178,-0.00081959,-0.00001868,0.00052676,0.00033408,0.00076613,0.062
 11546,0.32227162,-0.00000748,0.00001113,-0.00000918,0.00002216,-0.0000
 2102,0.00000755,0.00000457,-0.00000411,0.00000248,-0.00000477,0.000003
 71,0.00000081,0.00000016,-0.00000255,-0.00000689,-0.00000263,0.0000024
 4,-0.00000093,-0.00000043,0.00000085,0.00000111,0.00000072,-0.00000044
 ,0.00000080,0.00000019,0.00000025,-0.00000100,0.00000017,0.00000023,0.
 00000047,0.00000019,0.00000021,-0.00000081,0.00000310,-0.00000108,0.00
 000571,-0.00002928,-0.00000041,0.00000434,0.00000029,0.00000790,0.0000
 0139,0.00000083,0.00000140,0.00000024,-0.00000062,-0.00000050,-0.00000
 260,-0.00000113,-0.00000173,0.00000145,-0.00000029,-0.00000155,-0.0000
 0130,-0.00000116,0.00000124,0.00000162,0.00000853,0.00000116,-0.000037
 38,-0.00003762,0.00003306,-0.00003784,0.00004456,0.00003573,-0.0001324
 9,0.00008667,0.00007877,0.00050164,-0.00004287,0.00001515,0.00002071,0
 .00001235,-0.00002456,0.00000121,0.00386153,-0.00125676,0.00967243,0.0
 0018364,0.00032131,-0.00044203,0.00361031,-0.00267035,0.00537887,-0.00
 258644,-0.01128715,0.00441770,-0.00733856,-0.05925782,-0.05609484,0.00
 034680,0.00912110,-0.00206293,-0.00000010,0.00000015,-0.00000065,-0.00
 000110,0.00000058,0.00000016,-0.00000025,0.00000008,0.00000025,-0.0000
 0077,0.00000021,-0.00000041,-0.00000037,-0.00000049,-0.00000073,0.0000
 0011,-0.00000019,0.00000096,-0.00000028,-0.00000182,0.00000084,0.00000
 004,0.00000006,-0.00000097,0.00000057,0.00000033,-0.00000022,0.0000002
 1,0.00000002,-0.00000004,0.00000121,-0.00000012,0.00000163,0.00001141,
 -0.00000450,0.00001925,0.00000241,0.00000037,0.00002160,0.00002615,-0.
 00000770,-0.00003779,0.00000554,-0.00000120,0.00001554,-0.00052397,0.0
 0048042,-0.00161842,-0.00029166,-0.00045136,-0.00041627,-0.00079538,0.
 00099316,-0.00247371,0.00343275,0.06388644,0.04329870\\-0.00000037,-0.
 00000022,0.00000255,-0.00000626,-0.00000691,-0.00000504,-0.00000564,0.
 00000523,0.00001383,0.00000816,-0.00001436,-0.00003879,-0.00002275,0.0
 0002749,0.00002453,0.00002122,-0.00002480,-0.00000448,-0.00000956,0.00
 000555,-0.00000540,-0.00000088,-0.00000165,0.00000420,-0.00000181,-0.0
 0000002,-0.00000617,-0.00000134,0.00000065,-0.00000318,0.00000006,-0.0
 0000160,-0.00000096,0.00000568,-0.00000553,0.00001470,0.00000557,0.000
 00171,-0.00000145,-0.00000023,-0.00000103,0.00000180,-0.00000736,-0.00
 000752,0.00001555,0.00000497,0.00000894,0.00000406,-0.00000601,-0.0000
 1502,-0.00000251,0.00000013,-0.00000133,-0.00000824,0.00001051,0.00000
 860,-0.00001781,-0.00000120,0.00000039,0.00000151,0.00000081,-0.000002
 88,-0.00000015,0.00000156,0.00000089,-0.00000176,-0.00000148,-0.000000
 81,0.00000137,-0.00000158,0.00000445,0.00000035,-0.00000280,0.00000327
 ,0.00000123,-0.00000221,-0.00000198,0.00000603,0.00000025,0.00000357,-
 0.00000048,0.00000079,-0.00000077,0.00000100,0.00000051,0.00000208,-0.
 00000035,0.00000489,0.00001094,0.00000456,0.00000694,-0.00000316,-0.00
 000408,-0.00000417,-0.00000329,-0.00000886,0.00000519,0.00000342,-0.00
 000133,0.00000301,-0.00000537,-0.00000242,0.00000245,-0.00000327,0.000
 00480,0.00000041,-0.00000029,0.00000547,-0.00000316,0.00000421,0.00000
 080,0.00000543,-0.00000302,-0.00000397,-0.00000403,0.00000263,-0.00000
 379,-0.00000011,-0.00000108,-0.00000782,0.00000493,0.00000612,0.000002
 37,-0.00000138,-0.00000178,0.00000879,0.00000400,0.00000578,0.00000029
 ,-0.00000144,0.00000447,0.00000128,-0.00000332,-0.00000571,0.00000055,
 0.00000447,-0.00000499,-0.00000116,0.00000002,0.00000611,0.00000182,-0
 .00000374,0.00000663,0.00000336,-0.00000577,0.00000088,0.00000336,-0.0
 0000337,-0.00000563,0.00000005\\\@


 Any fool can criticize, condemn, and complain -- and most do.
 -- Dale Carnegie
 Job cpu time:  0 days 19 hours 54 minutes 35.5 seconds.
 File lengths (MBytes):  RWF=   1603 Int=      0 D2E=      0 Chk=     23 Scr=      1
 Normal termination of Gaussian 09 at Fri Sep  2 17:02:32 2022.
