 Entering Gaussian System, Link 0=g09
 Input=Mol12.gjf
 Output=Mol12.log
 Initial command:
 /opt/gaussian/l1.exe /home/scr/lqcapf-6/Gau-70947.inp -scrdir=/home/scr/lqcapf-6/
 Entering Link 1 = /opt/gaussian/l1.exe PID=     70949.
  
 Copyright (c) 1988,1990,1992,1993,1995,1998,2003,2009,2011,
            Gaussian, Inc.  All Rights Reserved.
  
 This is part of the Gaussian(R) 09 program.  It is based on
 the Gaussian(R) 03 system (copyright 2003, Gaussian, Inc.),
 the Gaussian(R) 98 system (copyright 1998, Gaussian, Inc.),
 the Gaussian(R) 94 system (copyright 1995, Gaussian, Inc.),
 the Gaussian 92(TM) system (copyright 1992, Gaussian, Inc.),
 the Gaussian 90(TM) system (copyright 1990, Gaussian, Inc.),
 the Gaussian 88(TM) system (copyright 1988, Gaussian, Inc.),
 the Gaussian 86(TM) system (copyright 1986, Carnegie Mellon
 University), and the Gaussian 82(TM) system (copyright 1983,
 Carnegie Mellon University). Gaussian is a federally registered
 trademark of Gaussian, Inc.
  
 This software contains proprietary and confidential information,
 including trade secrets, belonging to Gaussian, Inc.
  
 This software is provided under written license and may be
 used, copied, transmitted, or stored only in accord with that
 written license.
  
 The following legend is applicable only to US Government
 contracts under FAR:
  
                    RESTRICTED RIGHTS LEGEND
  
 Use, reproduction and disclosure by the US Government is
 subject to restrictions as set forth in subparagraphs (a)
 and (c) of the Commercial Computer Software - Restricted
 Rights clause in FAR 52.227-19.
  
 Gaussian, Inc.
 340 Quinnipiac St., Bldg. 40, Wallingford CT 06492
  
  
 ---------------------------------------------------------------
 Warning -- This program may not be used in any manner that
 competes with the business of Gaussian, Inc. or will provide
 assistance to any competitor of Gaussian, Inc.  The licensee
 of this program is prohibited from giving any competitor of
 Gaussian, Inc. access to this program.  By using this program,
 the user acknowledges that Gaussian, Inc. is engaged in the
 business of creating and licensing software in the field of
 computational chemistry and represents and warrants to the
 licensee that it is not a competitor of Gaussian, Inc. and that
 it will not use this program in any manner prohibited above.
 ---------------------------------------------------------------
  

 Cite this work as:
 Gaussian 09, Revision C.01,
 M. J. Frisch, G. W. Trucks, H. B. Schlegel, G. E. Scuseria, 
 M. A. Robb, J. R. Cheeseman, G. Scalmani, V. Barone, B. Mennucci, 
 G. A. Petersson, H. Nakatsuji, M. Caricato, X. Li, H. P. Hratchian, 
 A. F. Izmaylov, J. Bloino, G. Zheng, J. L. Sonnenberg, M. Hada, 
 M. Ehara, K. Toyota, R. Fukuda, J. Hasegawa, M. Ishida, T. Nakajima, 
 Y. Honda, O. Kitao, H. Nakai, T. Vreven, J. A. Montgomery, Jr., 
 J. E. Peralta, F. Ogliaro, M. Bearpark, J. J. Heyd, E. Brothers, 
 K. N. Kudin, V. N. Staroverov, T. Keith, R. Kobayashi, J. Normand, 
 K. Raghavachari, A. Rendell, J. C. Burant, S. S. Iyengar, J. Tomasi, 
 M. Cossi, N. Rega, J. M. Millam, M. Klene, J. E. Knox, J. B. Cross, 
 V. Bakken, C. Adamo, J. Jaramillo, R. Gomperts, R. E. Stratmann, 
 O. Yazyev, A. J. Austin, R. Cammi, C. Pomelli, J. W. Ochterski, 
 R. L. Martin, K. Morokuma, V. G. Zakrzewski, G. A. Voth, 
 P. Salvador, J. J. Dannenberg, S. Dapprich, A. D. Daniels, 
 O. Farkas, J. B. Foresman, J. V. Ortiz, J. Cioslowski, 
 and D. J. Fox, Gaussian, Inc., Wallingford CT, 2010.
 
 ******************************************
 Gaussian 09:  EM64L-G09RevC.01 23-Sep-2011
                 1-Sep-2022 
 ******************************************
 %nprocshared=8
 Will use up to    8 processors via shared memory.
 %mem=1600MB
 -------------------------
 #p opt freq b3lyp/cc-pvdz
 -------------------------
 1/14=-1,18=20,19=15,26=3,38=1/1,3;
 2/9=110,12=2,17=6,18=5,40=1/2;
 3/5=16,11=2,16=1,25=1,30=1,71=1,74=-5/1,2,3;
 4//1;
 5/5=2,38=5/2;
 6/7=2,8=2,9=2,10=2,28=1/1;
 7//1,2,3,16;
 1/14=-1,18=20,19=15/3(2);
 2/9=110/2;
 99//99;
 2/9=110/2;
 3/5=16,11=2,16=1,25=1,30=1,71=1,74=-5/1,2,3;
 4/5=5,16=3/1;
 5/5=2,38=5/2;
 7//1,2,3,16;
 1/14=-1,18=20,19=15/3(-5);
 2/9=110/2;
 6/7=2,8=2,9=2,10=2,19=2,28=1/1;
 99/9=1/99;
 Leave Link    1 at Thu Sep  1 01:06:19 2022, MaxMem=  209715200 cpu:       0.2
 (Enter /opt/gaussian/l101.exe)
 ---------
 Mol12.log
 ---------
 Charge =  0 Multiplicity = 1
 Symbolic Z-Matrix:
 C                    -5.53778  -2.53285   1.18422 
 S                    -6.15782  -0.94677   0.50384 
 O                    -5.88657   0.21704   1.63222 
 O                    -7.67682  -1.14823  -0.1113 
 N                    -5.18572  -0.70481  -0.90373 
 C                    -3.81691  -0.30742  -0.84741 
 C                    -2.86639  -1.1325   -1.43688 
 C                    -1.53022  -0.77624  -1.43428 
 C                    -1.12607   0.39852  -0.80917 
 C                    -2.07597   1.21458  -0.20937 
 C                    -3.41965   0.87318  -0.2361 
 N                     0.25541   0.78987  -0.81725 
 C                     0.58136   2.12819  -1.33936 
 C                     1.22389   3.06085  -0.33952 
 C                     0.89439   3.09368   1.07169 
 C                     1.55631   4.03674   1.76052 
 S                     2.6549    4.97806   0.71349 
 C                     2.14067   3.98551  -0.67892 
 C                     1.20921  -0.1095   -0.416 
 O                     0.92271  -1.21169   0.03177 
 C                     2.67019   0.30766  -0.50295 
 N                     3.54191  -0.82325  -0.63686 
 N                     4.06809  -1.1089   -1.86333 
 N                     4.81855  -2.12731  -1.775 
 C                     4.82015  -2.57099  -0.46292 
 C                     5.49329  -3.6385    0.13221 
 C                     5.30215  -3.8294    1.47763 
 C                     4.44956  -2.97995   2.2199 
 C                     3.77909  -1.93031   1.64089 
 C                     3.98805  -1.73576   0.27251 
 H                    -4.48885  -2.40976   1.39195 
 H                    -6.09511  -2.71756   2.08663 
 H                    -5.72087  -3.28699   0.43986 
 H                    -5.76091  -0.4703   -1.68576 
 H                    -3.18185  -2.04464  -1.90297 
 H                    -0.80467  -1.41919  -1.88487 
 H                    -1.77901   2.12012   0.28 
 H                    -4.14737   1.49883   0.23783 
 H                     1.20921   2.04151  -2.21795 
 H                    -0.35135   2.55309  -1.67804 
 H                     0.1982    2.42119   1.52808 
 H                     1.49179   4.26071   2.80122 
 H                     2.56206   4.17178  -1.64209 
 H                     2.86268   0.94167  -1.34989 
 H                     2.92599   0.86452   0.3896 
 H                     6.12963  -4.2732   -0.45077 
 H                     5.79727  -4.63615   1.98093 
 H                     4.31713  -3.17112   3.26715 
 H                     3.10835  -1.31434   2.20346 
 
 NAtoms=     49 NQM=        0 NQMF=       0 NMMI=     49 NMMIF=      0
                NMic=       0 NMicF=      0.
                    Isotopes and Nuclear Properties:
 (Nuclear quadrupole moments (NQMom) in fm**2, nuclear magnetic moments (NMagM)
  in nuclear magnetons)

  Atom         1           2           3           4           5           6           7           8           9          10
 IAtWgt=          12          32          16          16          14          12          12          12          12          12
 AtmWgt=  12.0000000  31.9720718  15.9949146  15.9949146  14.0030740  12.0000000  12.0000000  12.0000000  12.0000000  12.0000000
 NucSpn=           0           0           0           0           2           0           0           0           0           0
 AtZEff=   0.0000000   0.0000000   0.0000000   0.0000000   0.0000000   0.0000000   0.0000000   0.0000000   0.0000000   0.0000000
 NQMom=    0.0000000   0.0000000   0.0000000   0.0000000   2.0440000   0.0000000   0.0000000   0.0000000   0.0000000   0.0000000
 NMagM=    0.0000000   0.0000000   0.0000000   0.0000000   0.4037610   0.0000000   0.0000000   0.0000000   0.0000000   0.0000000

  Atom        11          12          13          14          15          16          17          18          19          20
 IAtWgt=          12          14          12          12          12          12          32          12          12          16
 AtmWgt=  12.0000000  14.0030740  12.0000000  12.0000000  12.0000000  12.0000000  31.9720718  12.0000000  12.0000000  15.9949146
 NucSpn=           0           2           0           0           0           0           0           0           0           0
 AtZEff=   0.0000000   0.0000000   0.0000000   0.0000000   0.0000000   0.0000000   0.0000000   0.0000000   0.0000000   0.0000000
 NQMom=    0.0000000   2.0440000   0.0000000   0.0000000   0.0000000   0.0000000   0.0000000   0.0000000   0.0000000   0.0000000
 NMagM=    0.0000000   0.4037610   0.0000000   0.0000000   0.0000000   0.0000000   0.0000000   0.0000000   0.0000000   0.0000000

  Atom        21          22          23          24          25          26          27          28          29          30
 IAtWgt=          12          14          14          14          12          12          12          12          12          12
 AtmWgt=  12.0000000  14.0030740  14.0030740  14.0030740  12.0000000  12.0000000  12.0000000  12.0000000  12.0000000  12.0000000
 NucSpn=           0           2           2           2           0           0           0           0           0           0
 AtZEff=   0.0000000   0.0000000   0.0000000   0.0000000   0.0000000   0.0000000   0.0000000   0.0000000   0.0000000   0.0000000
 NQMom=    0.0000000   2.0440000   2.0440000   2.0440000   0.0000000   0.0000000   0.0000000   0.0000000   0.0000000   0.0000000
 NMagM=    0.0000000   0.4037610   0.4037610   0.4037610   0.0000000   0.0000000   0.0000000   0.0000000   0.0000000   0.0000000

  Atom        31          32          33          34          35          36          37          38          39          40
 IAtWgt=           1           1           1           1           1           1           1           1           1           1
 AtmWgt=   1.0078250   1.0078250   1.0078250   1.0078250   1.0078250   1.0078250   1.0078250   1.0078250   1.0078250   1.0078250
 NucSpn=           1           1           1           1           1           1           1           1           1           1
 AtZEff=   0.0000000   0.0000000   0.0000000   0.0000000   0.0000000   0.0000000   0.0000000   0.0000000   0.0000000   0.0000000
 NQMom=    0.0000000   0.0000000   0.0000000   0.0000000   0.0000000   0.0000000   0.0000000   0.0000000   0.0000000   0.0000000
 NMagM=    2.7928460   2.7928460   2.7928460   2.7928460   2.7928460   2.7928460   2.7928460   2.7928460   2.7928460   2.7928460

  Atom        41          42          43          44          45          46          47          48          49
 IAtWgt=           1           1           1           1           1           1           1           1           1
 AtmWgt=   1.0078250   1.0078250   1.0078250   1.0078250   1.0078250   1.0078250   1.0078250   1.0078250   1.0078250
 NucSpn=           1           1           1           1           1           1           1           1           1
 AtZEff=   0.0000000   0.0000000   0.0000000   0.0000000   0.0000000   0.0000000   0.0000000   0.0000000   0.0000000
 NQMom=    0.0000000   0.0000000   0.0000000   0.0000000   0.0000000   0.0000000   0.0000000   0.0000000   0.0000000
 NMagM=    2.7928460   2.7928460   2.7928460   2.7928460   2.7928460   2.7928460   2.7928460   2.7928460   2.7928460
 Leave Link  101 at Thu Sep  1 01:06:19 2022, MaxMem=  209715200 cpu:       0.9
 (Enter /opt/gaussian/l103.exe)

 GradGradGradGradGradGradGradGradGradGradGradGradGradGradGradGradGradGrad
 Berny optimization.
 Initialization pass.
                           ----------------------------
                           !    Initial Parameters    !
                           ! (Angstroms and Degrees)  !
 --------------------------                            --------------------------
 ! Name  Definition              Value          Derivative Info.                !
 --------------------------------------------------------------------------------
 ! R1    R(1,2)                  1.8339         estimate D2E/DX2                !
 ! R2    R(1,31)                 1.0764         estimate D2E/DX2                !
 ! R3    R(1,32)                 1.0766         estimate D2E/DX2                !
 ! R4    R(1,33)                 1.0753         estimate D2E/DX2                !
 ! R5    R(2,3)                  1.6436         estimate D2E/DX2                !
 ! R6    R(2,4)                  1.6512         estimate D2E/DX2                !
 ! R7    R(2,5)                  1.7277         estimate D2E/DX2                !
 ! R8    R(5,6)                  1.4264         estimate D2E/DX2                !
 ! R9    R(5,34)                 0.9987         estimate D2E/DX2                !
 ! R10   R(6,7)                  1.3899         estimate D2E/DX2                !
 ! R11   R(6,11)                 1.3876         estimate D2E/DX2                !
 ! R12   R(7,8)                  1.3829         estimate D2E/DX2                !
 ! R13   R(7,35)                 1.0718         estimate D2E/DX2                !
 ! R14   R(8,9)                  1.3907         estimate D2E/DX2                !
 ! R15   R(8,36)                 1.069          estimate D2E/DX2                !
 ! R16   R(9,10)                 1.3885         estimate D2E/DX2                !
 ! R17   R(9,12)                 1.4359         estimate D2E/DX2                !
 ! R18   R(10,11)                1.3866         estimate D2E/DX2                !
 ! R19   R(10,37)                1.0713         estimate D2E/DX2                !
 ! R20   R(11,38)                1.0703         estimate D2E/DX2                !
 ! R21   R(12,13)                1.4731         estimate D2E/DX2                !
 ! R22   R(12,19)                1.371          estimate D2E/DX2                !
 ! R23   R(13,14)                1.5108         estimate D2E/DX2                !
 ! R24   R(13,39)                1.0833         estimate D2E/DX2                !
 ! R25   R(13,40)                1.0794         estimate D2E/DX2                !
 ! R26   R(14,15)                1.4495         estimate D2E/DX2                !
 ! R27   R(14,18)                1.3456         estimate D2E/DX2                !
 ! R28   R(15,16)                1.3424         estimate D2E/DX2                !
 ! R29   R(15,41)                1.0701         estimate D2E/DX2                !
 ! R30   R(16,17)                1.7858         estimate D2E/DX2                !
 ! R31   R(16,42)                1.0665         estimate D2E/DX2                !
 ! R32   R(17,18)                1.7856         estimate D2E/DX2                !
 ! R33   R(18,43)                1.0677         estimate D2E/DX2                !
 ! R34   R(19,20)                1.2237         estimate D2E/DX2                !
 ! R35   R(19,21)                1.5219         estimate D2E/DX2                !
 ! R36   R(21,22)                1.4341         estimate D2E/DX2                !
 ! R37   R(21,44)                1.0753         estimate D2E/DX2                !
 ! R38   R(21,45)                1.0827         estimate D2E/DX2                !
 ! R39   R(22,23)                1.3648         estimate D2E/DX2                !
 ! R40   R(22,30)                1.3633         estimate D2E/DX2                !
 ! R41   R(23,24)                1.2681         estimate D2E/DX2                !
 ! R42   R(24,25)                1.3851         estimate D2E/DX2                !
 ! R43   R(25,26)                1.3953         estimate D2E/DX2                !
 ! R44   R(25,30)                1.3896         estimate D2E/DX2                !
 ! R45   R(26,27)                1.3723         estimate D2E/DX2                !
 ! R46   R(26,46)                1.0713         estimate D2E/DX2                !
 ! R47   R(27,28)                1.414          estimate D2E/DX2                !
 ! R48   R(27,47)                1.0721         estimate D2E/DX2                !
 ! R49   R(28,29)                1.3735         estimate D2E/DX2                !
 ! R50   R(28,48)                1.0728         estimate D2E/DX2                !
 ! R51   R(29,30)                1.3978         estimate D2E/DX2                !
 ! R52   R(29,49)                1.0704         estimate D2E/DX2                !
 ! A1    A(2,1,31)             107.589          estimate D2E/DX2                !
 ! A2    A(2,1,32)             106.5193         estimate D2E/DX2                !
 ! A3    A(2,1,33)             106.9879         estimate D2E/DX2                !
 ! A4    A(31,1,32)            111.2436         estimate D2E/DX2                !
 ! A5    A(31,1,33)            112.3163         estimate D2E/DX2                !
 ! A6    A(32,1,33)            111.8238         estimate D2E/DX2                !
 ! A7    A(1,2,3)              107.5727         estimate D2E/DX2                !
 ! A8    A(1,2,4)              110.1048         estimate D2E/DX2                !
 ! A9    A(1,2,5)              103.4832         estimate D2E/DX2                !
 ! A10   A(3,2,4)              119.6037         estimate D2E/DX2                !
 ! A11   A(3,2,5)              111.5503         estimate D2E/DX2                !
 ! A12   A(4,2,5)              103.3674         estimate D2E/DX2                !
 ! A13   A(2,5,6)              123.1469         estimate D2E/DX2                !
 ! A14   A(2,5,34)             110.2913         estimate D2E/DX2                !
 ! A15   A(6,5,34)             121.2095         estimate D2E/DX2                !
 ! A16   A(5,6,7)              118.3032         estimate D2E/DX2                !
 ! A17   A(5,6,11)             121.949          estimate D2E/DX2                !
 ! A18   A(7,6,11)             119.7455         estimate D2E/DX2                !
 ! A19   A(6,7,8)              120.469          estimate D2E/DX2                !
 ! A20   A(6,7,35)             119.2327         estimate D2E/DX2                !
 ! A21   A(8,7,35)             120.2955         estimate D2E/DX2                !
 ! A22   A(7,8,9)              119.9506         estimate D2E/DX2                !
 ! A23   A(7,8,36)             120.0031         estimate D2E/DX2                !
 ! A24   A(9,8,36)             120.0166         estimate D2E/DX2                !
 ! A25   A(8,9,10)             119.4591         estimate D2E/DX2                !
 ! A26   A(8,9,12)             120.4835         estimate D2E/DX2                !
 ! A27   A(10,9,12)            120.0291         estimate D2E/DX2                !
 ! A28   A(9,10,11)            120.6563         estimate D2E/DX2                !
 ! A29   A(9,10,37)            120.2964         estimate D2E/DX2                !
 ! A30   A(11,10,37)           119.0473         estimate D2E/DX2                !
 ! A31   A(6,11,10)            119.6968         estimate D2E/DX2                !
 ! A32   A(6,11,38)            119.8525         estimate D2E/DX2                !
 ! A33   A(10,11,38)           120.4233         estimate D2E/DX2                !
 ! A34   A(9,12,13)            117.549          estimate D2E/DX2                !
 ! A35   A(9,12,19)            119.269          estimate D2E/DX2                !
 ! A36   A(13,12,19)           123.0785         estimate D2E/DX2                !
 ! A37   A(12,13,14)           114.8605         estimate D2E/DX2                !
 ! A38   A(12,13,39)           110.0593         estimate D2E/DX2                !
 ! A39   A(12,13,40)           106.119          estimate D2E/DX2                !
 ! A40   A(14,13,39)           109.8551         estimate D2E/DX2                !
 ! A41   A(14,13,40)           109.3983         estimate D2E/DX2                !
 ! A42   A(39,13,40)           106.1295         estimate D2E/DX2                !
 ! A43   A(13,14,15)           124.1679         estimate D2E/DX2                !
 ! A44   A(13,14,18)           123.1653         estimate D2E/DX2                !
 ! A45   A(15,14,18)           112.6354         estimate D2E/DX2                !
 ! A46   A(14,15,16)           113.7907         estimate D2E/DX2                !
 ! A47   A(14,15,41)           123.2878         estimate D2E/DX2                !
 ! A48   A(16,15,41)           122.9167         estimate D2E/DX2                !
 ! A49   A(15,16,17)           111.8875         estimate D2E/DX2                !
 ! A50   A(15,16,42)           128.2024         estimate D2E/DX2                !
 ! A51   A(17,16,42)           119.9101         estimate D2E/DX2                !
 ! A52   A(16,17,18)            89.2572         estimate D2E/DX2                !
 ! A53   A(14,18,17)           112.4261         estimate D2E/DX2                !
 ! A54   A(14,18,43)           128.0475         estimate D2E/DX2                !
 ! A55   A(17,18,43)           119.5263         estimate D2E/DX2                !
 ! A56   A(12,19,20)           122.3494         estimate D2E/DX2                !
 ! A57   A(12,19,21)           118.121          estimate D2E/DX2                !
 ! A58   A(20,19,21)           119.5095         estimate D2E/DX2                !
 ! A59   A(19,21,22)           111.8821         estimate D2E/DX2                !
 ! A60   A(19,21,44)           112.2384         estimate D2E/DX2                !
 ! A61   A(19,21,45)           108.7054         estimate D2E/DX2                !
 ! A62   A(22,21,44)           106.4146         estimate D2E/DX2                !
 ! A63   A(22,21,45)           109.813          estimate D2E/DX2                !
 ! A64   A(44,21,45)           107.6835         estimate D2E/DX2                !
 ! A65   A(21,22,23)           118.9006         estimate D2E/DX2                !
 ! A66   A(21,22,30)           131.6384         estimate D2E/DX2                !
 ! A67   A(23,22,30)           109.4608         estimate D2E/DX2                !
 ! A68   A(22,23,24)           109.49           estimate D2E/DX2                !
 ! A69   A(23,24,25)           108.9001         estimate D2E/DX2                !
 ! A70   A(24,25,26)           130.5176         estimate D2E/DX2                !
 ! A71   A(24,25,30)           107.9467         estimate D2E/DX2                !
 ! A72   A(26,25,30)           121.5351         estimate D2E/DX2                !
 ! A73   A(25,26,27)           117.2202         estimate D2E/DX2                !
 ! A74   A(25,26,46)           120.5132         estimate D2E/DX2                !
 ! A75   A(27,26,46)           122.2666         estimate D2E/DX2                !
 ! A76   A(26,27,28)           121.0028         estimate D2E/DX2                !
 ! A77   A(26,27,47)           120.0425         estimate D2E/DX2                !
 ! A78   A(28,27,47)           118.9533         estimate D2E/DX2                !
 ! A79   A(27,28,29)           122.1491         estimate D2E/DX2                !
 ! A80   A(27,28,48)           118.6746         estimate D2E/DX2                !
 ! A81   A(29,28,48)           119.1734         estimate D2E/DX2                !
 ! A82   A(28,29,30)           116.491          estimate D2E/DX2                !
 ! A83   A(28,29,49)           121.6066         estimate D2E/DX2                !
 ! A84   A(30,29,49)           121.8746         estimate D2E/DX2                !
 ! A85   A(22,30,25)           104.1967         estimate D2E/DX2                !
 ! A86   A(22,30,29)           134.2025         estimate D2E/DX2                !
 ! A87   A(25,30,29)           121.5982         estimate D2E/DX2                !
 ! D1    D(31,1,2,3)           -59.1841         estimate D2E/DX2                !
 ! D2    D(31,1,2,4)           168.924          estimate D2E/DX2                !
 ! D3    D(31,1,2,5)            58.9899         estimate D2E/DX2                !
 ! D4    D(32,1,2,3)            60.1884         estimate D2E/DX2                !
 ! D5    D(32,1,2,4)           -71.7034         estimate D2E/DX2                !
 ! D6    D(32,1,2,5)           178.3625         estimate D2E/DX2                !
 ! D7    D(33,1,2,3)           179.9278         estimate D2E/DX2                !
 ! D8    D(33,1,2,4)            48.036          estimate D2E/DX2                !
 ! D9    D(33,1,2,5)           -61.8981         estimate D2E/DX2                !
 ! D10   D(1,2,5,6)            -73.9111         estimate D2E/DX2                !
 ! D11   D(1,2,5,34)           131.7612         estimate D2E/DX2                !
 ! D12   D(3,2,5,6)             41.4611         estimate D2E/DX2                !
 ! D13   D(3,2,5,34)          -112.8666         estimate D2E/DX2                !
 ! D14   D(4,2,5,6)            171.2353         estimate D2E/DX2                !
 ! D15   D(4,2,5,34)            16.9076         estimate D2E/DX2                !
 ! D16   D(2,5,6,7)            121.7543         estimate D2E/DX2                !
 ! D17   D(2,5,6,11)           -58.8002         estimate D2E/DX2                !
 ! D18   D(34,5,6,7)           -86.6112         estimate D2E/DX2                !
 ! D19   D(34,5,6,11)           92.8344         estimate D2E/DX2                !
 ! D20   D(5,6,7,8)            178.576          estimate D2E/DX2                !
 ! D21   D(5,6,7,35)            -0.8116         estimate D2E/DX2                !
 ! D22   D(11,6,7,8)            -0.8821         estimate D2E/DX2                !
 ! D23   D(11,6,7,35)          179.7302         estimate D2E/DX2                !
 ! D24   D(5,6,11,10)         -179.9438         estimate D2E/DX2                !
 ! D25   D(5,6,11,38)            1.9532         estimate D2E/DX2                !
 ! D26   D(7,6,11,10)           -0.5061         estimate D2E/DX2                !
 ! D27   D(7,6,11,38)         -178.6091         estimate D2E/DX2                !
 ! D28   D(6,7,8,9)              1.6264         estimate D2E/DX2                !
 ! D29   D(6,7,8,36)           179.6461         estimate D2E/DX2                !
 ! D30   D(35,7,8,9)          -178.9924         estimate D2E/DX2                !
 ! D31   D(35,7,8,36)           -0.9728         estimate D2E/DX2                !
 ! D32   D(7,8,9,10)            -0.9747         estimate D2E/DX2                !
 ! D33   D(7,8,9,12)          -179.04           estimate D2E/DX2                !
 ! D34   D(36,8,9,10)         -178.994          estimate D2E/DX2                !
 ! D35   D(36,8,9,12)            2.9406         estimate D2E/DX2                !
 ! D36   D(8,9,10,11)           -0.4143         estimate D2E/DX2                !
 ! D37   D(8,9,10,37)          179.7041         estimate D2E/DX2                !
 ! D38   D(12,9,10,11)         177.66           estimate D2E/DX2                !
 ! D39   D(12,9,10,37)          -2.2217         estimate D2E/DX2                !
 ! D40   D(8,9,12,13)          124.9584         estimate D2E/DX2                !
 ! D41   D(8,9,12,19)          -51.4567         estimate D2E/DX2                !
 ! D42   D(10,9,12,13)         -53.0959         estimate D2E/DX2                !
 ! D43   D(10,9,12,19)         130.489          estimate D2E/DX2                !
 ! D44   D(9,10,11,6)            1.1545         estimate D2E/DX2                !
 ! D45   D(9,10,11,38)         179.2464         estimate D2E/DX2                !
 ! D46   D(37,10,11,6)        -178.9624         estimate D2E/DX2                !
 ! D47   D(37,10,11,38)         -0.8705         estimate D2E/DX2                !
 ! D48   D(9,12,13,14)         118.1307         estimate D2E/DX2                !
 ! D49   D(9,12,13,39)        -117.2799         estimate D2E/DX2                !
 ! D50   D(9,12,13,40)          -2.8627         estimate D2E/DX2                !
 ! D51   D(19,12,13,14)        -65.6016         estimate D2E/DX2                !
 ! D52   D(19,12,13,39)         58.9878         estimate D2E/DX2                !
 ! D53   D(19,12,13,40)        173.405          estimate D2E/DX2                !
 ! D54   D(9,12,19,20)          -4.7474         estimate D2E/DX2                !
 ! D55   D(9,12,19,21)         176.8953         estimate D2E/DX2                !
 ! D56   D(13,12,19,20)        179.046          estimate D2E/DX2                !
 ! D57   D(13,12,19,21)          0.6888         estimate D2E/DX2                !
 ! D58   D(12,13,14,15)        -35.5367         estimate D2E/DX2                !
 ! D59   D(12,13,14,18)        146.6526         estimate D2E/DX2                !
 ! D60   D(39,13,14,15)       -160.2335         estimate D2E/DX2                !
 ! D61   D(39,13,14,18)         21.9557         estimate D2E/DX2                !
 ! D62   D(40,13,14,15)         83.6436         estimate D2E/DX2                !
 ! D63   D(40,13,14,18)        -94.1672         estimate D2E/DX2                !
 ! D64   D(13,14,15,16)       -177.6796         estimate D2E/DX2                !
 ! D65   D(13,14,15,41)          3.1034         estimate D2E/DX2                !
 ! D66   D(18,14,15,16)          0.335          estimate D2E/DX2                !
 ! D67   D(18,14,15,41)       -178.8821         estimate D2E/DX2                !
 ! D68   D(13,14,18,17)        177.4543         estimate D2E/DX2                !
 ! D69   D(13,14,18,43)         -2.4151         estimate D2E/DX2                !
 ! D70   D(15,14,18,17)         -0.5832         estimate D2E/DX2                !
 ! D71   D(15,14,18,43)        179.5473         estimate D2E/DX2                !
 ! D72   D(14,15,16,17)          0.0744         estimate D2E/DX2                !
 ! D73   D(14,15,16,42)       -179.9406         estimate D2E/DX2                !
 ! D74   D(41,15,16,17)        179.2947         estimate D2E/DX2                !
 ! D75   D(41,15,16,42)         -0.7203         estimate D2E/DX2                !
 ! D76   D(15,16,17,18)         -0.3289         estimate D2E/DX2                !
 ! D77   D(42,16,17,18)        179.6847         estimate D2E/DX2                !
 ! D78   D(16,17,18,14)          0.5242         estimate D2E/DX2                !
 ! D79   D(16,17,18,43)       -179.5939         estimate D2E/DX2                !
 ! D80   D(12,19,21,22)       -154.2549         estimate D2E/DX2                !
 ! D81   D(12,19,21,44)        -34.7028         estimate D2E/DX2                !
 ! D82   D(12,19,21,45)         84.3037         estimate D2E/DX2                !
 ! D83   D(20,19,21,22)         27.3397         estimate D2E/DX2                !
 ! D84   D(20,19,21,44)        146.8919         estimate D2E/DX2                !
 ! D85   D(20,19,21,45)        -94.1017         estimate D2E/DX2                !
 ! D86   D(19,21,22,23)        103.0881         estimate D2E/DX2                !
 ! D87   D(19,21,22,30)        -77.0803         estimate D2E/DX2                !
 ! D88   D(44,21,22,23)        -19.8336         estimate D2E/DX2                !
 ! D89   D(44,21,22,30)        159.998          estimate D2E/DX2                !
 ! D90   D(45,21,22,23)       -136.1115         estimate D2E/DX2                !
 ! D91   D(45,21,22,30)         43.7201         estimate D2E/DX2                !
 ! D92   D(21,22,23,24)        179.281          estimate D2E/DX2                !
 ! D93   D(30,22,23,24)         -0.5855         estimate D2E/DX2                !
 ! D94   D(21,22,30,25)       -179.0837         estimate D2E/DX2                !
 ! D95   D(21,22,30,29)          0.321          estimate D2E/DX2                !
 ! D96   D(23,22,30,25)          0.76           estimate D2E/DX2                !
 ! D97   D(23,22,30,29)       -179.8354         estimate D2E/DX2                !
 ! D98   D(22,23,24,25)          0.1373         estimate D2E/DX2                !
 ! D99   D(23,24,25,26)       -179.3729         estimate D2E/DX2                !
 ! D100  D(23,24,25,30)          0.3468         estimate D2E/DX2                !
 ! D101  D(24,25,26,27)        179.5574         estimate D2E/DX2                !
 ! D102  D(24,25,26,46)         -0.4148         estimate D2E/DX2                !
 ! D103  D(30,25,26,27)         -0.1296         estimate D2E/DX2                !
 ! D104  D(30,25,26,46)        179.8981         estimate D2E/DX2                !
 ! D105  D(24,25,30,22)         -0.6708         estimate D2E/DX2                !
 ! D106  D(24,25,30,29)        179.8303         estimate D2E/DX2                !
 ! D107  D(26,25,30,22)        179.0792         estimate D2E/DX2                !
 ! D108  D(26,25,30,29)         -0.4198         estimate D2E/DX2                !
 ! D109  D(25,26,27,28)          0.4135         estimate D2E/DX2                !
 ! D110  D(25,26,27,47)        179.9937         estimate D2E/DX2                !
 ! D111  D(46,26,27,28)       -179.6148         estimate D2E/DX2                !
 ! D112  D(46,26,27,47)         -0.0345         estimate D2E/DX2                !
 ! D113  D(26,27,28,29)         -0.1659         estimate D2E/DX2                !
 ! D114  D(26,27,28,48)        179.2022         estimate D2E/DX2                !
 ! D115  D(47,27,28,29)       -179.7506         estimate D2E/DX2                !
 ! D116  D(47,27,28,48)         -0.3826         estimate D2E/DX2                !
 ! D117  D(27,28,29,30)         -0.3675         estimate D2E/DX2                !
 ! D118  D(27,28,29,49)        177.7519         estimate D2E/DX2                !
 ! D119  D(48,28,29,30)       -179.7326         estimate D2E/DX2                !
 ! D120  D(48,28,29,49)         -1.6131         estimate D2E/DX2                !
 ! D121  D(28,29,30,22)       -178.6699         estimate D2E/DX2                !
 ! D122  D(28,29,30,25)          0.6524         estimate D2E/DX2                !
 ! D123  D(49,29,30,22)          3.2161         estimate D2E/DX2                !
 ! D124  D(49,29,30,25)       -177.4615         estimate D2E/DX2                !
 --------------------------------------------------------------------------------
 Trust Radius=3.00D-01 FncErr=1.00D-07 GrdErr=1.00D-06
 Number of steps in this run=    273 maximum allowed number of steps=    294.
 GradGradGradGradGradGradGradGradGradGradGradGradGradGradGradGradGradGrad

 Leave Link  103 at Thu Sep  1 01:06:19 2022, MaxMem=  209715200 cpu:       0.1
 (Enter /opt/gaussian/l202.exe)
                          Input orientation:                          
 ---------------------------------------------------------------------
 Center     Atomic      Atomic             Coordinates (Angstroms)
 Number     Number       Type             X           Y           Z
 ---------------------------------------------------------------------
      1          6           0       -5.537780   -2.532850    1.184220
      2         16           0       -6.157820   -0.946770    0.503840
      3          8           0       -5.886570    0.217040    1.632220
      4          8           0       -7.676820   -1.148230   -0.111300
      5          7           0       -5.185720   -0.704810   -0.903730
      6          6           0       -3.816910   -0.307420   -0.847410
      7          6           0       -2.866390   -1.132500   -1.436880
      8          6           0       -1.530220   -0.776240   -1.434280
      9          6           0       -1.126070    0.398520   -0.809170
     10          6           0       -2.075970    1.214580   -0.209370
     11          6           0       -3.419650    0.873180   -0.236100
     12          7           0        0.255410    0.789870   -0.817250
     13          6           0        0.581360    2.128190   -1.339360
     14          6           0        1.223890    3.060850   -0.339520
     15          6           0        0.894390    3.093680    1.071690
     16          6           0        1.556310    4.036740    1.760520
     17         16           0        2.654900    4.978060    0.713490
     18          6           0        2.140670    3.985510   -0.678920
     19          6           0        1.209210   -0.109500   -0.416000
     20          8           0        0.922710   -1.211690    0.031770
     21          6           0        2.670190    0.307660   -0.502950
     22          7           0        3.541910   -0.823250   -0.636860
     23          7           0        4.068090   -1.108900   -1.863330
     24          7           0        4.818550   -2.127310   -1.775000
     25          6           0        4.820150   -2.570990   -0.462920
     26          6           0        5.493290   -3.638500    0.132210
     27          6           0        5.302150   -3.829400    1.477630
     28          6           0        4.449560   -2.979950    2.219900
     29          6           0        3.779090   -1.930310    1.640890
     30          6           0        3.988050   -1.735760    0.272510
     31          1           0       -4.488850   -2.409760    1.391950
     32          1           0       -6.095110   -2.717560    2.086630
     33          1           0       -5.720870   -3.286990    0.439860
     34          1           0       -5.760910   -0.470300   -1.685760
     35          1           0       -3.181850   -2.044640   -1.902970
     36          1           0       -0.804670   -1.419190   -1.884870
     37          1           0       -1.779010    2.120120    0.280000
     38          1           0       -4.147370    1.498830    0.237830
     39          1           0        1.209210    2.041510   -2.217950
     40          1           0       -0.351350    2.553090   -1.678040
     41          1           0        0.198200    2.421190    1.528080
     42          1           0        1.491790    4.260710    2.801220
     43          1           0        2.562060    4.171780   -1.642090
     44          1           0        2.862680    0.941670   -1.349890
     45          1           0        2.925990    0.864520    0.389600
     46          1           0        6.129630   -4.273200   -0.450770
     47          1           0        5.797270   -4.636150    1.980930
     48          1           0        4.317130   -3.171120    3.267150
     49          1           0        3.108350   -1.314340    2.203460
 ---------------------------------------------------------------------
                    Distance matrix (angstroms):
                    1          2          3          4          5
     1  C    0.000000
     2  S    1.833853   0.000000
     3  O    2.807891   1.643555   0.000000
     4  O    2.858503   1.651165   2.847599   0.000000
     5  N    2.797358   1.727651   2.787838   2.651442   0.000000
     6  C    3.470080   2.777500   3.272173   4.018423   1.426440
     7  C    3.995932   3.825494   4.512441   4.989754   2.417945
     8  C    5.099290   5.019967   5.419208   6.298360   3.694491
     9  C    5.659480   5.371434   5.353100   6.766963   4.207973
    10  C    5.288615   4.673500   4.348242   6.079639   3.719777
    11  C    4.254976   3.370060   3.163358   4.714358   2.460647
    12  N    6.971901   6.774269   6.637165   8.196028   5.643354
    13  C    8.095531   7.633434   7.370000   8.968868   6.440099
    14  C    8.906820   8.441677   7.907822   9.848405   7.455309
    15  C    8.546538   8.147475   7.387196   9.636333   7.436299
    16  C    9.685956   9.269435   8.366781  10.753526   8.662303
    17  S   11.124539  10.621280   9.821817  12.039773   9.817624
    18  C   10.242993   9.725803   9.164023  11.093268   8.702048
    19  C    7.345421   7.471296   7.392694   8.951722   6.441072
    20  O    6.694142   7.101193   7.139258   8.600954   6.200404
    21  C    8.847927   8.973348   8.819598  10.456272   7.931018
    22  N    9.416997   9.767355   9.753315  11.235734   8.732512
    23  N   10.177816  10.497572  10.633543  11.874934   9.312203
    24  N   10.778452  11.272421  11.476268  12.643606  10.142388
    25  C   10.488148  11.139504  11.260399  12.582613  10.187952
    26  C   11.136144  11.963774  12.108527  13.405691  11.122993
    27  C   10.921136  11.857012  11.898951  13.347922  11.199525
    28  C   10.050845  10.935959  10.835206  12.483541  10.381327
    29  C    9.347495  10.049996   9.901322  11.615494   9.399189
    30  C    9.602500  10.179130  10.157281  11.685961   9.306151
    31  H    1.076363   2.390510   2.985202   3.743577   2.943234
    32  H    1.076605   2.375890   2.976887   3.129776   3.717581
    33  H    1.075324   2.381522   3.705051   2.950222   2.959607
    34  H    3.541283   2.275722   3.390755   2.570841   0.998704
    35  H    3.914013   3.981765   4.992822   4.921218   2.609429
    36  H    5.749946   5.880929   6.393190   7.102494   4.546050
    37  H    6.049471   5.350691   4.724644   6.754213   4.581170
    38  H    4.368448   3.177047   2.571405   4.425589   2.690234
    39  H    8.832973   8.403040   8.276629   9.673363   7.082696
    40  H    7.807584   7.122128   6.859563   8.355654   5.880867
    41  H    7.586977   7.265756   6.472523   8.800242   6.683724
    42  H    9.908683   9.534796   8.494588  11.036431   9.108907
    43  H   10.887952  10.336386   9.886376  11.639609   9.184465
    44  H    9.437252   9.400635   9.271863  10.815861   8.227193
    45  H    9.154723   9.263338   8.923259  10.803779   8.362735
    46  H   11.909260  12.765494  12.995775  14.159758  11.873320
    47  H   11.556036  12.598313  12.656507  14.074591  12.016770
    48  H   10.092831  11.059303  10.875115  12.623821  10.666915
    49  H    8.790858   9.427922   9.142211  11.032026   8.877936
                    6          7          8          9         10
     6  C    0.000000
     7  C    1.389863   0.000000
     8  C    2.406898   1.382851   0.000000
     9  C    2.782163   2.401407   1.390741   0.000000
    10  C    2.398844   2.764115   2.400336   1.388533   0.000000
    11  C    1.387563   2.402233   2.779598   2.411269   1.386631
    12  N    4.217671   3.718210   2.453956   1.435865   2.446473
    13  C    5.051632   4.746429   3.592143   2.487605   3.028690
    14  C    6.083819   5.959763   4.848390   3.582022   3.783481
    15  C    6.119377   6.188456   5.209117   3.857950   3.741012
    16  C    7.385426   7.516960   6.549671   5.199530   5.003850
    17  S    8.500414   8.511620   7.432369   6.130776   6.115275
    18  C    7.345093   7.199943   6.059725   4.853355   5.067404
    19  C    5.048482   4.324262   2.997651   2.422024   3.547998
    20  O    4.904555   4.064540   2.890637   2.738148   3.864844
    21  C    6.525293   5.796551   4.436852   3.809674   4.840943
    22  N    7.379881   6.465445   5.134646   4.828297   5.991333
    23  N    7.990475   6.947620   5.624573   5.510251   6.773745
    24  N    8.873759   7.756434   6.499874   6.530785   7.820092
    25  C    8.937023   7.880403   6.670222   6.655480   7.870915
    26  C    9.936578   8.867149   7.744425   7.810227   8.997931
    27  C   10.048254   9.082548   8.030086   8.026629   9.095293
    28  C    9.213324   8.385001   7.346233   7.188670   8.128836
    29  C    8.156263   7.366924   6.243182   5.957083   6.898951
    30  C    8.013225   7.090084   5.855349   5.646185   6.760847
    31  H    3.144212   3.502292   4.405616   4.903025   4.639187
    32  H    4.428043   5.035094   6.083071   6.541175   6.073453
    33  H    3.762973   4.038816   5.232381   6.021233   5.828458
    34  H    2.123322   2.979714   4.249186   4.796353   4.312462
    35  H    2.129658   1.071800   2.134570   3.375153   3.835853
    36  H    3.374307   2.129219   1.069036   2.136469   3.370497
    37  H    3.364081   3.835311   3.374841   2.139282   1.071294
    38  H    2.132953   3.371863   3.849853   3.381589   2.138103
    39  H    5.714695   5.224455   4.007285   3.183961   3.938352
    40  H    4.569745   4.468463   3.540281   2.448938   2.631143
    41  H    5.404570   5.550803   4.688984   3.362681   3.105880
    42  H    7.897000   8.126619   7.241745   5.899544   5.574179
    43  H    7.834922   7.592468   6.424394   5.341680   5.684104
    44  H    6.813929   6.093603   4.717617   4.061714   5.075976
    45  H    6.954879   6.393417   5.086889   4.251282   5.049843
    46  H   10.715334   9.579394   8.477578   8.637048   9.874506
    47  H   10.916495   9.950678   8.958497   9.003621  10.050690
    48  H    9.554736   8.825352   7.875938   7.680309   8.496604
    49  H    7.634194   6.998761   5.919378   5.471759   6.252548
                   11         12         13         14         15
    11  C    0.000000
    12  N    3.721658   0.000000
    13  C    4.335933   1.473073   0.000000
    14  C    5.134107   2.514663   1.510755   0.000000
    15  C    5.025124   3.046954   2.615974   1.449538   0.000000
    16  C    6.225334   4.345044   3.768600   2.339451   1.342381
    17  S    7.392694   5.063759   4.078666   2.613870   2.603573
    18  C    6.387476   3.712877   2.513417   1.345613   2.326631
    19  C    4.735438   1.370986   2.500809   3.171306   3.545800
    20  O    4.824368   2.274284   3.626474   4.299205   4.429272
    21  C    6.121860   2.482433   2.894326   3.114249   3.659899
    22  N    7.176476   3.665485   4.239028   4.532975   5.027012
    23  N    7.914718   4.385902   4.786500   5.272408   6.028963
    24  N    8.901634   5.499952   6.021033   6.472958   7.124704
    25  C    8.933536   5.679593   6.388879   6.683258   7.060815
    26  C    9.996570   6.924400   7.716689   7.958115   8.206994
    27  C   10.055890   7.216212   8.106428   8.210346   8.217188
    28  C    9.099616   6.405210   7.329693   7.310735   7.130680
    29  C    7.950126   5.085091   5.964796   5.946659   5.821165
    30  C    7.870151   4.636700   5.397571   5.569796   5.790761
    31  H    3.817254   6.134020   7.332126   8.096972   7.705173
    32  H    5.044460   7.814326   8.932746   9.635558   9.146241
    33  H    4.802036   7.342822   8.497523   9.440985   9.212699
    34  H    3.063976   6.207934   6.862691   7.941588   8.037319
    35  H    3.368780   4.585629   5.647293   6.922496   7.201852
    36  H    3.848574   2.672738   3.847410   5.154990   5.656328
    37  H    2.124363   2.666906   2.862471   3.207209   2.953246
    38  H    1.070338   4.582607   5.024391   5.623493   5.353337
    39  H    5.169049   2.106727   1.083342   2.137234   3.468127
    40  H    3.783616   2.053792   1.079441   2.128576   3.066777
    41  H    4.312482   2.857455   2.907726   2.224665   1.070147
    42  H    6.694992   5.164174   4.745622   3.372786   2.170281
    43  H    6.974125   4.175920   2.862006   2.172913   3.362741
    44  H    6.380665   2.665447   2.571451   2.863111   3.790694
    45  H    6.376419   2.931562   3.175446   2.872738   3.092216
    46  H   10.849888   7.763726   8.517669   8.824225   9.164963
    47  H   10.964468   8.245224   9.164406   9.249005   9.198653
    48  H    9.406747   6.990661   7.953527   7.836686   7.468796
    49  H    7.304210   4.657430   5.548717   5.400021   5.060945
                   16         17         18         19         20
    16  C    0.000000
    17  S    1.785849   0.000000
    18  C    2.508978   1.785607   0.000000
    19  C    4.695639   5.408238   4.207832   0.000000
    20  O    5.562018   6.463608   5.385109   1.223684   0.000000
    21  C    4.502229   4.826240   3.719938   1.521856   2.376560
    22  N    5.771442   6.022079   5.008934   2.449430   2.730963
    23  N    6.776351   6.759304   5.574118   3.356599   3.673607
    24  N    7.819055   7.833278   6.763062   4.352674   4.390939
    25  C    7.697950   7.941058   7.086181   4.370357   4.157217
    26  C    8.778412   9.090624   8.368006   5.577429   5.175876
    27  C    8.717081   9.228391   8.701637   5.845994   5.303057
    28  C    7.603674   8.295782   7.889979   5.068266   4.511466
    29  C    6.368732   7.060414   6.562230   3.761706   3.356276
    30  C    6.438112   6.859091   6.086950   3.292525   3.119121
    31  H    8.845178  10.299192   9.441320   6.405292   5.707052
    32  H   10.211324  11.733318  10.973035   8.149738   7.465915
    33  H   10.408579  11.770278  10.767764   7.671698   6.972128
    34  H    9.259156  10.308583   9.127044   7.094014   6.940486
    35  H    8.535485   9.499044   8.135738   5.023669   4.613506
    36  H    6.973540   7.723012   6.272171   2.815773   2.588514
    37  H    4.121860   5.292947   4.445571   3.792767   4.296727
    38  H    6.425849   7.655205   6.823742   5.630912   5.752833
    39  H    4.464263   4.393937   2.648654   2.806041   3.965682
    40  H    4.202866   4.542844   3.043063   3.334288   4.326690
    41  H    2.123321   3.638202   3.330336   3.347533   3.995207
    42  H    1.066481   2.495202   3.550796   5.434068   6.159616
    43  H    3.550707   2.491478   1.067690   4.654338   5.871203
    44  H    4.578287   4.537968   3.199447   2.170500   3.210830
    45  H    3.717314   4.135167   3.391024   2.131910   2.907202
    46  H    9.739618   9.950631   9.174429   6.445785   6.059514
    47  H    9.656777  10.193818   9.735427   6.876491   6.267973
    48  H    7.864179   8.700191   8.457293   5.709490   5.082237
    49  H    5.589193   6.482278   6.110068   3.452527   3.082823
                   21         22         23         24         25
    21  C    0.000000
    22  N    1.434150   0.000000
    23  N    2.410685   1.364804   0.000000
    24  N    3.487498   2.150754   1.268129   0.000000
    25  C    3.593126   2.172268   2.159734   1.385066   0.000000
    26  C    4.893414   3.510696   3.523102   2.525157   1.395305
    27  C    5.288211   4.075101   4.481745   3.702780   2.362552
    28  C    4.624765   3.692731   4.507673   4.101509   2.738998
    29  C    3.291537   2.543616   3.610788   3.575974   2.433165
    30  C    2.552187   1.363330   2.227369   2.243956   1.389553
    31  H    7.888401   8.433634   9.247178   9.835499   9.493367
    32  H    9.627480  10.192054  11.021824  11.591745  11.210022
    33  H    9.177161   9.645125  10.289436  10.831890  10.603809
    34  H    8.549135   9.368416   9.851324  10.708810  10.856660
    35  H    6.460630   6.950092   7.310185   8.001850   8.147564
    36  H    4.119025   4.561297   4.882677   5.668695   5.914997
    37  H    4.867587   6.149492   7.014914   8.111195   8.130643
    38  H    6.960371   8.079738   8.871804   9.878669   9.872735
    39  H    2.842872   4.018480   4.268962   5.531962   6.115078
    40  H    3.943665   5.257490   5.742469   6.974483   7.380862
    41  H    3.834426   5.137485   6.240132   7.276457   7.088608
    42  H    5.285146   6.470706   7.564923   8.533225   8.270714
    43  H    4.029982   5.188537   5.495694   6.692380   7.207937
    44  H    1.075327   2.021066   2.433407   3.663985   4.117910
    45  H    1.082669   2.069189   3.205382   4.149497   4.014643
    46  H    5.740621   4.316605   4.032129   2.842070   2.147651
    47  H    6.355277   5.145647   5.496353   4.621599   3.345452
    48  H    5.387762   4.621120   5.535034   5.173416   3.811379
    49  H    3.185518   2.914886   4.183550   4.406115   3.408667
                   26         27         28         29         30
    26  C    0.000000
    27  C    1.372273   0.000000
    28  C    2.425182   1.414015   0.000000
    29  C    2.851756   2.439858   1.373509   0.000000
    30  C    2.430196   2.750000   2.356550   1.397848   0.000000
    31  H   10.136068   9.893756   8.994765   8.285570   8.577019
    32  H   11.788083  11.467546  10.548776   9.915557  10.291991
    33  H   11.223885  11.085042  10.329592   9.671210   9.833486
    34  H   11.832139  11.986738  11.216337  10.208322  10.023893
    35  H    9.052094   9.305487   8.724178   7.811959   7.499039
    36  H    6.975546   7.376230   6.847776   5.805436   5.265422
    37  H    9.277386   9.325982   8.280641   7.010740   6.937352
    38  H   10.924543  10.918817   9.894204   8.749648   8.754932
    39  H    7.492603   8.054629   7.443752   6.104939   5.309624
    40  H    8.704746   9.091562   8.298024   6.940944   6.405410
    41  H    8.167391   8.069865   6.908328   5.636582   5.763649
    42  H    9.248413   9.039945   7.843054   6.701256   6.970175
    43  H    8.528817   9.014412   8.344152   7.035241   6.371669
    44  H    5.485862   6.058795   5.535404   4.246509   3.326751
    45  H    5.189843   5.372414   4.522302   3.178770   2.811252
    46  H    1.071279   2.144856   3.409928   3.922909   3.398250
    47  H    2.122610   1.072054   2.148587   3.392676   3.821549
    48  H    3.380776   2.146154   1.072761   2.115140   3.337128
    49  H    3.921701   3.415423   2.138544   1.070419   2.163339
                   31         32         33         34         35
    31  H    0.000000
    32  H    1.776905   0.000000
    33  H    1.787143   1.782178   0.000000
    34  H    3.853822   4.403725   3.528967   0.000000
    35  H    3.563434   4.985661   3.671363   3.029402   0.000000
    36  H    5.029111   6.741464   5.749963   5.050183   2.458150
    37  H    5.394393   6.730214   6.693329   5.141013   4.906989
    38  H    4.089704   4.998970   5.041904   3.190797   4.251051
    39  H    8.081650   9.722718   9.136896   7.427987   6.006433
    40  H    7.153574   8.656978   8.211198   6.197119   5.403836
    41  H    6.732388   8.143984   8.294753   7.362097   6.568141
    42  H    9.069138  10.332857  10.703563   9.752800   9.150396
    43  H   10.111251  11.675314  11.339078   9.530091   8.467847
    44  H    8.531985  10.268478   9.734583   8.744871   6.764635
    45  H    8.167342   9.853500   9.591963   9.030564   7.143164
    46  H   10.937099  12.581839  11.924772  12.544807   9.683957
    47  H   10.540777  12.046612  11.698832  12.821484  10.120534
    48  H    9.035559  10.488760  10.429211  11.549573   9.177897
    49  H    7.718545   9.310551   9.217199   9.721225   7.547365
                   36         37         38         39         40
    36  H    0.000000
    37  H    4.261774   0.000000
    38  H    4.918774   2.448859   0.000000
    39  H    4.017848   3.895561   5.917627   0.000000
    40  H    4.003409   2.461625   4.380844   1.728746   0.000000
    41  H    5.234739   2.357479   4.625956   3.898594   3.255550
    42  H    7.713263   4.651538   6.782262   5.495159   5.135845
    43  H    6.530908   5.171908   7.462922   2.588410   3.333078
    44  H    4.394237   5.058712   7.209167   2.167288   3.610311
    45  H    4.930149   4.870890   7.103366   3.336459   4.226980
    46  H    7.634562  10.195840  11.807084   8.198111   9.492499
    47  H    8.299328  10.292734  11.814070   9.125351  10.142917
    48  H    7.472978   8.607160  10.130793   8.180281   8.889105
    49  H    5.660138   6.275468   8.026400   5.866628   6.480168
                   41         42         43         44         45
    41  H    0.000000
    42  H    2.584201   0.000000
    43  H    4.324625   4.571257   0.000000
    44  H    4.191795   5.488814   3.257202   0.000000
    45  H    3.340688   4.405332   3.898484   1.742351   0.000000
    46  H    9.160380  10.242686   9.244700   6.219023   6.112749
    47  H    9.020017   9.917870  10.058454   7.128692   6.405775
    48  H    7.159880   7.964404   9.005503   6.351970   5.148005
    49  H    4.783231   5.835389   6.721919   4.216187   2.840911
                   46         47         48         49
    46  H    0.000000
    47  H    2.481000   0.000000
    48  H    4.280498   2.447752   0.000000
    49  H    4.992787   4.279513   2.457685   0.000000
 Stoichiometry    C20H19N5O3S2
 Framework group  C1[X(C20H19N5O3S2)]
 Deg. of freedom   141
 Full point group                 C1      NOp   1
 Largest Abelian subgroup         C1      NOp   1
 Largest concise Abelian subgroup C1      NOp   1
                         Standard orientation:                         
 ---------------------------------------------------------------------
 Center     Atomic      Atomic             Coordinates (Angstroms)
 Number     Number       Type             X           Y           Z
 ---------------------------------------------------------------------
      1          6           0       -5.537780   -2.532847    1.184219
      2         16           0       -6.157819   -0.946767    0.503839
      3          8           0       -5.886569    0.217043    1.632219
      4          8           0       -7.676819   -1.148226   -0.111301
      5          7           0       -5.185719   -0.704807   -0.903731
      6          6           0       -3.816909   -0.307418   -0.847411
      7          6           0       -2.866389   -1.132498   -1.436881
      8          6           0       -1.530219   -0.776239   -1.434281
      9          6           0       -1.126069    0.398521   -0.809171
     10          6           0       -2.075968    1.214581   -0.209371
     11          6           0       -3.419649    0.873182   -0.236101
     12          7           0        0.255411    0.789870   -0.817251
     13          6           0        0.581362    2.128190   -1.339361
     14          6           0        1.223892    3.060850   -0.339521
     15          6           0        0.894392    3.093680    1.071689
     16          6           0        1.556313    4.036740    1.760519
     17         16           0        2.654903    4.978059    0.713489
     18          6           0        2.140673    3.985509   -0.678921
     19          6           0        1.209211   -0.109500   -0.416001
     20          8           0        0.922710   -1.211690    0.031769
     21          6           0        2.670191    0.307659   -0.502951
     22          7           0        3.541911   -0.823251   -0.636861
     23          7           0        4.068091   -1.108901   -1.863331
     24          7           0        4.818550   -2.127312   -1.775001
     25          6           0        4.820150   -2.570992   -0.462921
     26          6           0        5.493289   -3.638502    0.132209
     27          6           0        5.302149   -3.829402    1.477629
     28          6           0        4.449560   -2.979952    2.219899
     29          6           0        3.779090   -1.930311    1.640889
     30          6           0        3.988050   -1.735761    0.272509
     31          1           0       -4.488850   -2.409758    1.391949
     32          1           0       -6.095110   -2.717557    2.086629
     33          1           0       -5.720870   -3.286987    0.439859
     34          1           0       -5.760909   -0.470297   -1.685761
     35          1           0       -3.181850   -2.044638   -1.902971
     36          1           0       -0.804670   -1.419189   -1.884871
     37          1           0       -1.779008    2.120121    0.279999
     38          1           0       -4.147368    1.498832    0.237829
     39          1           0        1.209212    2.041510   -2.217951
     40          1           0       -0.351348    2.553091   -1.678041
     41          1           0        0.198202    2.421190    1.528079
     42          1           0        1.491793    4.260710    2.801219
     43          1           0        2.562063    4.171779   -1.642091
     44          1           0        2.862681    0.941669   -1.349891
     45          1           0        2.925991    0.864519    0.389599
     46          1           0        6.129629   -4.273202   -0.450771
     47          1           0        5.797269   -4.636152    1.980929
     48          1           0        4.317130   -3.171122    3.267149
     49          1           0        3.108350   -1.314341    2.203459
 ---------------------------------------------------------------------
 Rotational constants (GHZ):      0.1656341      0.0669346      0.0530241
 Leave Link  202 at Thu Sep  1 01:06:19 2022, MaxMem=  209715200 cpu:       0.0
 (Enter /opt/gaussian/l301.exe)
 Standard basis: CC-pVDZ (5D, 7F)
 Ernie: Thresh=  0.10000D-02 Tol=  0.10000D-05 Strict=F.
 Ernie:  76 primitive shells out of 811 were deleted.
 There are   523 symmetry adapted basis functions of A   symmetry.
 Integral buffers will be    131072 words long.
 Raffenetti 2 integral format.
 Two-electron integral symmetry is turned on.
   523 basis functions,  1199 primitive gaussians,   553 cartesian basis functions
   115 alpha electrons      115 beta electrons
       nuclear repulsion energy      3060.1725752432 Hartrees.
 IExCor=  402 DFT=T Ex+Corr=B3LYP ExCW=0 ScaHFX=  0.200000
 ScaDFX=  0.800000  0.720000  1.000000  0.810000 ScalE2=  1.000000  1.000000
 IRadAn=      0 IRanWt=     -1 IRanGd=            0 ICorTp=0
 NAtoms=   49 NActive=   49 NUniq=   49 SFac= 1.00D+00 NAtFMM=   60 NAOKFM=F Big=F
 Leave Link  301 at Thu Sep  1 01:06:19 2022, MaxMem=  209715200 cpu:       0.3
 (Enter /opt/gaussian/l302.exe)
 NPDir=0 NMtPBC=     1 NCelOv=     1 NCel=       1 NClECP=     1 NCelD=      1
         NCelK=      1 NCelE2=     1 NClLst=     1 CellRange=     0.0.
 One-electron integrals computed using PRISM.
 NBasis=   523 RedAO= T  NBF=   523
 NBsUse=   523 1.00D-06 NBFU=   523
 Precomputing XC quadrature grid using
 IXCGrd= 2 IRadAn=           0 IRanWt=          -1 IRanGd=           0 AccXCQ= 0.00D+00.
 NRdTot=    3155 NPtTot=      402508 NUsed=      425243 NTot=      425275
 NSgBfM=   527   529   531   531   532 NAtAll=    49    49.
 Leave Link  302 at Thu Sep  1 01:06:20 2022, MaxMem=  209715200 cpu:       7.7
 (Enter /opt/gaussian/l303.exe)
 DipDrv:  MaxL=1.
 Leave Link  303 at Thu Sep  1 01:06:20 2022, MaxMem=  209715200 cpu:       1.1
 (Enter /opt/gaussian/l401.exe)
 Harris functional with IExCor=  402 diagonalized for initial guess.
 ExpMin= 1.22D-01 ExpMax= 1.11D+05 ExpMxC= 1.07D+03 IAcc=2 IRadAn=         4 AccDes= 0.00D+00
 HarFok:  IExCor=  402 AccDes= 0.00D+00 IRadAn=         4 IDoV= 1
 ScaDFX=  1.000000  1.000000  1.000000  1.000000
 FoFCou: FMM=F IPFlag=           0 FMFlag=      100000 FMFlg1=           0
         NFxFlg=           0 DoJE=T BraDBF=F KetDBF=T FulRan=T
         Omega=  0.000000  0.000000  1.000000  0.000000  0.000000 ICntrl=     500 IOpCl=  0
         NMat0=    1 NMatS0=    1 NMatT0=    0 NMatD0=    1 NMtDS0=    0 NMtDT0=    0
         I1Cent=           4 NGrid=           0.
 Petite list used in FoFCou.
 Harris En= -2069.21949890248    
 Initial guess orbital symmetries:
       Occupied  (A) (A) (A) (A) (A) (A) (A) (A) (A) (A) (A) (A)
                 (A) (A) (A) (A) (A) (A) (A) (A) (A) (A) (A) (A)
                 (A) (A) (A) (A) (A) (A) (A) (A) (A) (A) (A) (A)
                 (A) (A) (A) (A) (A) (A) (A) (A) (A) (A) (A) (A)
                 (A) (A) (A) (A) (A) (A) (A) (A) (A) (A) (A) (A)
                 (A) (A) (A) (A) (A) (A) (A) (A) (A) (A) (A) (A)
                 (A) (A) (A) (A) (A) (A) (A) (A) (A) (A) (A) (A)
                 (A) (A) (A) (A) (A) (A) (A) (A) (A) (A) (A) (A)
                 (A) (A) (A) (A) (A) (A) (A) (A) (A) (A) (A) (A)
                 (A) (A) (A) (A) (A) (A) (A)
       Virtual   (A) (A) (A) (A) (A) (A) (A) (A) (A) (A) (A) (A)
                 (A) (A) (A) (A) (A) (A) (A) (A) (A) (A) (A) (A)
                 (A) (A) (A) (A) (A) (A) (A) (A) (A) (A) (A) (A)
                 (A) (A) (A) (A) (A) (A) (A) (A) (A) (A) (A) (A)
                 (A) (A) (A) (A) (A) (A) (A) (A) (A) (A) (A) (A)
                 (A) (A) (A) (A) (A) (A) (A) (A) (A) (A) (A) (A)
                 (A) (A) (A) (A) (A) (A) (A) (A) (A) (A) (A) (A)
                 (A) (A) (A) (A) (A) (A) (A) (A) (A) (A) (A) (A)
                 (A) (A) (A) (A) (A) (A) (A) (A) (A) (A) (A) (A)
                 (A) (A) (A) (A) (A) (A) (A) (A) (A) (A) (A) (A)
                 (A) (A) (A) (A) (A) (A) (A) (A) (A) (A) (A) (A)
                 (A) (A) (A) (A) (A) (A) (A) (A) (A) (A) (A) (A)
                 (A) (A) (A) (A) (A) (A) (A) (A) (A) (A) (A) (A)
                 (A) (A) (A) (A) (A) (A) (A) (A) (A) (A) (A) (A)
                 (A) (A) (A) (A) (A) (A) (A) (A) (A) (A) (A) (A)
                 (A) (A) (A) (A) (A) (A) (A) (A) (A) (A) (A) (A)
                 (A) (A) (A) (A) (A) (A) (A) (A) (A) (A) (A) (A)
                 (A) (A) (A) (A) (A) (A) (A) (A) (A) (A) (A) (A)
                 (A) (A) (A) (A) (A) (A) (A) (A) (A) (A) (A) (A)
                 (A) (A) (A) (A) (A) (A) (A) (A) (A) (A) (A) (A)
                 (A) (A) (A) (A) (A) (A) (A) (A) (A) (A) (A) (A)
                 (A) (A) (A) (A) (A) (A) (A) (A) (A) (A) (A) (A)
                 (A) (A) (A) (A) (A) (A) (A) (A) (A) (A) (A) (A)
                 (A) (A) (A) (A) (A) (A) (A) (A) (A) (A) (A) (A)
                 (A) (A) (A) (A) (A) (A) (A) (A) (A) (A) (A) (A)
                 (A) (A) (A) (A) (A) (A) (A) (A) (A) (A) (A) (A)
                 (A) (A) (A) (A) (A) (A) (A) (A) (A) (A) (A) (A)
                 (A) (A) (A) (A) (A) (A) (A) (A) (A) (A) (A) (A)
                 (A) (A) (A) (A) (A) (A) (A) (A) (A) (A) (A) (A)
                 (A) (A) (A) (A) (A) (A) (A) (A) (A) (A) (A) (A)
                 (A) (A) (A) (A) (A) (A) (A) (A) (A) (A) (A) (A)
                 (A) (A) (A) (A) (A) (A) (A) (A) (A) (A) (A) (A)
                 (A) (A) (A) (A) (A) (A) (A) (A) (A) (A) (A) (A)
                 (A) (A) (A) (A) (A) (A) (A) (A) (A) (A) (A) (A)
 The electronic state of the initial guess is 1-A.
 Leave Link  401 at Thu Sep  1 01:06:23 2022, MaxMem=  209715200 cpu:      22.8
 (Enter /opt/gaussian/l502.exe)
 Closed shell SCF:
 Requested convergence on RMS density matrix=1.00D-08 within 128 cycles.
 Requested convergence on MAX density matrix=1.00D-06.
 Requested convergence on             energy=1.00D-06.
 No special actions if energy rises.
 Using DIIS extrapolation, IDIIS=  1040.
 Integral symmetry usage will be decided dynamically.
       424789 words used for storage of precomputed grid.
 IEnd=     1368966 IEndB=     1368966 NGot=   209715200 MDV=   208669237
 LenX=   208669237 LenY=   208362875
 Fock matrices will be formed incrementally for  20 cycles.
 Integral accuracy reduced to 1.0D-05 until final iterations.

 Cycle   1  Pass 0  IDiag  1:
 FoFCou: FMM=F IPFlag=           0 FMFlag=      100000 FMFlg1=           0
         NFxFlg=           0 DoJE=F BraDBF=F KetDBF=F FulRan=T
         Omega=  0.000000  0.000000  1.000000  0.000000  0.000000 ICntrl=       0 IOpCl=  0
         NMat0=    1 NMatS0=    1 NMatT0=    0 NMatD0=    1 NMtDS0=    0 NMtDT0=    0
         I1Cent=           0 NGrid=           0.
 Symmetry not used in FoFCou.
 E= -2068.32619832445    
 DIIS: error= 3.41D-02 at cycle   1 NSaved=   1.
 NSaved= 1 IEnMin= 1 EnMin= -2068.32619832445     IErMin= 1 ErrMin= 3.41D-02
 ErrMax= 3.41D-02 EMaxC= 1.00D-01 BMatC= 9.92D-01 BMatP= 9.92D-01
 IDIUse=3 WtCom= 6.59D-01 WtEn= 3.41D-01
 Coeff-Com:  0.100D+01
 Coeff-En:   0.100D+01
 Coeff:      0.100D+01
 Gap=     0.341 Goal=   None    Shift=    0.000
 GapD=    0.341 DampG=1.000 DampE=0.500 DampFc=0.5000 IDamp=-1.
 Damping current iteration by 5.00D-01
 RMSDP=5.42D-03 MaxDP=3.96D-01              OVMax= 3.52D-01

 Cycle   2  Pass 0  IDiag  1:
 RMSU=  1.91D-03    CP:  9.85D-01
 E= -2068.32148277070     Delta-E=        0.004715553753 Rises=F Damp=T
 DIIS: error= 2.50D-02 at cycle   2 NSaved=   2.
 NSaved= 2 IEnMin= 1 EnMin= -2068.32619832445     IErMin= 2 ErrMin= 2.50D-02
 ErrMax= 2.50D-02 EMaxC= 1.00D-01 BMatC= 3.32D-01 BMatP= 9.92D-01
 IDIUse=3 WtCom= 7.50D-01 WtEn= 2.50D-01
 Coeff-Com:  0.337D+00 0.663D+00
 Coeff-En:   0.502D+00 0.498D+00
 Coeff:      0.379D+00 0.621D+00
 Gap=     0.237 Goal=   None    Shift=    0.000
 RMSDP=1.90D-03 MaxDP=1.10D-01 DE= 4.72D-03 OVMax= 3.50D-01

 Cycle   3  Pass 0  IDiag  1:
 RMSU=  1.14D-03    CP:  9.73D-01  6.37D-01
 E= -2069.14849646586     Delta-E=       -0.827013695159 Rises=F Damp=F
 DIIS: error= 1.42D-02 at cycle   3 NSaved=   3.
 NSaved= 3 IEnMin= 3 EnMin= -2069.14849646586     IErMin= 3 ErrMin= 1.42D-02
 ErrMax= 1.42D-02 EMaxC= 1.00D-01 BMatC= 1.65D-01 BMatP= 3.32D-01
 IDIUse=3 WtCom= 8.58D-01 WtEn= 1.42D-01
 Coeff-Com:  0.169D+00 0.399D+00 0.432D+00
 Coeff-En:   0.000D+00 0.000D+00 0.100D+01
 Coeff:      0.145D+00 0.342D+00 0.513D+00
 Gap=     0.188 Goal=   None    Shift=    0.000
 RMSDP=1.14D-03 MaxDP=6.75D-02 DE=-8.27D-01 OVMax= 1.13D-01

 Cycle   4  Pass 0  IDiag  1:
 RMSU=  5.94D-04    CP:  9.79D-01  6.74D-01  5.26D-01
 E= -2069.27303099689     Delta-E=       -0.124534531033 Rises=F Damp=F
 DIIS: error= 8.60D-03 at cycle   4 NSaved=   4.
 NSaved= 4 IEnMin= 4 EnMin= -2069.27303099689     IErMin= 4 ErrMin= 8.60D-03
 ErrMax= 8.60D-03 EMaxC= 1.00D-01 BMatC= 4.14D-02 BMatP= 1.65D-01
 IDIUse=3 WtCom= 9.14D-01 WtEn= 8.60D-02
 Coeff-Com:  0.481D-01 0.110D+00 0.329D+00 0.512D+00
 Coeff-En:   0.000D+00 0.000D+00 0.223D+00 0.777D+00
 Coeff:      0.440D-01 0.101D+00 0.320D+00 0.535D+00
 Gap=     0.190 Goal=   None    Shift=    0.000
 RMSDP=5.01D-04 MaxDP=3.34D-02 DE=-1.25D-01 OVMax= 4.97D-02

 Cycle   5  Pass 0  IDiag  1:
 RMSU=  1.85D-04    CP:  9.78D-01  6.58D-01  6.53D-01  5.58D-01
 E= -2069.30672274315     Delta-E=       -0.033691746266 Rises=F Damp=F
 DIIS: error= 2.66D-03 at cycle   5 NSaved=   5.
 NSaved= 5 IEnMin= 5 EnMin= -2069.30672274315     IErMin= 5 ErrMin= 2.66D-03
 ErrMax= 2.66D-03 EMaxC= 1.00D-01 BMatC= 5.70D-03 BMatP= 4.14D-02
 IDIUse=3 WtCom= 9.73D-01 WtEn= 2.66D-02
 Coeff-Com:  0.753D-02 0.151D-01 0.148D+00 0.360D+00 0.469D+00
 Coeff-En:   0.000D+00 0.000D+00 0.000D+00 0.113D+00 0.887D+00
 Coeff:      0.733D-02 0.147D-01 0.144D+00 0.353D+00 0.481D+00
 Gap=     0.189 Goal=   None    Shift=    0.000
 RMSDP=1.77D-04 MaxDP=1.29D-02 DE=-3.37D-02 OVMax= 1.90D-02

 Cycle   6  Pass 0  IDiag  1:
 RMSU=  7.18D-05    CP:  9.77D-01  6.56D-01  6.50D-01  6.48D-01  5.29D-01
 E= -2069.31138799689     Delta-E=       -0.004665253738 Rises=F Damp=F
 DIIS: error= 1.46D-03 at cycle   6 NSaved=   6.
 NSaved= 6 IEnMin= 6 EnMin= -2069.31138799689     IErMin= 6 ErrMin= 1.46D-03
 ErrMax= 1.46D-03 EMaxC= 1.00D-01 BMatC= 9.38D-04 BMatP= 5.70D-03
 IDIUse=3 WtCom= 9.85D-01 WtEn= 1.46D-02
 Coeff-Com: -0.465D-03-0.392D-02 0.545D-01 0.167D+00 0.334D+00 0.449D+00
 Coeff-En:   0.000D+00 0.000D+00 0.000D+00 0.000D+00 0.124D+00 0.876D+00
 Coeff:     -0.459D-03-0.387D-02 0.537D-01 0.165D+00 0.331D+00 0.455D+00
 Gap=     0.188 Goal=   None    Shift=    0.000
 RMSDP=7.00D-05 MaxDP=5.14D-03 DE=-4.67D-03 OVMax= 7.28D-03

 Cycle   7  Pass 0  IDiag  1:
 RMSU=  2.75D-05    CP:  9.77D-01  6.56D-01  6.54D-01  6.56D-01  5.82D-01
                    CP:  4.50D-01
 E= -2069.31207475462     Delta-E=       -0.000686757725 Rises=F Damp=F
 DIIS: error= 5.98D-04 at cycle   7 NSaved=   7.
 NSaved= 7 IEnMin= 7 EnMin= -2069.31207475462     IErMin= 7 ErrMin= 5.98D-04
 ErrMax= 5.98D-04 EMaxC= 1.00D-01 BMatC= 1.49D-04 BMatP= 9.38D-04
 IDIUse=3 WtCom= 9.94D-01 WtEn= 5.98D-03
 Coeff-Com: -0.976D-03-0.487D-02 0.155D-01 0.582D-01 0.157D+00 0.320D+00
 Coeff-Com:  0.455D+00
 Coeff-En:   0.000D+00 0.000D+00 0.000D+00 0.000D+00 0.000D+00 0.144D+00
 Coeff-En:   0.856D+00
 Coeff:     -0.970D-03-0.484D-02 0.154D-01 0.579D-01 0.156D+00 0.319D+00
 Coeff:      0.458D+00
 Gap=     0.188 Goal=   None    Shift=    0.000
 RMSDP=2.66D-05 MaxDP=1.80D-03 DE=-6.87D-04 OVMax= 2.70D-03

 Cycle   8  Pass 0  IDiag  1:
 RMSU=  1.05D-05    CP:  9.77D-01  6.57D-01  6.54D-01  6.52D-01  5.93D-01
                    CP:  5.57D-01  5.22D-01
 E= -2069.31220171728     Delta-E=       -0.000126962661 Rises=F Damp=F
 DIIS: error= 1.28D-04 at cycle   8 NSaved=   8.
 NSaved= 8 IEnMin= 8 EnMin= -2069.31220171728     IErMin= 8 ErrMin= 1.28D-04
 ErrMax= 1.28D-04 EMaxC= 1.00D-01 BMatC= 1.38D-05 BMatP= 1.49D-04
 IDIUse=3 WtCom= 9.99D-01 WtEn= 1.28D-03
 Coeff-Com: -0.405D-03-0.266D-02 0.275D-02 0.138D-01 0.539D-01 0.138D+00
 Coeff-Com:  0.289D+00 0.505D+00
 Coeff-En:   0.000D+00 0.000D+00 0.000D+00 0.000D+00 0.000D+00 0.000D+00
 Coeff-En:   0.479D-01 0.952D+00
 Coeff:     -0.405D-03-0.266D-02 0.275D-02 0.138D-01 0.539D-01 0.138D+00
 Coeff:      0.289D+00 0.506D+00
 Gap=     0.188 Goal=   None    Shift=    0.000
 RMSDP=7.98D-06 MaxDP=4.19D-04 DE=-1.27D-04 OVMax= 6.95D-04

 Initial convergence to 1.0D-05 achieved.  Increase integral accuracy.
 Cycle   9  Pass 1  IDiag  1:
 E= -2069.31237216569     Delta-E=       -0.000170448411 Rises=F Damp=F
 DIIS: error= 1.50D-04 at cycle   1 NSaved=   1.
 NSaved= 1 IEnMin= 1 EnMin= -2069.31237216569     IErMin= 1 ErrMin= 1.50D-04
 ErrMax= 1.50D-04 EMaxC= 1.00D-01 BMatC= 9.32D-06 BMatP= 9.32D-06
 IDIUse=3 WtCom= 9.98D-01 WtEn= 1.50D-03
 Coeff-Com:  0.100D+01
 Coeff-En:   0.100D+01
 Coeff:      0.100D+01
 Gap=     0.188 Goal=   None    Shift=    0.000
 RMSDP=7.98D-06 MaxDP=4.19D-04 DE=-1.70D-04 OVMax= 7.48D-04

 Cycle  10  Pass 1  IDiag  1:
 RMSU=  7.47D-05    CP:  1.00D+00
 E= -2069.31237393018     Delta-E=       -0.000001764494 Rises=F Damp=F
 DIIS: error= 8.93D-05 at cycle   2 NSaved=   2.
 NSaved= 2 IEnMin= 2 EnMin= -2069.31237393018     IErMin= 2 ErrMin= 8.93D-05
 ErrMax= 8.93D-05 EMaxC= 1.00D-01 BMatC= 8.52D-06 BMatP= 9.32D-06
 IDIUse=1 WtCom= 1.00D+00 WtEn= 0.00D+00
 Coeff-Com:  0.484D+00 0.516D+00
 Coeff:      0.484D+00 0.516D+00
 Gap=     0.188 Goal=   None    Shift=    0.000
 RMSDP=9.29D-06 MaxDP=6.02D-04 DE=-1.76D-06 OVMax= 9.11D-04

 Cycle  11  Pass 1  IDiag  1:
 RMSU=  6.57D-06    CP:  1.00D+00  1.00D+00
 E= -2069.31237674173     Delta-E=       -0.000002811542 Rises=F Damp=F
 DIIS: error= 7.62D-05 at cycle   3 NSaved=   3.
 NSaved= 3 IEnMin= 3 EnMin= -2069.31237674173     IErMin= 3 ErrMin= 7.62D-05
 ErrMax= 7.62D-05 EMaxC= 1.00D-01 BMatC= 5.40D-06 BMatP= 8.52D-06
 IDIUse=1 WtCom= 1.00D+00 WtEn= 0.00D+00
 Coeff-Com:  0.163D-01 0.439D+00 0.545D+00
 Coeff:      0.163D-01 0.439D+00 0.545D+00
 Gap=     0.188 Goal=   None    Shift=    0.000
 RMSDP=4.42D-06 MaxDP=3.16D-04 DE=-2.81D-06 OVMax= 4.68D-04

 Cycle  12  Pass 1  IDiag  1:
 RMSU=  1.04D-06    CP:  1.00D+00  1.01D+00  5.59D-01
 E= -2069.31238122684     Delta-E=       -0.000004485119 Rises=F Damp=F
 DIIS: error= 2.03D-05 at cycle   4 NSaved=   4.
 NSaved= 4 IEnMin= 4 EnMin= -2069.31238122684     IErMin= 4 ErrMin= 2.03D-05
 ErrMax= 2.03D-05 EMaxC= 1.00D-01 BMatC= 2.53D-07 BMatP= 5.40D-06
 IDIUse=1 WtCom= 1.00D+00 WtEn= 0.00D+00
 Coeff-Com: -0.332D-02 0.276D+00 0.362D+00 0.365D+00
 Coeff:     -0.332D-02 0.276D+00 0.362D+00 0.365D+00
 Gap=     0.188 Goal=   None    Shift=    0.000
 RMSDP=9.66D-07 MaxDP=7.07D-05 DE=-4.49D-06 OVMax= 9.24D-05

 Cycle  13  Pass 1  IDiag  1:
 RMSU=  2.72D-07    CP:  1.00D+00  1.01D+00  5.70D-01  4.00D-01
 E= -2069.31238145393     Delta-E=       -0.000000227087 Rises=F Damp=F
 DIIS: error= 5.07D-06 at cycle   5 NSaved=   5.
 NSaved= 5 IEnMin= 5 EnMin= -2069.31238145393     IErMin= 5 ErrMin= 5.07D-06
 ErrMax= 5.07D-06 EMaxC= 1.00D-01 BMatC= 1.14D-08 BMatP= 2.53D-07
 IDIUse=1 WtCom= 1.00D+00 WtEn= 0.00D+00
 Coeff-Com: -0.295D-02 0.173D+00 0.228D+00 0.252D+00 0.351D+00
 Coeff:     -0.295D-02 0.173D+00 0.228D+00 0.252D+00 0.351D+00
 Gap=     0.188 Goal=   None    Shift=    0.000
 RMSDP=2.13D-07 MaxDP=1.70D-05 DE=-2.27D-07 OVMax= 2.43D-05

 Cycle  14  Pass 1  IDiag  1:
 RMSU=  1.03D-07    CP:  1.00D+00  1.01D+00  5.69D-01  4.23D-01  6.07D-01
 E= -2069.31238146333     Delta-E=       -0.000000009400 Rises=F Damp=F
 DIIS: error= 8.93D-07 at cycle   6 NSaved=   6.
 NSaved= 6 IEnMin= 6 EnMin= -2069.31238146333     IErMin= 6 ErrMin= 8.93D-07
 ErrMax= 8.93D-07 EMaxC= 1.00D-01 BMatC= 5.91D-10 BMatP= 1.14D-08
 IDIUse=1 WtCom= 1.00D+00 WtEn= 0.00D+00
 Coeff-Com: -0.135D-02 0.690D-01 0.912D-01 0.106D+00 0.214D+00 0.522D+00
 Coeff:     -0.135D-02 0.690D-01 0.912D-01 0.106D+00 0.214D+00 0.522D+00
 Gap=     0.188 Goal=   None    Shift=    0.000
 RMSDP=5.70D-08 MaxDP=3.68D-06 DE=-9.40D-09 OVMax= 5.94D-06

 Cycle  15  Pass 1  IDiag  1:
 RMSU=  3.18D-08    CP:  1.00D+00  1.01D+00  5.69D-01  4.25D-01  6.51D-01
                    CP:  7.92D-01
 E= -2069.31238146392     Delta-E=       -0.000000000585 Rises=F Damp=F
 DIIS: error= 2.69D-07 at cycle   7 NSaved=   7.
 NSaved= 7 IEnMin= 7 EnMin= -2069.31238146392     IErMin= 7 ErrMin= 2.69D-07
 ErrMax= 2.69D-07 EMaxC= 1.00D-01 BMatC= 7.71D-11 BMatP= 5.91D-10
 IDIUse=1 WtCom= 1.00D+00 WtEn= 0.00D+00
 Coeff-Com: -0.376D-03 0.162D-01 0.215D-01 0.267D-01 0.755D-01 0.310D+00
 Coeff-Com:  0.550D+00
 Coeff:     -0.376D-03 0.162D-01 0.215D-01 0.267D-01 0.755D-01 0.310D+00
 Coeff:      0.550D+00
 Gap=     0.188 Goal=   None    Shift=    0.000
 RMSDP=2.17D-08 MaxDP=9.98D-07 DE=-5.85D-10 OVMax= 2.41D-06

 Cycle  16  Pass 1  IDiag  1:
 RMSU=  1.03D-08    CP:  1.00D+00  1.01D+00  5.69D-01  4.26D-01  6.58D-01
                    CP:  8.39D-01  6.89D-01
 E= -2069.31238146395     Delta-E=       -0.000000000039 Rises=F Damp=F
 DIIS: error= 1.05D-07 at cycle   8 NSaved=   8.
 NSaved= 8 IEnMin= 8 EnMin= -2069.31238146395     IErMin= 8 ErrMin= 1.05D-07
 ErrMax= 1.05D-07 EMaxC= 1.00D-01 BMatC= 1.06D-11 BMatP= 7.71D-11
 IDIUse=1 WtCom= 1.00D+00 WtEn= 0.00D+00
 Coeff-Com: -0.100D-05-0.167D-02-0.215D-02-0.154D-02 0.915D-02 0.965D-01
 Coeff-Com:  0.322D+00 0.578D+00
 Coeff:     -0.100D-05-0.167D-02-0.215D-02-0.154D-02 0.915D-02 0.965D-01
 Coeff:      0.322D+00 0.578D+00
 Gap=     0.188 Goal=   None    Shift=    0.000
 RMSDP=8.51D-09 MaxDP=4.55D-07 DE=-3.91D-11 OVMax= 8.94D-07

 SCF Done:  E(RB3LYP) =  -2069.31238146     A.U. after   16 cycles
             Convg  =    0.8514D-08             -V/T =  2.0047
 KE= 2.059533028378D+03 PE=-1.097549984369D+04 EE= 3.786481858607D+03
 Leave Link  502 at Thu Sep  1 01:17:18 2022, MaxMem=  209715200 cpu:    5223.9
 (Enter /opt/gaussian/l601.exe)
 Copying SCF densities to generalized density rwf, IOpCl= 0 IROHF=0.

 **********************************************************************

            Population analysis using the SCF density.

 **********************************************************************

 Orbital symmetries:
       Occupied  (A) (A) (A) (A) (A) (A) (A) (A) (A) (A) (A) (A)
                 (A) (A) (A) (A) (A) (A) (A) (A) (A) (A) (A) (A)
                 (A) (A) (A) (A) (A) (A) (A) (A) (A) (A) (A) (A)
                 (A) (A) (A) (A) (A) (A) (A) (A) (A) (A) (A) (A)
                 (A) (A) (A) (A) (A) (A) (A) (A) (A) (A) (A) (A)
                 (A) (A) (A) (A) (A) (A) (A) (A) (A) (A) (A) (A)
                 (A) (A) (A) (A) (A) (A) (A) (A) (A) (A) (A) (A)
                 (A) (A) (A) (A) (A) (A) (A) (A) (A) (A) (A) (A)
                 (A) (A) (A) (A) (A) (A) (A) (A) (A) (A) (A) (A)
                 (A) (A) (A) (A) (A) (A) (A)
       Virtual   (A) (A) (A) (A) (A) (A) (A) (A) (A) (A) (A) (A)
                 (A) (A) (A) (A) (A) (A) (A) (A) (A) (A) (A) (A)
                 (A) (A) (A) (A) (A) (A) (A) (A) (A) (A) (A) (A)
                 (A) (A) (A) (A) (A) (A) (A) (A) (A) (A) (A) (A)
                 (A) (A) (A) (A) (A) (A) (A) (A) (A) (A) (A) (A)
                 (A) (A) (A) (A) (A) (A) (A) (A) (A) (A) (A) (A)
                 (A) (A) (A) (A) (A) (A) (A) (A) (A) (A) (A) (A)
                 (A) (A) (A) (A) (A) (A) (A) (A) (A) (A) (A) (A)
                 (A) (A) (A) (A) (A) (A) (A) (A) (A) (A) (A) (A)
                 (A) (A) (A) (A) (A) (A) (A) (A) (A) (A) (A) (A)
                 (A) (A) (A) (A) (A) (A) (A) (A) (A) (A) (A) (A)
                 (A) (A) (A) (A) (A) (A) (A) (A) (A) (A) (A) (A)
                 (A) (A) (A) (A) (A) (A) (A) (A) (A) (A) (A) (A)
                 (A) (A) (A) (A) (A) (A) (A) (A) (A) (A) (A) (A)
                 (A) (A) (A) (A) (A) (A) (A) (A) (A) (A) (A) (A)
                 (A) (A) (A) (A) (A) (A) (A) (A) (A) (A) (A) (A)
                 (A) (A) (A) (A) (A) (A) (A) (A) (A) (A) (A) (A)
                 (A) (A) (A) (A) (A) (A) (A) (A) (A) (A) (A) (A)
                 (A) (A) (A) (A) (A) (A) (A) (A) (A) (A) (A) (A)
                 (A) (A) (A) (A) (A) (A) (A) (A) (A) (A) (A) (A)
                 (A) (A) (A) (A) (A) (A) (A) (A) (A) (A) (A) (A)
                 (A) (A) (A) (A) (A) (A) (A) (A) (A) (A) (A) (A)
                 (A) (A) (A) (A) (A) (A) (A) (A) (A) (A) (A) (A)
                 (A) (A) (A) (A) (A) (A) (A) (A) (A) (A) (A) (A)
                 (A) (A) (A) (A) (A) (A) (A) (A) (A) (A) (A) (A)
                 (A) (A) (A) (A) (A) (A) (A) (A) (A) (A) (A) (A)
                 (A) (A) (A) (A) (A) (A) (A) (A) (A) (A) (A) (A)
                 (A) (A) (A) (A) (A) (A) (A) (A) (A) (A) (A) (A)
                 (A) (A) (A) (A) (A) (A) (A) (A) (A) (A) (A) (A)
                 (A) (A) (A) (A) (A) (A) (A) (A) (A) (A) (A) (A)
[...]
 516,0.00000919,0.00000658,0.00000274,-0.00013361,0.00003661,-0.0000023
 9,0.00006769,-0.00003571,0.00001748,-0.00000153,0.00022158,0.00037302,
 0.00044036,-0.00061743,-0.00053126,0.00033272,-0.00040843,0.00015156,-
 0.00289782,-0.00000278,-0.00127137,0.01352740,-0.00830691,-0.01062730,
 0.13139008,-0.16916141,-0.06902645,-0.00038907,0.00395455,0.00179654,0
 .00300043,0.00457737,0.00115742,-0.00053122,-0.00039175,0.00053786,0.0
 0336048,0.00141796,0.00348441,-0.00000013,-0.00000048,0.00000050,-0.00
 000032,0.00000056,-0.00000017,-0.00000043,-0.00000018,0.00000008,0.000
 00039,0.00000106,-0.00000183,0.00000041,0.00000113,0.00000010,-0.00000
 344,-0.00000208,-0.00000340,-0.00000084,0.00000075,-0.00000001,0.00000
 183,-0.00000030,-0.00000067,-0.00000255,0.00000406,-0.00000848,0.00000
 292,-0.00000553,-0.00000497,-0.00000299,0.00000125,0.00000219,-0.00000
 009,0.00000049,0.00000005,0.00000117,0.00000222,-0.00000016,0.00008503
 ,-0.00006993,0.00000865,-0.00001064,0.00001475,-0.00002456,-0.14505358
 ,0.17102175,0.00000038,0.00000083,-0.00000060,-0.00001196,-0.00000497,
 0.00000617,0.00000403,0.00000140,-0.00000210,0.00000703,0.00000041,-0.
 00000107,0.00000508,0.00000171,-0.00000273,-0.00000431,-0.00000057,0.,
 -0.00000053,-0.00000132,-0.00000069,-0.00000046,0.00000273,0.,-0.00000
 607,-0.00000139,0.00000137,0.00000099,-0.00000038,0.00000083,0.0000003
 1,0.00000034,0.00000066,0.00001016,-0.00000657,0.00000370,-0.00000265,
 0.00000649,-0.00000576,-0.00000068,-0.00000425,-0.00000293,0.00000157,
 -0.00000301,-0.00000160,0.00000468,0.00000154,0.00000081,-0.00000114,-
 0.00000021,0.00000019,0.00000043,-0.00000039,0.00000364,0.00002635,0.0
 0002715,-0.00001320,-0.00001032,-0.00002604,0.00000671,0.00000965,0.00
 012003,-0.00037326,-0.00067090,0.00071862,-0.00005141,-0.00015449,0.00
 013128,0.00019066,0.00060970,-0.00182181,0.00131872,-0.01241522,0.0120
 9122,0.01235932,0.07410390,-0.06913369,-0.09959495,0.01985058,-0.02026
 504,-0.00506863,0.00106253,0.00176066,-0.00483138,-0.00031536,0.000338
 26,-0.00076730,-0.00073596,0.00265572,-0.00192720,-0.00000018,-0.00000
 053,0.00000026,-0.00000022,0.00000001,-0.00000016,-0.00000023,-0.00000
 012,0.00000027,0.00000007,0.00000046,-0.00000062,-0.00000052,0.0000002
 7,0.00000045,-0.00000125,-0.00000020,0.00000022,-0.00000033,0.00000024
 ,-0.00000047,0.00000021,-0.00000027,-0.00000031,-0.00000182,-0.0000004
 5,0.00000425,-0.00000166,-0.00000007,0.00000227,-0.00000297,0.00000099
 ,-0.00000092,-0.00000107,0.00000233,0.00000043,-0.00000040,0.00000067,
 0.00000031,-0.00007418,0.00009504,-0.00000536,0.00002456,-0.00001973,0
 .00000123,-0.08125952,0.07482821,0.09795734,-0.00000077,-0.00000466,0.
 00000294,0.00001547,0.00002896,-0.00002436,-0.00000431,-0.00000945,0.0
 0000898,-0.00000870,-0.00000679,0.00000533,-0.00001116,-0.00000880,0.0
 0000937,0.00000623,0.00000151,0.00000127,0.00000353,0.00000163,0.00000
 108,-0.00000932,-0.00000771,0.00000219,0.00004909,0.00001825,-0.000001
 24,-0.00001120,-0.00000012,-0.00000138,0.00000079,-0.00000168,-0.00000
 178,-0.00007185,0.00001101,-0.00000740,0.00000067,-0.00000095,0.000008
 62,0.00000014,0.00000686,0.00000499,-0.00000383,0.00001315,0.00000094,
 -0.00001302,-0.00000108,-0.00000726,0.00000323,-0.00000231,-0.00000079
 ,-0.00000709,0.00000052,-0.00000262,0.00009731,-0.00001786,0.00000340,
 -0.00002429,0.00001255,-0.00001741,0.00004607,-0.00006491,-0.00001503,
 -0.00003674,-0.00000310,0.00000642,-0.00067676,-0.00086097,-0.00011400
 ,0.00103711,0.00053367,0.00012843,0.00447933,0.00338957,0.00259940,0.0
 0585921,-0.00454994,0.00533409,-0.10222356,0.09269010,-0.07583948,-0.0
 0589152,0.01210317,-0.01404329,0.00065481,0.00434804,0.00286892,-0.000
 39305,-0.00034858,0.00077188,0.00000013,0.00000222,-0.00000243,-0.0000
 0130,-0.00000048,0.00000004,0.00000035,-0.00000025,-0.00000022,-0.0000
 0164,-0.00000105,0.00000125,-0.00000256,-0.00000110,-0.00000191,0.0000
 0394,0.00000432,0.00000128,0.00000251,-0.00000269,-0.00000031,-0.00000
 104,0.00000083,0.00000019,0.00000028,-0.00000285,0.00000316,-0.0000018
 1,0.00000154,-0.00000076,0.00001052,-0.00000349,-0.00000004,0.00000376
 ,-0.00000347,-0.00000157,0.00000193,-0.00000216,0.00000093,-0.00001403
 ,-0.00000711,-0.00001838,0.00000141,-0.00003349,0.00006353,-0.00229931
 ,-0.00267745,-0.00091197,0.10086428,0.00000075,0.00000132,-0.00000287,
 -0.00003130,-0.00001060,0.00002465,0.00000869,0.00000214,-0.00001087,0
 .00001994,-0.00000010,-0.00000437,0.00001563,0.00000505,-0.00000866,-0
 .00000949,-0.00000242,-0.00000087,-0.00000398,-0.00000395,-0.00000054,
 0.00000852,0.00001190,0.00000148,-0.00005655,-0.00002277,0.00000364,0.
 00001276,0.00000240,0.00000255,0.00000147,0.00000076,0.00000236,0.0001
 0468,-0.00007459,0.00001050,0.00001085,0.00002836,-0.00000741,-0.00000
 128,-0.00001414,0.00000303,0.00000022,-0.00001351,-0.00000566,0.000014
 23,0.00000914,0.00000159,-0.00000924,-0.00000919,-0.00000272,0.0000099
 4,0.00000523,0.00000655,-0.00010380,0.00019221,-0.00007263,0.00006977,
 -0.00008972,0.00010264,-0.00002290,0.00001736,-0.00004032,-0.00001487,
 0.00001028,-0.00011028,-0.00083297,-0.00051602,0.00000211,0.00073167,0
 .00068753,0.00010455,0.00326361,0.00429768,0.00006866,0.00010549,0.003
 26045,-0.00221054,0.09274078,-0.16530024,0.11454251,0.00724153,-0.0093
 9361,0.01403341,0.00445928,0.00062324,-0.00203940,-0.00026561,-0.00005
 335,-0.00085600,-0.00000043,-0.00000116,0.00000123,-0.00000016,0.00000
 079,-0.00000015,-0.00000065,-0.00000022,0.00000028,0.00000080,0.000001
 75,-0.00000248,0.00000035,0.00000157,0.00000062,-0.00000462,-0.0000033
 2,-0.00000582,-0.00000161,0.00000152,-0.00000032,0.00000214,-0.0000006
 8,-0.00000083,-0.00000331,0.00000094,-0.00000538,0.00000176,-0.0000072
 3,-0.00000219,-0.00000992,0.00000418,0.00000242,-0.00000028,0.00000255
 ,0.00000124,-0.00000041,0.00000286,-0.00000057,-0.00000109,-0.00000483
 ,0.00000266,0.00001974,0.00000652,0.00003487,-0.00275433,-0.00167927,-
 0.00034585,-0.10319470,0.16924055,-0.00000096,-0.00000284,0.00000266,0
 .00002300,0.00001860,-0.00001947,-0.00000657,-0.00000561,0.00000717,-0
 .00001400,-0.00000314,0.00000351,-0.00001267,-0.00000642,0.00000711,0.
 00000678,0.00000176,0.00000065,0.00000346,0.00000284,0.00000196,-0.000
 00803,-0.00001084,0.00000036,0.00004925,0.00002540,-0.00000488,-0.0000
 1389,-0.00000222,-0.00000110,-0.00000085,-0.00000057,-0.00000075,-0.00
 010545,0.00001827,-0.00000113,-0.00000006,-0.00001454,-0.00000447,-0.0
 0000107,0.00000849,-0.00000872,0.00000408,0.00000728,-0.00000173,-0.00
 000330,-0.00000123,0.00000536,0.00000351,0.00000188,0.00000363,-0.0000
 1395,-0.00000357,-0.00000094,0.00014144,0.00000829,-0.00002348,-0.0000
 6424,0.00000083,0.00002823,0.00007987,-0.00013306,0.00002042,-0.000142
 45,0.00005029,0.00049539,-0.00008262,0.00002597,-0.00101196,-0.0009264
 7,0.00131369,0.00020881,0.00340753,-0.00092120,-0.00474112,-0.01518766
 ,0.02100232,-0.01429819,-0.07580361,0.11433886,-0.16329769,0.00672976,
 -0.00931484,0.00959748,0.00233812,-0.00139895,-0.00002314,0.00035241,-
 0.00035245,-0.00066301,0.00000015,0.00000156,-0.00000123,-0.00000009,-
 0.00000058,0.00000031,0.00000040,0.00000016,-0.00000031,-0.00000096,-0
 .00000115,0.00000197,-0.00000157,-0.00000125,-0.00000116,0.00000535,0.
 00000411,0.00000165,0.00000151,-0.00000137,-0.00000088,-0.00000177,0.0
 0000061,0.00000056,0.00000163,-0.00000606,0.00001000,-0.00000285,0.000
 00489,0.00000351,0.00000034,-0.00000106,-0.00000151,0.00000083,-0.0000
 0052,0.00000045,0.00000142,-0.00000426,0.00000129,-0.00000002,-0.00000
 738,-0.00001969,-0.00001937,0.00002486,0.00001195,-0.00052895,-0.00076
 463,0.00115217,0.08013203,-0.12335243,0.17145022,-0.00000002,-0.000001
 29,0.00000226,-0.00002409,0.00001080,-0.00001778,0.00001222,-0.0000035
 1,0.00000853,0.00001372,-0.00000492,0.00000498,0.00000358,-0.00000203,
 0.00000591,-0.00000414,-0.00000058,0.00000108,-0.00000090,-0.00000277,
 0.00000173,-0.00000178,-0.00000295,0.00000156,0.00001033,0.00000200,-0
 .00000110,-0.00000133,0.00000156,0.00000368,-0.00000053,0.,0.00000147,
 -0.00000015,-0.00002003,0.00000886,0.00000472,0.00001327,-0.00000537,-
 0.00000111,-0.00000744,-0.00000413,0.00000469,-0.00000309,-0.00000715,
 0.00001032,0.00001006,0.00000195,-0.00000518,-0.00000884,0.00000162,-0
 .00000672,0.00000134,0.00001073,0.00004235,0.00004295,-0.00003703,-0.0
 0004363,-0.00004223,0.00004903,0.00009085,-0.00000880,0.00000434,0.001
 37378,0.00022682,-0.00048882,-0.00092136,-0.00032548,-0.00038306,0.000
 11664,-0.00022977,0.00021995,-0.00086331,0.00045319,-0.00059052,0.0004
 0044,0.00525062,0.00161407,-0.00010741,-0.00146503,0.02027297,-0.05644
 117,0.00901958,0.05513280,0.00587803,0.00077887,-0.01482648,0.00276997
 ,0.00563169,-0.00132979,-0.00000091,-0.00000011,-0.00000320,-0.0000023
 6,-0.00000059,-0.00000040,0.00000067,-0.00000065,0.00000035,-0.0000015
 2,0.00000012,-0.00000200,-0.00000151,0.00000031,-0.00000212,0.00000080
 ,0.00000197,-0.00000410,0.00000038,0.00000049,-0.00000234,-0.00000001,
 0.00000053,-0.00000119,-0.00000169,-0.00000357,0.00000299,-0.00000030,
 -0.00000122,-0.00000064,-0.00000681,0.00000268,-0.00000464,0.00000234,
 0.00000460,0.00000076,0.00000090,-0.00000067,0.00000113,-0.00002326,-0
 .00000072,-0.00000368,-0.00000927,-0.00000297,-0.00000233,-0.00003659,
 0.00001044,0.00096912,-0.00124665,-0.00204866,-0.00071705,0.05100569,-
 0.00000056,-0.00000328,-0.00000074,0.00000235,0.00001818,0.00000736,-0
 .00000412,-0.00000807,-0.00000603,0.00000091,-0.00000532,-0.00000136,-
 0.00000011,-0.00000443,-0.00000128,0.00000124,-0.00000045,-0.00000005,
 -0.00000112,-0.00000129,-0.00000034,-0.00000040,0.00000455,0.00000131,
 -0.00000698,-0.00000957,0.00000585,0.00000289,0.00000494,-0.00000111,0
 .00000355,-0.00000166,-0.00000175,0.00005061,-0.00003900,0.00000434,0.
 00000774,0.00002898,0.00001177,0.00000348,-0.00000531,0.00001423,-0.00
 000869,0.00000570,-0.00000123,-0.00001217,0.00000569,-0.00000908,-0.00
 000831,-0.00001477,-0.00000464,0.00001030,0.00001238,-0.00000761,-0.00
 009124,0.00005144,-0.00001772,0.00005178,-0.00004537,-0.00000617,-0.00
 003924,0.00013471,0.00006075,0.00006420,0.00120349,0.00094847,-0.00036
 323,-0.00096623,0.00015596,-0.00019000,0.00023418,-0.00023203,0.000269
 92,-0.00094987,0.00037054,0.00517656,-0.00021392,-0.00066751,0.0035670
 9,0.00368789,-0.02034817,0.00890664,-0.04825440,0.00724160,-0.00411472
 ,0.00309580,0.02080128,0.00566029,0.00054369,0.00297013,-0.00000003,0.
 00000132,-0.00000042,-0.00000052,0.00000054,0.00000008,-0.00000021,-0.
 00000054,-0.00000015,0.,0.00000049,0.00000047,-0.00000128,-0.00000008,
 -0.00000063,-0.00000126,-0.00000007,-0.00000180,0.00000178,-0.00000300
 ,0.00000180,0.00000163,0.00000014,0.00000038,-0.00000068,-0.00000075,-
 0.00000838,-0.00000054,-0.00000691,-0.00000530,0.00001018,-0.00000102,
 0.00001002,0.00001022,-0.00001161,-0.00000188,0.00000089,0.00000045,-0
 .00000145,0.00000616,-0.00003165,0.00001657,0.00000070,0.00001183,0.00
 000127,0.00021750,0.00010371,-0.00094252,-0.00213130,-0.00082376,-0.00
 012649,-0.01432767,0.04376080,-0.00000112,-0.00000356,0.00000642,0.000
 01026,0.00002780,-0.00005452,0.00000404,-0.00000699,0.00002455,-0.0000
 0834,-0.00000628,0.00001220,-0.00001550,-0.00000873,0.00001895,0.00000
 704,0.00000233,0.00000244,0.00000406,0.00000183,0.00000403,-0.00001162
 ,-0.00001987,0.00000085,0.00008089,0.00003934,-0.00000890,-0.00002023,
 -0.00000408,0.00000104,-0.00000340,0.00000005,0.00000031,-0.00016238,0
 .00005111,0.00000231,-0.00000473,-0.00002902,-0.00000874,-0.00000194,0
 .00001220,-0.00001492,0.00000819,0.00000932,-0.00000192,0.00000107,-0.
 00000321,0.00000843,0.00000859,0.00000852,0.00000575,-0.00002492,-0.00
 001109,0.00000504,0.00024118,-0.00006369,0.00000367,-0.00014168,0.0000
 2658,0.00000490,0.00017342,-0.00021706,-0.00001864,0.00062417,-0.00022
 711,-0.00064450,-0.00056968,0.00041265,-0.00023361,0.00016877,-0.00023
 105,0.00008365,-0.00021749,-0.00002796,0.00058686,0.00201258,-0.001199
 97,0.00114405,-0.00017835,0.00274851,-0.00776751,0.05455776,0.00760004
 ,-0.32740750,0.00531129,-0.00183966,-0.01354407,-0.00125557,0.00321111
 ,0.00015002,-0.00000066,0.00000156,-0.00000549,-0.00000261,-0.00000160
 ,-0.00000025,0.00000165,-0.00000040,-0.00000005,-0.00000308,-0.0000021
 6,0.00000024,-0.00000225,-0.00000146,-0.00000378,0.00000765,0.00000683
 ,0.00000031,0.00000150,-0.00000024,-0.00000325,-0.00000325,0.00000140,
 -0.00000050,0.00000091,-0.00000654,0.00001629,-0.00000244,0.00000987,0
 .00000529,-0.00000067,-0.00000091,-0.00000954,-0.00000374,0.00000628,0
 .00000076,0.00000193,-0.00000505,0.00000289,-0.00003057,0.00001775,-0.
 00002822,-0.00002402,0.00000226,0.00001656,-0.00001418,0.00014099,-0.0
 0043301,-0.00037110,-0.00054542,0.00074429,-0.05949958,-0.00932373,0.3
 4656905,-0.00000017,-0.00000061,-0.00000081,-0.00002887,0.00000578,0.0
 0000986,0.00001031,-0.00000430,-0.00000568,0.00001840,-0.00000454,-0.0
 0000117,0.00001050,-0.00000089,-0.00000447,-0.00000801,-0.00000288,0.0
 0000051,-0.00000491,-0.00001017,0.00000135,0.00000219,0.00001247,0.000
 00217,-0.00003798,-0.00001367,0.00000030,0.00000453,0.00001059,0.00000
 503,0.00000445,-0.00000293,0.00000406,0.00006818,-0.00020266,0.0000086
 4,0.00004137,0.00010619,0.00000509,0.00001329,-0.00001552,0.00001473,0
 .00000087,0.00005812,-0.00002523,-0.00003333,0.00005462,-0.00002761,-0
 .00004770,-0.00007333,0.00000299,-0.00001715,0.00001074,0.00000333,0.0
 0012310,0.00073000,-0.00055297,-0.00024360,-0.00028254,0.00025101,-0.0
 0033491,-0.00002969,0.00015743,-0.00117886,-0.00126093,-0.00091410,-0.
 00013090,0.00018093,0.00042210,-0.00002285,0.00016011,0.00023137,0.003
 89432,0.00142951,0.00083085,-0.00019535,-0.00045076,-0.00022380,0.0040
 2330,0.00435666,-0.00163409,-0.00562290,0.00736506,0.00750899,-0.17431
 305,0.13410381,0.07714893,-0.00073445,0.00361577,0.00029013,-0.0000010
 6,-0.00000091,-0.00000067,-0.00000079,0.00000024,-0.00000013,0.0000001
 0,-0.00000064,0.00000020,0.00000035,0.00000198,-0.00000203,-0.00000179
 ,0.00000084,-0.00000078,-0.00000326,-0.00000097,-0.00000961,0.00000470
 ,-0.00000139,-0.00000232,0.00000238,0.00000038,-0.00000103,-0.00000579
 ,-0.00001233,-0.00000183,-0.00000492,-0.00001858,-0.00000970,-0.000028
 69,0.00002563,0.00000842,0.00002842,-0.00001907,-0.00000734,0.00000533
 ,-0.00000657,0.00000332,0.00002100,-0.00012575,-0.00000884,0.00005673,
 -0.00031380,0.00025128,-0.00076246,-0.00061145,-0.00010494,-0.00018659
 ,0.00052756,0.00037760,-0.00198870,-0.00272428,-0.00065187,0.17760523,
 -0.00000079,-0.00000114,0.00000118,-0.00004725,0.00001415,-0.00001090,
 0.00002025,-0.00000712,0.00000438,0.00002933,-0.00000820,0.00000449,0.
 00001251,-0.00000279,0.00000211,-0.00000640,-0.00000777,-0.00000125,-0
 .00001398,-0.00001794,0.00000684,0.00001260,0.00001896,0.00001033,-0.0
 0006049,-0.00000253,0.00001291,0.00000071,0.00001968,0.00000959,0.0000
 1066,-0.00000186,0.00000531,0.00011993,-0.00046175,0.00003528,0.000080
 91,0.00013862,-0.00002340,-0.00002382,-0.00002791,0.00008305,0.0000114
 9,0.00013078,0.00003593,-0.00010285,-0.00005587,-0.00008684,-0.0000156
 6,-0.00003804,-0.00003714,0.00002062,0.00002697,-0.00001744,0.00027789
 ,0.00147643,-0.00043104,-0.00006668,-0.00076180,0.00093791,-0.00010079
 ,-0.00032720,-0.00024477,-0.00126460,-0.00105424,-0.00019603,0.0001120
 4,0.00012674,-0.00033524,-0.00001044,0.00012869,0.00014806,0.00198875,
 0.00329659,0.00108521,-0.00054726,-0.00018828,0.00017050,0.00440428,0.
 00223325,0.00426474,0.01270670,-0.00874961,-0.01027556,0.13266360,-0.1
 5926669,-0.06613277,-0.00083095,0.00322998,0.00115952,-0.00000242,-0.0
 0000127,-0.00000415,-0.00000294,-0.00000049,-0.00000059,0.00000125,-0.
 00000148,0.00000046,-0.00000095,0.00000210,-0.00000451,-0.00000203,0.0
 0000126,-0.00000306,-0.00000515,-0.00000517,-0.00002666,0.00000776,-0.
 00000493,-0.00000144,0.00000285,0.00000107,-0.00000212,-0.00000951,-0.
 00002514,0.00000702,-0.00000912,-0.00002756,-0.00000557,0.00006038,-0.
 00001986,0.00000842,0.00001881,-0.00001253,-0.00000751,0.00000874,-0.0
 0000638,0.00000299,-0.00009636,-0.00000325,-0.00009969,0.00002792,-0.0
 0013055,0.00026915,-0.00064816,-0.00062958,-0.00020722,0.00078260,-0.0
 0039360,-0.00042233,-0.00294832,-0.00150859,-0.00055149,-0.14656580,0.
 16290586,0.00000211,0.00000632,-0.00001311,-0.00006973,-0.00005036,0.0
 0010555,0.00001114,0.00001117,-0.00004819,0.00004807,0.00000662,-0.000
 02127,0.00004761,0.00002049,-0.00003642,-0.00001840,-0.00001073,-0.000
 00552,-0.00002133,-0.00001664,0.00000019,0.00005283,0.00005402,0.00000
 753,-0.00027769,-0.00006711,0.00001086,0.00004594,0.00000631,0.0000080
 6,0.00000895,0.00000566,0.00001167,0.00032136,-0.00043898,0.00004194,0
 .00007175,0.00015287,-0.00008785,-0.00000810,-0.00003827,-0.00000059,-
 0.00000980,-0.00007475,-0.00004086,0.00006689,0.00003758,0.00003460,-0
 .00005336,-0.00004267,0.00000063,0.00003658,0.00001694,-0.00002258,-0.
 00050280,0.00152886,-0.00094875,0.00003881,-0.00059285,0.00087253,0.00
 028194,-0.00060620,-0.00030719,-0.00113826,-0.00017578,0.00317909,0.00
 107135,-0.00098304,-0.00081232,0.00098557,-0.00065307,-0.00202618,-0.0
 0025933,0.00257676,-0.00367584,-0.00042744,0.00054967,-0.00123546,-0.0
 0087964,0.00324084,-0.00125245,-0.01263518,0.01171147,0.01115033,0.077
 10180,-0.06690240,-0.09921152,0.02055179,-0.02017454,-0.00586083,-0.00
 000058,-0.00000403,0.00000713,0.00000209,0.00000373,0.00000012,-0.0000
 0213,-0.00000045,0.00000021,0.00000539,0.00000609,-0.00000643,0.000006
 22,0.00000561,0.00000432,-0.00001608,-0.00001916,-0.00002867,-0.000006
 34,0.00000437,-0.00000077,0.00000843,-0.00000292,-0.00000127,-0.000020
 51,-0.00001244,0.00000645,-0.00000197,-0.00003148,0.00000284,-0.000039
 09,0.00001757,0.00003916,0.00000623,-0.00001830,-0.00000015,-0.0000011
 9,0.00000381,-0.00000263,-0.00002756,0.00015314,0.00004410,0.00004306,
 0.00039712,-0.00003373,-0.00008741,-0.00024057,0.00007367,-0.00057595,
 0.00068102,0.00036549,-0.00038741,-0.00090461,0.00076775,-0.08334869,0
 .07086333,0.09894635\\-0.00000025,-0.00000339,-0.00000333,0.00000539,0
 .00000840,-0.00001762,-0.00000093,-0.00000644,-0.00000132,0.00000173,-
 0.00000568,0.00000066,-0.00001267,-0.00000469,0.00001283,0.00001507,0.
 00000202,-0.00000197,0.00000246,0.00000096,-0.00000095,-0.00000478,-0.
 00000386,-0.00000115,0.00000304,0.00000559,0.00000191,0.00000315,0.000
 00091,-0.00000063,-0.00000747,-0.00000321,-0.00000313,-0.00000641,0.00
 000051,-0.00000219,-0.00000091,-0.00000313,0.00000645,0.00000272,0.000
 01145,-0.00000745,0.00000406,-0.00000126,0.00001284,-0.00000758,-0.000
 00726,-0.00000040,0.00000002,0.00000543,0.00000356,-0.00000548,-0.0000
 0999,0.00000148,-0.00000061,-0.00000248,0.00000002,-0.00000124,0.00000
 335,0.00000145,0.00000704,0.00000496,-0.00000684,-0.00001909,0.0000124
 1,0.00002107,0.00001928,-0.00002659,0.00000417,-0.00000356,0.00000837,
 -0.00001905,0.00000317,0.00000568,0.00000937,0.00000163,0.00000258,-0.
 00000580,-0.00000127,0.00000066,0.00000136,0.00000106,-0.00000103,-0.0
 0000184,-0.00000362,-0.00000216,0.00000084,0.00000236,0.00000367,-0.00
 001140,-0.00000049,-0.00000028,-0.00000112,-0.00000051,-0.00000204,-0.
 00000144,0.00000027,-0.00000087,-0.00000185,-0.00000050,-0.00000027,-0
 .00000122,0.00000124,-0.00000069,-0.00000097,0.00000355,-0.00000001,0.
 00000087,-0.00000086,-0.00000135,0.00000204,-0.00000101,-0.00000219,0.
 00000246,0.00000091,-0.00000060,0.00000058,0.00000161,0.00000185,-0.00
 000120,-0.00000191,-0.00000128,-0.00000218,0.00000092,0.00000110,0.000
 00223,0.00000107,0.00000381,0.00000392,0.00000075,0.00000294,0.0000016
 5,-0.00000247,0.00000166,0.00000444,0.00000071,0.00000161,-0.00000092,
 0.00000033,0.00000047,-0.00000069,0.00000020,-0.00000002,0.00000003,-0
 .00000012,0.00000040,0.00000038\\\@


 Standing in the middle of the road is very dangerous;
 you get knocked down by the traffic from both sides.
                                -- Margaret Thatcher
 Job cpu time:  0 days 18 hours 40 minutes 59.6 seconds.
 File lengths (MBytes):  RWF=   1614 Int=      0 D2E=      0 Chk=     22 Scr=      1
 Normal termination of Gaussian 09 at Thu Sep  1 09:12:09 2022.
