 Entering Gaussian System, Link 0=g09
 Input=Mol16.gjf
 Output=Mol16.log
 Initial command:
 /opt/gaussian/l1.exe /home/scr/lqcapf-6/Gau-151811.inp -scrdir=/home/scr/lqcapf-6/
 Entering Link 1 = /opt/gaussian/l1.exe PID=    151813.
  
 Copyright (c) 1988,1990,1992,1993,1995,1998,2003,2009,2011,
            Gaussian, Inc.  All Rights Reserved.
  
 This is part of the Gaussian(R) 09 program.  It is based on
 the Gaussian(R) 03 system (copyright 2003, Gaussian, Inc.),
 the Gaussian(R) 98 system (copyright 1998, Gaussian, Inc.),
 the Gaussian(R) 94 system (copyright 1995, Gaussian, Inc.),
 the Gaussian 92(TM) system (copyright 1992, Gaussian, Inc.),
 the Gaussian 90(TM) system (copyright 1990, Gaussian, Inc.),
 the Gaussian 88(TM) system (copyright 1988, Gaussian, Inc.),
 the Gaussian 86(TM) system (copyright 1986, Carnegie Mellon
 University), and the Gaussian 82(TM) system (copyright 1983,
 Carnegie Mellon University). Gaussian is a federally registered
 trademark of Gaussian, Inc.
  
 This software contains proprietary and confidential information,
 including trade secrets, belonging to Gaussian, Inc.
  
 This software is provided under written license and may be
 used, copied, transmitted, or stored only in accord with that
 written license.
  
 The following legend is applicable only to US Government
 contracts under FAR:
  
                    RESTRICTED RIGHTS LEGEND
  
 Use, reproduction and disclosure by the US Government is
 subject to restrictions as set forth in subparagraphs (a)
 and (c) of the Commercial Computer Software - Restricted
 Rights clause in FAR 52.227-19.
  
 Gaussian, Inc.
 340 Quinnipiac St., Bldg. 40, Wallingford CT 06492
  
  
 ---------------------------------------------------------------
 Warning -- This program may not be used in any manner that
 competes with the business of Gaussian, Inc. or will provide
 assistance to any competitor of Gaussian, Inc.  The licensee
 of this program is prohibited from giving any competitor of
 Gaussian, Inc. access to this program.  By using this program,
 the user acknowledges that Gaussian, Inc. is engaged in the
 business of creating and licensing software in the field of
 computational chemistry and represents and warrants to the
 licensee that it is not a competitor of Gaussian, Inc. and that
 it will not use this program in any manner prohibited above.
 ---------------------------------------------------------------
  

 Cite this work as:
 Gaussian 09, Revision C.01,
 M. J. Frisch, G. W. Trucks, H. B. Schlegel, G. E. Scuseria, 
 M. A. Robb, J. R. Cheeseman, G. Scalmani, V. Barone, B. Mennucci, 
 G. A. Petersson, H. Nakatsuji, M. Caricato, X. Li, H. P. Hratchian, 
 A. F. Izmaylov, J. Bloino, G. Zheng, J. L. Sonnenberg, M. Hada, 
 M. Ehara, K. Toyota, R. Fukuda, J. Hasegawa, M. Ishida, T. Nakajima, 
 Y. Honda, O. Kitao, H. Nakai, T. Vreven, J. A. Montgomery, Jr., 
 J. E. Peralta, F. Ogliaro, M. Bearpark, J. J. Heyd, E. Brothers, 
 K. N. Kudin, V. N. Staroverov, T. Keith, R. Kobayashi, J. Normand, 
 K. Raghavachari, A. Rendell, J. C. Burant, S. S. Iyengar, J. Tomasi, 
 M. Cossi, N. Rega, J. M. Millam, M. Klene, J. E. Knox, J. B. Cross, 
 V. Bakken, C. Adamo, J. Jaramillo, R. Gomperts, R. E. Stratmann, 
 O. Yazyev, A. J. Austin, R. Cammi, C. Pomelli, J. W. Ochterski, 
 R. L. Martin, K. Morokuma, V. G. Zakrzewski, G. A. Voth, 
 P. Salvador, J. J. Dannenberg, S. Dapprich, A. D. Daniels, 
 O. Farkas, J. B. Foresman, J. V. Ortiz, J. Cioslowski, 
 and D. J. Fox, Gaussian, Inc., Wallingford CT, 2010.
 
 ******************************************
 Gaussian 09:  EM64L-G09RevC.01 23-Sep-2011
                 2-Sep-2022 
 ******************************************
 %nprocshared=8
 Will use up to    8 processors via shared memory.
 %mem=1600MB
 -------------------------
 #p opt freq b3lyp/cc-pvdz
 -------------------------
 1/14=-1,18=20,19=15,26=3,38=1/1,3;
 2/9=110,12=2,17=6,18=5,40=1/2;
 3/5=16,11=2,16=1,25=1,30=1,71=1,74=-5/1,2,3;
 4//1;
 5/5=2,38=5/2;
 6/7=2,8=2,9=2,10=2,28=1/1;
 7//1,2,3,16;
 1/14=-1,18=20,19=15/3(2);
 2/9=110/2;
 99//99;
 2/9=110/2;
 3/5=16,11=2,16=1,25=1,30=1,71=1,74=-5/1,2,3;
 4/5=5,16=3/1;
 5/5=2,38=5/2;
 7//1,2,3,16;
 1/14=-1,18=20,19=15/3(-5);
 2/9=110/2;
 6/7=2,8=2,9=2,10=2,19=2,28=1/1;
 99/9=1/99;
 Leave Link    1 at Fri Sep  2 17:02:32 2022, MaxMem=  209715200 cpu:       0.2
 (Enter /opt/gaussian/l101.exe)
 ---------
 Mol16.log
 ---------
 Charge =  0 Multiplicity = 1
 Symbolic Z-Matrix:
 C                     5.81098   0.35494   3.0556 
 O                     5.11024   0.11224   1.82183 
 C                     5.71957  -0.54553   0.80834 
 N                     6.98558  -0.87118   0.94962 
 C                     7.62458  -1.51791  -0.03152 
 C                     6.99283  -1.85823  -1.20423 
 C                     5.64945  -1.51334  -1.34795 
 C                     4.96691  -0.84968  -0.34128 
 C                     3.52847  -0.50911  -0.48825 
 C                     2.64132  -1.44438  -1.02 
 C                     1.30553  -1.14307  -1.22029 
 C                     0.81665   0.10942  -0.87406 
 C                     1.68654   1.04632  -0.33061 
 C                     3.02491   0.74203  -0.14402 
 N                    -0.55662   0.45737  -1.11924 
 C                    -0.82715   1.74065  -1.77198 
 C                    -1.31258   2.83862  -0.85382 
 C                    -1.79539   4.10005  -1.38125 
 C                    -2.1789    4.97334  -0.43841 
 S                    -1.97623   4.3037    1.20592 
 C                    -1.34622   2.78978   0.48946 
 C                    -1.56314  -0.40133  -0.7547 
 O                    -1.36364  -1.4224   -0.11528 
 C                    -2.9781   -0.03118  -1.1858 
 N                    -3.92675  -1.0492   -0.85408 
 N                    -4.35596  -1.90705  -1.82298 
 N                    -5.15928  -2.74819  -1.31838 
 C                    -5.29216  -2.48487   0.03555 
 C                    -6.0571   -3.12009   1.01325 
 C                    -5.98598  -2.62055   2.29022 
 C                    -5.16534  -1.51072   2.59328 
 C                    -4.40633  -0.8811    1.63633 
 C                    -4.48863  -1.39299   0.33873 
 H                     6.67356   0.97909   2.88442 
 H                     5.09507   0.85332   3.68569 
 H                     6.12772  -0.57616   3.49837 
 H                     8.6532   -1.75218   0.14854 
 H                     7.518    -2.36934  -1.98491 
 H                     5.13371  -1.75404  -2.25683 
 H                     2.99108  -2.42757  -1.26845 
 H                     0.64601  -1.88706  -1.61374 
 H                     1.32668   2.01477  -0.04621 
 H                     3.67383   1.4752    0.28652 
 H                     0.0915    2.05216  -2.24873 
 H                    -1.54446   1.60593  -2.57264 
 H                    -1.84173   4.31522  -2.4303 
 H                    -2.5679    5.95781  -0.56831 
 H                    -1.03883   1.99107   1.12657 
 H                    -3.27354   0.90601  -0.73465 
 H                    -3.01965   0.08449  -2.25837 
 H                    -6.66943  -3.96266   0.76273 
 H                    -6.55457  -3.07577   3.07684 
 H                    -5.1319   -1.15551   3.60498 
 H                    -3.77448  -0.05144   1.88112 
 
 NAtoms=     54 NQM=        0 NQMF=       0 NMMI=     54 NMMIF=      0
                NMic=       0 NMicF=      0.
                    Isotopes and Nuclear Properties:
 (Nuclear quadrupole moments (NQMom) in fm**2, nuclear magnetic moments (NMagM)
  in nuclear magnetons)

  Atom         1           2           3           4           5           6           7           8           9          10
 IAtWgt=          12          16          12          14          12          12          12          12          12          12
 AtmWgt=  12.0000000  15.9949146  12.0000000  14.0030740  12.0000000  12.0000000  12.0000000  12.0000000  12.0000000  12.0000000
 NucSpn=           0           0           0           2           0           0           0           0           0           0
 AtZEff=   0.0000000   0.0000000   0.0000000   0.0000000   0.0000000   0.0000000   0.0000000   0.0000000   0.0000000   0.0000000
 NQMom=    0.0000000   0.0000000   0.0000000   2.0440000   0.0000000   0.0000000   0.0000000   0.0000000   0.0000000   0.0000000
 NMagM=    0.0000000   0.0000000   0.0000000   0.4037610   0.0000000   0.0000000   0.0000000   0.0000000   0.0000000   0.0000000

  Atom        11          12          13          14          15          16          17          18          19          20
 IAtWgt=          12          12          12          12          14          12          12          12          12          32
 AtmWgt=  12.0000000  12.0000000  12.0000000  12.0000000  14.0030740  12.0000000  12.0000000  12.0000000  12.0000000  31.9720718
 NucSpn=           0           0           0           0           2           0           0           0           0           0
 AtZEff=   0.0000000   0.0000000   0.0000000   0.0000000   0.0000000   0.0000000   0.0000000   0.0000000   0.0000000   0.0000000
 NQMom=    0.0000000   0.0000000   0.0000000   0.0000000   2.0440000   0.0000000   0.0000000   0.0000000   0.0000000   0.0000000
 NMagM=    0.0000000   0.0000000   0.0000000   0.0000000   0.4037610   0.0000000   0.0000000   0.0000000   0.0000000   0.0000000

  Atom        21          22          23          24          25          26          27          28          29          30
 IAtWgt=          12          12          16          12          14          14          14          12          12          12
 AtmWgt=  12.0000000  12.0000000  15.9949146  12.0000000  14.0030740  14.0030740  14.0030740  12.0000000  12.0000000  12.0000000
 NucSpn=           0           0           0           0           2           2           2           0           0           0
 AtZEff=   0.0000000   0.0000000   0.0000000   0.0000000   0.0000000   0.0000000   0.0000000   0.0000000   0.0000000   0.0000000
 NQMom=    0.0000000   0.0000000   0.0000000   0.0000000   2.0440000   2.0440000   2.0440000   0.0000000   0.0000000   0.0000000
 NMagM=    0.0000000   0.0000000   0.0000000   0.0000000   0.4037610   0.4037610   0.4037610   0.0000000   0.0000000   0.0000000

  Atom        31          32          33          34          35          36          37          38          39          40
 IAtWgt=          12          12          12           1           1           1           1           1           1           1
 AtmWgt=  12.0000000  12.0000000  12.0000000   1.0078250   1.0078250   1.0078250   1.0078250   1.0078250   1.0078250   1.0078250
 NucSpn=           0           0           0           1           1           1           1           1           1           1
 AtZEff=   0.0000000   0.0000000   0.0000000   0.0000000   0.0000000   0.0000000   0.0000000   0.0000000   0.0000000   0.0000000
 NQMom=    0.0000000   0.0000000   0.0000000   0.0000000   0.0000000   0.0000000   0.0000000   0.0000000   0.0000000   0.0000000
 NMagM=    0.0000000   0.0000000   0.0000000   2.7928460   2.7928460   2.7928460   2.7928460   2.7928460   2.7928460   2.7928460

  Atom        41          42          43          44          45          46          47          48          49          50
 IAtWgt=           1           1           1           1           1           1           1           1           1           1
 AtmWgt=   1.0078250   1.0078250   1.0078250   1.0078250   1.0078250   1.0078250   1.0078250   1.0078250   1.0078250   1.0078250
 NucSpn=           1           1           1           1           1           1           1           1           1           1
 AtZEff=   0.0000000   0.0000000   0.0000000   0.0000000   0.0000000   0.0000000   0.0000000   0.0000000   0.0000000   0.0000000
 NQMom=    0.0000000   0.0000000   0.0000000   0.0000000   0.0000000   0.0000000   0.0000000   0.0000000   0.0000000   0.0000000
 NMagM=    2.7928460   2.7928460   2.7928460   2.7928460   2.7928460   2.7928460   2.7928460   2.7928460   2.7928460   2.7928460

  Atom        51          52          53          54
 IAtWgt=           1           1           1           1
 AtmWgt=   1.0078250   1.0078250   1.0078250   1.0078250
 NucSpn=           1           1           1           1
 AtZEff=   0.0000000   0.0000000   0.0000000   0.0000000
 NQMom=    0.0000000   0.0000000   0.0000000   0.0000000
 NMagM=    2.7928460   2.7928460   2.7928460   2.7928460
 Leave Link  101 at Fri Sep  2 17:02:32 2022, MaxMem=  209715200 cpu:       1.1
 (Enter /opt/gaussian/l103.exe)

 GradGradGradGradGradGradGradGradGradGradGradGradGradGradGradGradGradGrad
 Berny optimization.
 Initialization pass.
                           ----------------------------
                           !    Initial Parameters    !
                           ! (Angstroms and Degrees)  !
 --------------------------                            --------------------------
 ! Name  Definition              Value          Derivative Info.                !
 --------------------------------------------------------------------------------
 ! R1    R(1,2)                  1.4395         estimate D2E/DX2                !
 ! R2    R(1,34)                 1.0784         estimate D2E/DX2                !
 ! R3    R(1,35)                 1.0761         estimate D2E/DX2                !
 ! R4    R(1,36)                 1.0786         estimate D2E/DX2                !
 ! R5    R(2,3)                  1.3532         estimate D2E/DX2                !
 ! R6    R(3,4)                  1.3148         estimate D2E/DX2                !
 ! R7    R(3,8)                  1.4073         estimate D2E/DX2                !
 ! R8    R(4,5)                  1.3376         estimate D2E/DX2                !
 ! R9    R(5,6)                  1.3748         estimate D2E/DX2                !
 ! R10   R(5,37)                 1.0702         estimate D2E/DX2                !
 ! R11   R(6,7)                  1.3944         estimate D2E/DX2                !
 ! R12   R(6,38)                 1.0707         estimate D2E/DX2                !
 ! R13   R(7,8)                  1.3855         estimate D2E/DX2                !
 ! R14   R(7,39)                 1.0724         estimate D2E/DX2                !
 ! R15   R(8,9)                  1.4855         estimate D2E/DX2                !
 ! R16   R(9,10)                 1.3945         estimate D2E/DX2                !
 ! R17   R(9,14)                 1.3919         estimate D2E/DX2                !
 ! R18   R(10,11)                1.3839         estimate D2E/DX2                !
 ! R19   R(10,40)                1.0727         estimate D2E/DX2                !
 ! R20   R(11,12)                1.3884         estimate D2E/DX2                !
 ! R21   R(11,41)                1.0692         estimate D2E/DX2                !
 ! R22   R(12,13)                1.3892         estimate D2E/DX2                !
 ! R23   R(12,15)                1.4377         estimate D2E/DX2                !
 ! R24   R(13,14)                1.3852         estimate D2E/DX2                !
 ! R25   R(13,42)                1.0716         estimate D2E/DX2                !
 ! R26   R(14,43)                1.0696         estimate D2E/DX2                !
 ! R27   R(15,16)                1.4649         estimate D2E/DX2                !
 ! R28   R(15,22)                1.3723         estimate D2E/DX2                !
 ! R29   R(16,17)                1.5114         estimate D2E/DX2                !
 ! R30   R(16,44)                1.0809         estimate D2E/DX2                !
 ! R31   R(16,45)                1.0834         estimate D2E/DX2                !
 ! R32   R(17,18)                1.45           estimate D2E/DX2                !
 ! R33   R(17,21)                1.3446         estimate D2E/DX2                !
 ! R34   R(18,19)                1.3411         estimate D2E/DX2                !
 ! R35   R(18,46)                1.0719         estimate D2E/DX2                !
 ! R36   R(19,20)                1.787          estimate D2E/DX2                !
 ! R37   R(19,47)                1.0665         estimate D2E/DX2                !
 ! R38   R(20,21)                1.7895         estimate D2E/DX2                !
 ! R39   R(21,48)                1.0669         estimate D2E/DX2                !
 ! R40   R(22,23)                1.2212         estimate D2E/DX2                !
 ! R41   R(22,24)                1.5248         estimate D2E/DX2                !
 ! R42   R(24,25)                1.4305         estimate D2E/DX2                !
 ! R43   R(24,49)                1.0813         estimate D2E/DX2                !
 ! R44   R(24,50)                1.0796         estimate D2E/DX2                !
 ! R45   R(25,26)                1.3634         estimate D2E/DX2                !
 ! R46   R(25,33)                1.3626         estimate D2E/DX2                !
 ! R47   R(26,27)                1.2679         estimate D2E/DX2                !
 ! R48   R(27,28)                1.3857         estimate D2E/DX2                !
 ! R49   R(28,29)                1.3945         estimate D2E/DX2                !
 ! R50   R(28,33)                1.3892         estimate D2E/DX2                !
 ! R51   R(29,30)                1.373          estimate D2E/DX2                !
 ! R52   R(29,51)                1.0713         estimate D2E/DX2                !
 ! R53   R(30,31)                1.4132         estimate D2E/DX2                !
 ! R54   R(30,52)                1.072          estimate D2E/DX2                !
 ! R55   R(31,32)                1.3741         estimate D2E/DX2                !
 ! R56   R(31,53)                1.0728         estimate D2E/DX2                !
 ! R57   R(32,33)                1.3973         estimate D2E/DX2                !
 ! R58   R(32,54)                1.0712         estimate D2E/DX2                !
 ! A1    A(2,1,34)             110.5431         estimate D2E/DX2                !
 ! A2    A(2,1,35)             104.838          estimate D2E/DX2                !
 ! A3    A(2,1,36)             110.4418         estimate D2E/DX2                !
 ! A4    A(34,1,35)            110.9191         estimate D2E/DX2                !
 ! A5    A(34,1,36)            109.2635         estimate D2E/DX2                !
 ! A6    A(35,1,36)            110.7826         estimate D2E/DX2                !
 ! A7    A(1,2,3)              120.3104         estimate D2E/DX2                !
 ! A8    A(2,3,4)              118.2609         estimate D2E/DX2                !
 ! A9    A(2,3,8)              118.4271         estimate D2E/DX2                !
 ! A10   A(4,3,8)              123.3118         estimate D2E/DX2                !
 ! A11   A(3,4,5)              120.0602         estimate D2E/DX2                !
 ! A12   A(4,5,6)              121.724          estimate D2E/DX2                !
 ! A13   A(4,5,37)             116.2045         estimate D2E/DX2                !
 ! A14   A(6,5,37)             122.0714         estimate D2E/DX2                !
 ! A15   A(5,6,7)              117.9951         estimate D2E/DX2                !
 ! A16   A(5,6,38)             120.9768         estimate D2E/DX2                !
 ! A17   A(7,6,38)             121.0277         estimate D2E/DX2                !
 ! A18   A(6,7,8)              121.2112         estimate D2E/DX2                !
 ! A19   A(6,7,39)             119.6819         estimate D2E/DX2                !
 ! A20   A(8,7,39)             119.1032         estimate D2E/DX2                !
 ! A21   A(3,8,7)              115.6941         estimate D2E/DX2                !
 ! A22   A(3,8,9)              123.3078         estimate D2E/DX2                !
 ! A23   A(7,8,9)              120.994          estimate D2E/DX2                !
 ! A24   A(8,9,10)             120.0002         estimate D2E/DX2                !
 ! A25   A(8,9,14)             122.1356         estimate D2E/DX2                !
 ! A26   A(10,9,14)            117.8408         estimate D2E/DX2                !
 ! A27   A(9,10,11)            121.5492         estimate D2E/DX2                !
 ! A28   A(9,10,40)            119.7103         estimate D2E/DX2                !
 ! A29   A(11,10,40)           118.7339         estimate D2E/DX2                !
 ! A30   A(10,11,12)           120.0129         estimate D2E/DX2                !
 ! A31   A(10,11,41)           119.8095         estimate D2E/DX2                !
 ! A32   A(12,11,41)           120.1505         estimate D2E/DX2                !
 ! A33   A(11,12,13)           119.0436         estimate D2E/DX2                !
 ! A34   A(11,12,15)           120.8061         estimate D2E/DX2                !
 ! A35   A(13,12,15)           120.1064         estimate D2E/DX2                !
 ! A36   A(12,13,14)           120.6359         estimate D2E/DX2                !
 ! A37   A(12,13,42)           120.2025         estimate D2E/DX2                !
 ! A38   A(14,13,42)           119.1611         estimate D2E/DX2                !
 ! A39   A(9,14,13)            120.911          estimate D2E/DX2                !
 ! A40   A(9,14,43)            119.7494         estimate D2E/DX2                !
 ! A41   A(13,14,43)           119.331          estimate D2E/DX2                !
 ! A42   A(12,15,16)           117.67           estimate D2E/DX2                !
 ! A43   A(12,15,22)           120.2529         estimate D2E/DX2                !
 ! A44   A(16,15,22)           122.0757         estimate D2E/DX2                !
 ! A45   A(15,16,17)           115.1516         estimate D2E/DX2                !
 ! A46   A(15,16,44)           106.9806         estimate D2E/DX2                !
 ! A47   A(15,16,45)           110.0372         estimate D2E/DX2                !
 ! A48   A(17,16,44)           109.3643         estimate D2E/DX2                !
 ! A49   A(17,16,45)           109.0654         estimate D2E/DX2                !
 ! A50   A(44,16,45)           105.8189         estimate D2E/DX2                !
 ! A51   A(16,17,18)           121.1963         estimate D2E/DX2                !
 ! A52   A(16,17,21)           126.0551         estimate D2E/DX2                !
 ! A53   A(18,17,21)           112.7469         estimate D2E/DX2                !
 ! A54   A(17,18,19)           113.952          estimate D2E/DX2                !
 ! A55   A(17,18,46)           123.0262         estimate D2E/DX2                !
 ! A56   A(19,18,46)           123.0218         estimate D2E/DX2                !
 ! A57   A(18,19,20)           111.7435         estimate D2E/DX2                !
 ! A58   A(18,19,47)           128.2984         estimate D2E/DX2                !
 ! A59   A(20,19,47)           119.9579         estimate D2E/DX2                !
 ! A60   A(19,20,21)            89.3436         estimate D2E/DX2                !
 ! A61   A(17,21,20)           112.2139         estimate D2E/DX2                !
 ! A62   A(17,21,48)           128.0644         estimate D2E/DX2                !
 ! A63   A(20,21,48)           119.715          estimate D2E/DX2                !
 ! A64   A(15,22,23)           122.8512         estimate D2E/DX2                !
 ! A65   A(15,22,24)           116.9752         estimate D2E/DX2                !
 ! A66   A(23,22,24)           120.1736         estimate D2E/DX2                !
 ! A67   A(22,24,25)           112.1525         estimate D2E/DX2                !
 ! A68   A(22,24,49)           110.2426         estimate D2E/DX2                !
 ! A69   A(22,24,50)           110.0362         estimate D2E/DX2                !
 ! A70   A(25,24,49)           109.8081         estimate D2E/DX2                !
 ! A71   A(25,24,50)           106.3264         estimate D2E/DX2                !
 ! A72   A(49,24,50)           108.1283         estimate D2E/DX2                !
 ! A73   A(24,25,26)           119.4551         estimate D2E/DX2                !
 ! A74   A(24,25,33)           130.9958         estimate D2E/DX2                !
 ! A75   A(26,25,33)           109.4831         estimate D2E/DX2                !
 ! A76   A(25,26,27)           109.5153         estimate D2E/DX2                !
 ! A77   A(26,27,28)           108.8785         estimate D2E/DX2                !
 ! A78   A(27,28,29)           130.6247         estimate D2E/DX2                !
 ! A79   A(27,28,33)           107.8869         estimate D2E/DX2                !
 ! A80   A(29,28,33)           121.4883         estimate D2E/DX2                !
 ! A81   A(28,29,30)           117.2533         estimate D2E/DX2                !
 ! A82   A(28,29,51)           120.5218         estimate D2E/DX2                !
 ! A83   A(30,29,51)           122.2249         estimate D2E/DX2                !
 ! A84   A(29,30,31)           121.0146         estimate D2E/DX2                !
 ! A85   A(29,30,52)           120.0299         estimate D2E/DX2                !
 ! A86   A(31,30,52)           118.9549         estimate D2E/DX2                !
 ! A87   A(30,31,32)           122.0902         estimate D2E/DX2                !
 ! A88   A(30,31,53)           118.7111         estimate D2E/DX2                !
 ! A89   A(32,31,53)           119.1976         estimate D2E/DX2                !
 ! A90   A(31,32,33)           116.5069         estimate D2E/DX2                !
 ! A91   A(31,32,54)           121.4353         estimate D2E/DX2                !
 ! A92   A(33,32,54)           122.0508         estimate D2E/DX2                !
 ! A93   A(25,33,28)           104.2278         estimate D2E/DX2                !
 ! A94   A(25,33,32)           134.122          estimate D2E/DX2                !
 ! A95   A(28,33,32)           121.646          estimate D2E/DX2                !
 ! D1    D(34,1,2,3)            62.376          estimate D2E/DX2                !
 ! D2    D(35,1,2,3)          -178.0381         estimate D2E/DX2                !
 ! D3    D(36,1,2,3)           -58.6663         estimate D2E/DX2                !
 ! D4    D(1,2,3,4)             -4.5327         estimate D2E/DX2                !
 ! D5    D(1,2,3,8)            175.3028         estimate D2E/DX2                !
 ! D6    D(2,3,4,5)           -179.7744         estimate D2E/DX2                !
 ! D7    D(8,3,4,5)              0.3987         estimate D2E/DX2                !
 ! D8    D(2,3,8,7)            179.4647         estimate D2E/DX2                !
 ! D9    D(2,3,8,9)             -1.2667         estimate D2E/DX2                !
 ! D10   D(4,3,8,7)             -0.7086         estimate D2E/DX2                !
 ! D11   D(4,3,8,9)            178.5599         estimate D2E/DX2                !
 ! D12   D(3,4,5,6)              0.1007         estimate D2E/DX2                !
 ! D13   D(3,4,5,37)           179.979          estimate D2E/DX2                !
 ! D14   D(4,5,6,7)             -0.241          estimate D2E/DX2                !
 ! D15   D(4,5,6,38)           179.5263         estimate D2E/DX2                !
 ! D16   D(37,5,6,7)           179.8878         estimate D2E/DX2                !
 ! D17   D(37,5,6,38)           -0.3449         estimate D2E/DX2                !
 ! D18   D(5,6,7,8)             -0.1068         estimate D2E/DX2                !
 ! D19   D(5,6,7,39)           179.1866         estimate D2E/DX2                !
 ! D20   D(38,6,7,8)          -179.874          estimate D2E/DX2                !
 ! D21   D(38,6,7,39)           -0.5807         estimate D2E/DX2                !
 ! D22   D(6,7,8,3)              0.5451         estimate D2E/DX2                !
 ! D23   D(6,7,8,9)           -178.7417         estimate D2E/DX2                !
 ! D24   D(39,7,8,3)          -178.7522         estimate D2E/DX2                !
 ! D25   D(39,7,8,9)             1.961          estimate D2E/DX2                !
 ! D26   D(3,8,9,10)          -136.1696         estimate D2E/DX2                !
 ! D27   D(3,8,9,14)            45.6283         estimate D2E/DX2                !
 ! D28   D(7,8,9,10)            43.0615         estimate D2E/DX2                !
 ! D29   D(7,8,9,14)          -135.1407         estimate D2E/DX2                !
 ! D30   D(8,9,10,11)         -177.4093         estimate D2E/DX2                !
 ! D31   D(8,9,10,40)            3.5368         estimate D2E/DX2                !
 ! D32   D(14,9,10,11)           0.869          estimate D2E/DX2                !
 ! D33   D(14,9,10,40)        -178.1849         estimate D2E/DX2                !
 ! D34   D(8,9,14,13)          177.9621         estimate D2E/DX2                !
 ! D35   D(8,9,14,43)           -3.1135         estimate D2E/DX2                !
 ! D36   D(10,9,14,13)          -0.2771         estimate D2E/DX2                !
 ! D37   D(10,9,14,43)         178.6473         estimate D2E/DX2                !
 ! D38   D(9,10,11,12)          -0.8089         estimate D2E/DX2                !
 ! D39   D(9,10,11,41)        -178.92           estimate D2E/DX2                !
 ! D40   D(40,10,11,12)        178.254          estimate D2E/DX2                !
 ! D41   D(40,10,11,41)          0.1429         estimate D2E/DX2                !
 ! D42   D(10,11,12,13)          0.1373         estimate D2E/DX2                !
 ! D43   D(10,11,12,15)        177.7317         estimate D2E/DX2                !
 ! D44   D(41,11,12,13)        178.242          estimate D2E/DX2                !
 ! D45   D(41,11,12,15)         -4.1637         estimate D2E/DX2                !
 ! D46   D(11,12,13,14)          0.4444         estimate D2E/DX2                !
 ! D47   D(11,12,13,42)       -179.2897         estimate D2E/DX2                !
 ! D48   D(15,12,13,14)       -177.1672         estimate D2E/DX2                !
 ! D49   D(15,12,13,42)          3.0987         estimate D2E/DX2                !
 ! D50   D(11,12,15,16)       -131.7314         estimate D2E/DX2                !
 ! D51   D(11,12,15,22)         47.8391         estimate D2E/DX2                !
 ! D52   D(13,12,15,16)         45.8375         estimate D2E/DX2                !
 ! D53   D(13,12,15,22)       -134.592          estimate D2E/DX2                !
 ! D54   D(12,13,14,9)          -0.3729         estimate D2E/DX2                !
 ! D55   D(12,13,14,43)       -179.3017         estimate D2E/DX2                !
 ! D56   D(42,13,14,9)         179.364          estimate D2E/DX2                !
 ! D57   D(42,13,14,43)          0.4352         estimate D2E/DX2                !
 ! D58   D(12,15,16,17)       -103.0957         estimate D2E/DX2                !
 ! D59   D(12,15,16,44)         18.6654         estimate D2E/DX2                !
 ! D60   D(12,15,16,45)        133.1693         estimate D2E/DX2                !
 ! D61   D(22,15,16,17)         77.3422         estimate D2E/DX2                !
 ! D62   D(22,15,16,44)       -160.8967         estimate D2E/DX2                !
 ! D63   D(22,15,16,45)        -46.3928         estimate D2E/DX2                !
 ! D64   D(12,15,22,23)          6.5064         estimate D2E/DX2                !
 ! D65   D(12,15,22,24)       -173.4479         estimate D2E/DX2                !
 ! D66   D(16,15,22,23)       -173.9426         estimate D2E/DX2                !
 ! D67   D(16,15,22,24)          6.1031         estimate D2E/DX2                !
 ! D68   D(15,16,17,18)       -171.352          estimate D2E/DX2                !
 ! D69   D(15,16,17,21)          9.15           estimate D2E/DX2                !
 ! D70   D(44,16,17,18)         68.1835         estimate D2E/DX2                !
 ! D71   D(44,16,17,21)       -111.3145         estimate D2E/DX2                !
 ! D72   D(45,16,17,18)        -47.1051         estimate D2E/DX2                !
 ! D73   D(45,16,17,21)        133.397          estimate D2E/DX2                !
 ! D74   D(16,17,18,19)       -179.4521         estimate D2E/DX2                !
 ! D75   D(16,17,18,46)          0.554          estimate D2E/DX2                !
 ! D76   D(21,17,18,19)          0.1078         estimate D2E/DX2                !
 ! D77   D(21,17,18,46)       -179.886          estimate D2E/DX2                !
 ! D78   D(16,17,21,20)        179.4437         estimate D2E/DX2                !
 ! D79   D(16,17,21,48)          0.4003         estimate D2E/DX2                !
 ! D80   D(18,17,21,20)         -0.0907         estimate D2E/DX2                !
 ! D81   D(18,17,21,48)       -179.1341         estimate D2E/DX2                !
 ! D82   D(17,18,19,20)         -0.0721         estimate D2E/DX2                !
 ! D83   D(17,18,19,47)       -179.8992         estimate D2E/DX2                !
 ! D84   D(46,18,19,20)        179.9217         estimate D2E/DX2                !
 ! D85   D(46,18,19,47)          0.0946         estimate D2E/DX2                !
 ! D86   D(18,19,20,21)          0.0182         estimate D2E/DX2                !
 ! D87   D(47,19,20,21)        179.8615         estimate D2E/DX2                !
 ! D88   D(19,20,21,17)          0.0435         estimate D2E/DX2                !
 ! D89   D(19,20,21,48)        179.1763         estimate D2E/DX2                !
 ! D90   D(15,22,24,25)        174.9608         estimate D2E/DX2                !
 ! D91   D(15,22,24,49)        -62.3486         estimate D2E/DX2                !
 ! D92   D(15,22,24,50)         56.8265         estimate D2E/DX2                !
 ! D93   D(23,22,24,25)         -4.9948         estimate D2E/DX2                !
 ! D94   D(23,22,24,49)        117.6959         estimate D2E/DX2                !
 ! D95   D(23,22,24,50)       -123.129          estimate D2E/DX2                !
 ! D96   D(22,24,25,26)       -101.0728         estimate D2E/DX2                !
 ! D97   D(22,24,25,33)         75.6334         estimate D2E/DX2                !
 ! D98   D(49,24,25,26)        135.9909         estimate D2E/DX2                !
 ! D99   D(49,24,25,33)        -47.3029         estimate D2E/DX2                !
 ! D100  D(50,24,25,26)         19.2399         estimate D2E/DX2                !
 ! D101  D(50,24,25,33)       -164.0539         estimate D2E/DX2                !
 ! D102  D(24,25,26,27)        178.2468         estimate D2E/DX2                !
 ! D103  D(33,25,26,27)          0.8832         estimate D2E/DX2                !
 ! D104  D(24,25,33,28)       -177.8772         estimate D2E/DX2                !
 ! D105  D(24,25,33,32)          2.8833         estimate D2E/DX2                !
 ! D106  D(26,25,33,28)         -0.9192         estimate D2E/DX2                !
 ! D107  D(26,25,33,32)        179.8413         estimate D2E/DX2                !
 ! D108  D(25,26,27,28)         -0.4407         estimate D2E/DX2                !
 ! D109  D(26,27,28,29)        179.7265         estimate D2E/DX2                !
 ! D110  D(26,27,28,33)         -0.1439         estimate D2E/DX2                !
 ! D111  D(27,28,29,30)       -179.7443         estimate D2E/DX2                !
 ! D112  D(27,28,29,51)          0.3084         estimate D2E/DX2                !
 ! D113  D(33,28,29,30)          0.1111         estimate D2E/DX2                !
 ! D114  D(33,28,29,51)       -179.8362         estimate D2E/DX2                !
 ! D115  D(27,28,33,25)          0.6518         estimate D2E/DX2                !
 ! D116  D(27,28,33,32)       -179.9895         estimate D2E/DX2                !
 ! D117  D(29,28,33,25)       -179.2329         estimate D2E/DX2                !
 ! D118  D(29,28,33,32)          0.1257         estimate D2E/DX2                !
 ! D119  D(28,29,30,31)         -0.2035         estimate D2E/DX2                !
 ! D120  D(28,29,30,52)       -179.9114         estimate D2E/DX2                !
 ! D121  D(51,29,30,31)        179.7428         estimate D2E/DX2                !
 ! D122  D(51,29,30,52)          0.0349         estimate D2E/DX2                !
 ! D123  D(29,30,31,32)          0.0655         estimate D2E/DX2                !
 ! D124  D(29,30,31,53)       -179.5374         estimate D2E/DX2                !
 ! D125  D(52,30,31,32)        179.7764         estimate D2E/DX2                !
 ! D126  D(52,30,31,53)          0.1735         estimate D2E/DX2                !
 ! D127  D(30,31,32,33)          0.1664         estimate D2E/DX2                !
 ! D128  D(30,31,32,54)       -178.8964         estimate D2E/DX2                !
 ! D129  D(53,31,32,33)        179.7673         estimate D2E/DX2                !
 ! D130  D(53,31,32,54)          0.7046         estimate D2E/DX2                !
 ! D131  D(31,32,33,25)        178.8745         estimate D2E/DX2                !
 ! D132  D(31,32,33,28)         -0.2594         estimate D2E/DX2                !
 ! D133  D(54,32,33,25)         -2.0689         estimate D2E/DX2                !
 ! D134  D(54,32,33,28)        178.7971         estimate D2E/DX2                !
 --------------------------------------------------------------------------------
 Trust Radius=3.00D-01 FncErr=1.00D-07 GrdErr=1.00D-06
 Number of steps in this run=    297 maximum allowed number of steps=    324.
 GradGradGradGradGradGradGradGradGradGradGradGradGradGradGradGradGradGrad

 Leave Link  103 at Fri Sep  2 17:02:32 2022, MaxMem=  209715200 cpu:       0.1
 (Enter /opt/gaussian/l202.exe)
 Stoichiometry    C25H21N5O2S
 Framework group  C1[X(C25H21N5O2S)]
 Deg. of freedom   156
 Full point group                 C1      NOp   1
 Largest Abelian subgroup         C1      NOp   1
 Largest concise Abelian subgroup C1      NOp   1
                         Standard orientation:                         
 ---------------------------------------------------------------------
 Center     Atomic      Atomic             Coordinates (Angstroms)
 Number     Number       Type             X           Y           Z
 ---------------------------------------------------------------------
      1          6           0        5.810980    0.354940    3.055601
      2          8           0        5.110240    0.112240    1.821831
      3          6           0        5.719570   -0.545530    0.808341
      4          7           0        6.985580   -0.871180    0.949621
      5          6           0        7.624580   -1.517910   -0.031519
      6          6           0        6.992830   -1.858230   -1.204229
      7          6           0        5.649450   -1.513340   -1.347949
      8          6           0        4.966910   -0.849680   -0.341279
      9          6           0        3.528470   -0.509110   -0.488249
     10          6           0        2.641320   -1.444380   -1.019999
     11          6           0        1.305530   -1.143070   -1.220289
     12          6           0        0.816650    0.109420   -0.874059
     13          6           0        1.686540    1.046320   -0.330609
     14          6           0        3.024910    0.742030   -0.144019
     15          7           0       -0.556620    0.457370   -1.119239
     16          6           0       -0.827150    1.740650   -1.771979
     17          6           0       -1.312580    2.838620   -0.853819
     18          6           0       -1.795390    4.100050   -1.381249
     19          6           0       -2.178900    4.973340   -0.438409
     20         16           0       -1.976230    4.303700    1.205921
     21          6           0       -1.346220    2.789780    0.489461
     22          6           0       -1.563140   -0.401330   -0.754699
     23          8           0       -1.363640   -1.422400   -0.115279
     24          6           0       -2.978100   -0.031180   -1.185799
     25          7           0       -3.926750   -1.049200   -0.854079
     26          7           0       -4.355961   -1.907050   -1.822979
     27          7           0       -5.159281   -2.748189   -1.318379
     28          6           0       -5.292161   -2.484869    0.035551
     29          6           0       -6.057101   -3.120089    1.013251
     30          6           0       -5.985981   -2.620549    2.290221
     31          6           0       -5.165340   -1.510719    2.593281
     32          6           0       -4.406330   -0.881100    1.636331
     33          6           0       -4.488630   -1.392990    0.338731
     34          1           0        6.673560    0.979090    2.884421
     35          1           0        5.095070    0.853320    3.685691
     36          1           0        6.127720   -0.576160    3.498371
     37          1           0        8.653200   -1.752180    0.148541
     38          1           0        7.517999   -2.369340   -1.984909
     39          1           0        5.133710   -1.754040   -2.256829
     40          1           0        2.991079   -2.427570   -1.268449
     41          1           0        0.646010   -1.887060   -1.613739
     42          1           0        1.326680    2.014770   -0.046209
     43          1           0        3.673830    1.475200    0.286521
     44          1           0        0.091500    2.052160   -2.248729
     45          1           0       -1.544460    1.605930   -2.572639
     46          1           0       -1.841730    4.315220   -2.430299
     47          1           0       -2.567900    5.957810   -0.568309
     48          1           0       -1.038830    1.991070    1.126571
     49          1           0       -3.273540    0.906010   -0.734649
     50          1           0       -3.019650    0.084490   -2.258369
     51          1           0       -6.669431   -3.962659    0.762731
     52          1           0       -6.554571   -3.075769    3.076841
     53          1           0       -5.131900   -1.155509    3.604981
     54          1           0       -3.774480   -0.051440    1.881121
 ---------------------------------------------------------------------
 Rotational constants (GHZ):      0.1701575      0.0572869      0.0496111
 Leave Link  202 at Fri Sep  2 17:02:32 2022, MaxMem=  209715200 cpu:       0.0
 (Enter /opt/gaussian/l301.exe)
 Standard basis: CC-pVDZ (5D, 7F)
 Ernie: Thresh=  0.10000D-02 Tol=  0.10000D-05 Strict=F.
 Ernie:  74 primitive shells out of 859 were deleted.
 There are   571 symmetry adapted basis functions of A   symmetry.
 Integral buffers will be    131072 words long.
 Raffenetti 2 integral format.
 Two-electron integral symmetry is turned on.
   571 basis functions,  1274 primitive gaussians,   604 cartesian basis functions
   119 alpha electrons      119 beta electrons
       nuclear repulsion energy      3233.0541072313 Hartrees.
 IExCor=  402 DFT=T Ex+Corr=B3LYP ExCW=0 ScaHFX=  0.200000
 ScaDFX=  0.800000  0.720000  1.000000  0.810000 ScalE2=  1.000000  1.000000
 IRadAn=      0 IRanWt=     -1 IRanGd=            0 ICorTp=0
 NAtoms=   54 NActive=   54 NUniq=   54 SFac= 1.00D+00 NAtFMM=   60 NAOKFM=F Big=F
 Leave Link  301 at Fri Sep  2 17:02:32 2022, MaxMem=  209715200 cpu:       0.3
 (Enter /opt/gaussian/l302.exe)
 NPDir=0 NMtPBC=     1 NCelOv=     1 NCel=       1 NClECP=     1 NCelD=      1
         NCelK=      1 NCelE2=     1 NClLst=     1 CellRange=     0.0.
 One-electron integrals computed using PRISM.
 NBasis=   571 RedAO= T  NBF=   571
 NBsUse=   571 1.00D-06 NBFU=   571
 Precomputing XC quadrature grid using
 IXCGrd= 2 IRadAn=           0 IRanWt=          -1 IRanGd=           0 AccXCQ= 0.00D+00.
 NRdTot=    3489 NPtTot=      446146 NUsed=      471284 NTot=      471316
 NSgBfM=   578   578   581   581   581 NAtAll=    54    54.
 Leave Link  302 at Fri Sep  2 17:02:33 2022, MaxMem=  209715200 cpu:       8.9
 (Enter /opt/gaussian/l303.exe)
 DipDrv:  MaxL=1.
 Leave Link  303 at Fri Sep  2 17:02:34 2022, MaxMem=  209715200 cpu:       1.3
 (Enter /opt/gaussian/l401.exe)
 Harris functional with IExCor=  402 diagonalized for initial guess.
 ExpMin= 1.22D-01 ExpMax= 1.11D+05 ExpMxC= 1.07D+03 IAcc=2 IRadAn=         4 AccDes= 0.00D+00
 HarFok:  IExCor=  402 AccDes= 0.00D+00 IRadAn=         4 IDoV= 1
 ScaDFX=  1.000000  1.000000  1.000000  1.000000
 FoFCou: FMM=F IPFlag=           0 FMFlag=      100000 FMFlg1=           0
         NFxFlg=           0 DoJE=T BraDBF=F KetDBF=T FulRan=T
         Omega=  0.000000  0.000000  1.000000  0.000000  0.000000 ICntrl=     500 IOpCl=  0
         NMat0=    1 NMatS0=    1 NMatT0=    0 NMatD0=    1 NMtDS0=    0 NMtDT0=    0
         I1Cent=           4 NGrid=           0.
 Petite list used in FoFCou.
 Harris En= -1787.55351540457    
 Initial guess orbital symmetries:
       Occupied  (A) (A) (A) (A) (A) (A) (A) (A) (A) (A) (A) (A)
                 (A) (A) (A) (A) (A) (A) (A) (A) (A) (A) (A) (A)
                 (A) (A) (A) (A) (A) (A) (A) (A) (A) (A) (A) (A)
                 (A) (A) (A) (A) (A) (A) (A) (A) (A) (A) (A) (A)
                 (A) (A) (A) (A) (A) (A) (A) (A) (A) (A) (A) (A)
                 (A) (A) (A) (A) (A) (A) (A) (A) (A) (A) (A) (A)
                 (A) (A) (A) (A) (A) (A) (A) (A) (A) (A) (A) (A)
                 (A) (A) (A) (A) (A) (A) (A) (A) (A) (A) (A) (A)
                 (A) (A) (A) (A) (A) (A) (A) (A) (A) (A) (A) (A)
                 (A) (A) (A) (A) (A) (A) (A) (A) (A) (A) (A)
       Virtual   (A) (A) (A) (A) (A) (A) (A) (A) (A) (A) (A) (A)
                 (A) (A) (A) (A) (A) (A) (A) (A) (A) (A) (A) (A)
                 (A) (A) (A) (A) (A) (A) (A) (A) (A) (A) (A) (A)
                 (A) (A) (A) (A) (A) (A) (A) (A) (A) (A) (A) (A)
                 (A) (A) (A) (A) (A) (A) (A) (A) (A) (A) (A) (A)
                 (A) (A) (A) (A) (A) (A) (A) (A) (A) (A) (A) (A)
                 (A) (A) (A) (A) (A) (A) (A) (A) (A) (A) (A) (A)
                 (A) (A) (A) (A) (A) (A) (A) (A) (A) (A) (A) (A)
                 (A) (A) (A) (A) (A) (A) (A) (A) (A) (A) (A) (A)
                 (A) (A) (A) (A) (A) (A) (A) (A) (A) (A) (A) (A)
                 (A) (A) (A) (A) (A) (A) (A) (A) (A) (A) (A) (A)
                 (A) (A) (A) (A) (A) (A) (A) (A) (A) (A) (A) (A)
                 (A) (A) (A) (A) (A) (A) (A) (A) (A) (A) (A) (A)
                 (A) (A) (A) (A) (A) (A) (A) (A) (A) (A) (A) (A)
                 (A) (A) (A) (A) (A) (A) (A) (A) (A) (A) (A) (A)
                 (A) (A) (A) (A) (A) (A) (A) (A) (A) (A) (A) (A)
                 (A) (A) (A) (A) (A) (A) (A) (A) (A) (A) (A) (A)
                 (A) (A) (A) (A) (A) (A) (A) (A) (A) (A) (A) (A)
                 (A) (A) (A) (A) (A) (A) (A) (A) (A) (A) (A) (A)
                 (A) (A) (A) (A) (A) (A) (A) (A) (A) (A) (A) (A)
                 (A) (A) (A) (A) (A) (A) (A) (A) (A) (A) (A) (A)
                 (A) (A) (A) (A) (A) (A) (A) (A) (A) (A) (A) (A)
                 (A) (A) (A) (A) (A) (A) (A) (A) (A) (A) (A) (A)
                 (A) (A) (A) (A) (A) (A) (A) (A) (A) (A) (A) (A)
                 (A) (A) (A) (A) (A) (A) (A) (A) (A) (A) (A) (A)
                 (A) (A) (A) (A) (A) (A) (A) (A) (A) (A) (A) (A)
                 (A) (A) (A) (A) (A) (A) (A) (A) (A) (A) (A) (A)
                 (A) (A) (A) (A) (A) (A) (A) (A) (A) (A) (A) (A)
                 (A) (A) (A) (A) (A) (A) (A) (A) (A) (A) (A) (A)
                 (A) (A) (A) (A) (A) (A) (A) (A) (A) (A) (A) (A)
                 (A) (A) (A) (A) (A) (A) (A) (A) (A) (A) (A) (A)
                 (A) (A) (A) (A) (A) (A) (A) (A) (A) (A) (A) (A)
                 (A) (A) (A) (A) (A) (A) (A) (A) (A) (A) (A) (A)
                 (A) (A) (A) (A) (A) (A) (A) (A) (A) (A) (A) (A)
                 (A) (A) (A) (A) (A) (A) (A) (A) (A) (A) (A) (A)
                 (A) (A) (A) (A) (A) (A) (A) (A) (A) (A) (A) (A)
                 (A) (A) (A) (A) (A) (A) (A) (A) (A) (A) (A) (A)
                 (A) (A) (A) (A) (A) (A) (A) (A)
 The electronic state of the initial guess is 1-A.
 Leave Link  401 at Fri Sep  2 17:02:37 2022, MaxMem=  209715200 cpu:      26.2
 (Enter /opt/gaussian/l502.exe)
 Closed shell SCF:
 Requested convergence on RMS density matrix=1.00D-08 within 128 cycles.
 Requested convergence on MAX density matrix=1.00D-06.
 Requested convergence on             energy=1.00D-06.
 No special actions if energy rises.
 Using DIIS extrapolation, IDIIS=  1040.
 Integral symmetry usage will be decided dynamically.
       470785 words used for storage of precomputed grid.
 IEnd=     1592777 IEndB=     1592777 NGot=   209715200 MDV=   208504484
 LenX=   208504484 LenY=   208139064
 Fock matrices will be formed incrementally for  20 cycles.
 Integral accuracy reduced to 1.0D-05 until final iterations.

 Cycle   1  Pass 0  IDiag  1:
 FoFCou: FMM=F IPFlag=           0 FMFlag=      100000 FMFlg1=           0
         NFxFlg=           0 DoJE=F BraDBF=F KetDBF=F FulRan=T
         Omega=  0.000000  0.000000  1.000000  0.000000  0.000000 ICntrl=       0 IOpCl=  0
         NMat0=    1 NMatS0=    1 NMatT0=    0 NMatD0=    1 NMtDS0=    0 NMtDT0=    0
         I1Cent=           0 NGrid=           0.
 Symmetry not used in FoFCou.
 E= -1787.02325928701    
 DIIS: error= 2.11D-02 at cycle   1 NSaved=   1.
 NSaved= 1 IEnMin= 1 EnMin= -1787.02325928701     IErMin= 1 ErrMin= 2.11D-02
 ErrMax= 2.11D-02 EMaxC= 1.00D-01 BMatC= 6.63D-01 BMatP= 6.63D-01
 IDIUse=3 WtCom= 7.89D-01 WtEn= 2.11D-01
 Coeff-Com:  0.100D+01
 Coeff-En:   0.100D+01
 Coeff:      0.100D+01
 Gap=     0.329 Goal=   None    Shift=    0.000
 GapD=    0.329 DampG=1.000 DampE=0.500 DampFc=0.5000 IDamp=-1.
 Damping current iteration by 5.00D-01
 RMSDP=4.04D-03 MaxDP=2.00D-01              OVMax= 3.09D-01

 Cycle   2  Pass 0  IDiag  1:
 RMSU=  1.41D-03    CP:  9.80D-01
 E= -1787.22089262100     Delta-E=       -0.197633333995 Rises=F Damp=T
 DIIS: error= 8.90D-03 at cycle   2 NSaved=   2.
 NSaved= 2 IEnMin= 2 EnMin= -1787.22089262100     IErMin= 2 ErrMin= 8.90D-03
 ErrMax= 8.90D-03 EMaxC= 1.00D-01 BMatC= 1.16D-01 BMatP= 6.63D-01
 IDIUse=3 WtCom= 9.11D-01 WtEn= 8.90D-02
 Coeff-Com:  0.227D+00 0.773D+00
 Coeff-En:   0.346D+00 0.654D+00
 Coeff:      0.238D+00 0.762D+00
 Gap=     0.260 Goal=   None    Shift=    0.000
 RMSDP=1.39D-03 MaxDP=7.27D-02 DE=-1.98D-01 OVMax= 3.01D-01

 Cycle   3  Pass 0  IDiag  1:
 RMSU=  9.22D-04    CP:  9.66D-01  7.73D-01
 E= -1787.66494313311     Delta-E=       -0.444050512106 Rises=F Damp=F
 DIIS: error= 7.66D-03 at cycle   3 NSaved=   3.
 NSaved= 3 IEnMin= 3 EnMin= -1787.66494313311     IErMin= 3 ErrMin= 7.66D-03
 ErrMax= 7.66D-03 EMaxC= 1.00D-01 BMatC= 9.31D-02 BMatP= 1.16D-01
 IDIUse=3 WtCom= 9.23D-01 WtEn= 7.66D-02
 Coeff-Com:  0.685D-01 0.464D+00 0.468D+00
 Coeff-En:   0.000D+00 0.000D+00 0.100D+01
 Coeff:      0.632D-01 0.428D+00 0.509D+00
 Gap=     0.187 Goal=   None    Shift=    0.000
 RMSDP=7.04D-04 MaxDP=5.73D-02 DE=-4.44D-01 OVMax= 7.54D-02

 Cycle   4  Pass 0  IDiag  1:
 RMSU=  3.71D-04    CP:  9.69D-01  8.51D-01  6.63D-01
 E= -1787.73384582428     Delta-E=       -0.068902691169 Rises=F Damp=F
 DIIS: error= 3.72D-03 at cycle   4 NSaved=   4.
 NSaved= 4 IEnMin= 4 EnMin= -1787.73384582428     IErMin= 4 ErrMin= 3.72D-03
 ErrMax= 3.72D-03 EMaxC= 1.00D-01 BMatC= 1.86D-02 BMatP= 9.31D-02
 IDIUse=3 WtCom= 9.63D-01 WtEn= 3.72D-02
 Coeff-Com:  0.149D-01 0.145D+00 0.324D+00 0.517D+00
 Coeff-En:   0.000D+00 0.000D+00 0.184D+00 0.816D+00
 Coeff:      0.144D-01 0.139D+00 0.319D+00 0.528D+00
 Gap=     0.181 Goal=   None    Shift=    0.000
 RMSDP=3.07D-04 MaxDP=1.99D-02 DE=-6.89D-02 OVMax= 3.34D-02

 Cycle   5  Pass 0  IDiag  1:
 RMSU=  1.40D-04    CP:  9.69D-01  8.29D-01  7.15D-01  5.81D-01
 E= -1787.74820232448     Delta-E=       -0.014356500205 Rises=F Damp=F
 DIIS: error= 2.35D-03 at cycle   5 NSaved=   5.
 NSaved= 5 IEnMin= 5 EnMin= -1787.74820232448     IErMin= 5 ErrMin= 2.35D-03
 ErrMax= 2.35D-03 EMaxC= 1.00D-01 BMatC= 2.25D-03 BMatP= 1.86D-02
 IDIUse=3 WtCom= 9.76D-01 WtEn= 2.35D-02
 Coeff-Com:  0.218D-02 0.273D-01 0.138D+00 0.340D+00 0.493D+00
 Coeff-En:   0.000D+00 0.000D+00 0.000D+00 0.115D+00 0.885D+00
 Coeff:      0.213D-02 0.266D-01 0.134D+00 0.335D+00 0.502D+00
 Gap=     0.180 Goal=   None    Shift=    0.000
 RMSDP=1.18D-04 MaxDP=6.92D-03 DE=-1.44D-02 OVMax= 1.65D-02

 Cycle   6  Pass 0  IDiag  1:
 RMSU=  3.72D-05    CP:  9.68D-01  8.29D-01  7.33D-01  6.66D-01  5.35D-01
 E= -1787.75049237550     Delta-E=       -0.002290051018 Rises=F Damp=F
 DIIS: error= 7.25D-04 at cycle   6 NSaved=   6.
 NSaved= 6 IEnMin= 6 EnMin= -1787.75049237550     IErMin= 6 ErrMin= 7.25D-04
 ErrMax= 7.25D-04 EMaxC= 1.00D-01 BMatC= 1.99D-04 BMatP= 2.25D-03
 IDIUse=3 WtCom= 9.93D-01 WtEn= 7.25D-03
 Coeff-Com:  0.120D-04-0.191D-02 0.418D-01 0.136D+00 0.294D+00 0.530D+00
 Coeff-En:   0.000D+00 0.000D+00 0.000D+00 0.000D+00 0.290D-01 0.971D+00
 Coeff:      0.119D-04-0.190D-02 0.415D-01 0.135D+00 0.292D+00 0.533D+00
 Gap=     0.180 Goal=   None    Shift=    0.000
 RMSDP=2.96D-05 MaxDP=2.38D-03 DE=-2.29D-03 OVMax= 4.07D-03

 Cycle   7  Pass 0  IDiag  1:
 RMSU=  1.32D-05    CP:  9.68D-01  8.29D-01  7.34D-01  6.61D-01  5.92D-01
                    CP:  6.25D-01
 E= -1787.75068413195     Delta-E=       -0.000191756448 Rises=F Damp=F
 DIIS: error= 1.80D-04 at cycle   7 NSaved=   7.
 NSaved= 7 IEnMin= 7 EnMin= -1787.75068413195     IErMin= 7 ErrMin= 1.80D-04
 ErrMax= 1.80D-04 EMaxC= 1.00D-01 BMatC= 2.22D-05 BMatP= 1.99D-04
 IDIUse=3 WtCom= 9.98D-01 WtEn= 1.80D-03
 Coeff-Com: -0.376D-04-0.392D-02 0.102D-01 0.424D-01 0.116D+00 0.313D+00
 Coeff-Com:  0.523D+00
 Coeff-En:   0.000D+00 0.000D+00 0.000D+00 0.000D+00 0.000D+00 0.532D-01
 Coeff-En:   0.947D+00
 Coeff:     -0.376D-04-0.392D-02 0.102D-01 0.423D-01 0.116D+00 0.312D+00
 Coeff:      0.524D+00
 Gap=     0.180 Goal=   None    Shift=    0.000
 RMSDP=9.14D-06 MaxDP=7.77D-04 DE=-1.92D-04 OVMax= 1.03D-03

 Initial convergence to 1.0D-05 achieved.  Increase integral accuracy.
 Cycle   8  Pass 1  IDiag  1:
 E= -1787.75074682216     Delta-E=       -0.000062690214 Rises=F Damp=F
 DIIS: error= 2.40D-04 at cycle   1 NSaved=   1.
 NSaved= 1 IEnMin= 1 EnMin= -1787.75074682216     IErMin= 1 ErrMin= 2.40D-04
 ErrMax= 2.40D-04 EMaxC= 1.00D-01 BMatC= 1.34D-05 BMatP= 1.34D-05
 IDIUse=3 WtCom= 9.98D-01 WtEn= 2.40D-03
 Coeff-Com:  0.100D+01
 Coeff-En:   0.100D+01
 Coeff:      0.100D+01
 Gap=     0.180 Goal=   None    Shift=    0.000
 RMSDP=9.14D-06 MaxDP=7.77D-04 DE=-6.27D-05 OVMax= 9.88D-04

 Cycle   9  Pass 1  IDiag  1:
 RMSU=  9.35D-05    CP:  1.00D+00
 E= -1787.75075319369     Delta-E=       -0.000006371523 Rises=F Damp=F
 DIIS: error= 8.51D-05 at cycle   2 NSaved=   2.
 NSaved= 2 IEnMin= 2 EnMin= -1787.75075319369     IErMin= 2 ErrMin= 8.51D-05
 ErrMax= 8.51D-05 EMaxC= 1.00D-01 BMatC= 6.61D-06 BMatP= 1.34D-05
 IDIUse=1 WtCom= 1.00D+00 WtEn= 0.00D+00
 Coeff-Com:  0.369D+00 0.631D+00
 Coeff:      0.369D+00 0.631D+00
 Gap=     0.180 Goal=   None    Shift=    0.000
 RMSDP=9.75D-06 MaxDP=6.03D-04 DE=-6.37D-06 OVMax= 1.45D-03

 Cycle  10  Pass 1  IDiag  1:
 RMSU=  6.89D-06    CP:  1.00D+00  1.00D+00
 E= -1787.75075217019     Delta-E=        0.000001023498 Rises=F Damp=F
 DIIS: error= 9.27D-05 at cycle   3 NSaved=   3.
 NSaved= 3 IEnMin= 2 EnMin= -1787.75075319369     IErMin= 2 ErrMin= 8.51D-05
 ErrMax= 9.27D-05 EMaxC= 1.00D-01 BMatC= 7.54D-06 BMatP= 6.61D-06
 IDIUse=1 WtCom= 1.00D+00 WtEn= 0.00D+00
 Coeff-Com:  0.200D-02 0.516D+00 0.482D+00
 Coeff:      0.200D-02 0.516D+00 0.482D+00
 Gap=     0.180 Goal=   None    Shift=    0.000
 RMSDP=5.25D-06 MaxDP=3.23D-04 DE= 1.02D-06 OVMax= 8.34D-04

 Cycle  11  Pass 1  IDiag  1:
 RMSU=  7.65D-07    CP:  1.00D+00  1.01D+00  4.81D-01
 E= -1787.75076029123     Delta-E=       -0.000008121036 Rises=F Damp=F
 DIIS: error= 1.03D-05 at cycle   4 NSaved=   4.
 NSaved= 4 IEnMin= 4 EnMin= -1787.75076029123     IErMin= 4 ErrMin= 1.03D-05
 ErrMax= 1.03D-05 EMaxC= 1.00D-01 BMatC= 1.19D-07 BMatP= 6.61D-06
 IDIUse=1 WtCom= 1.00D+00 WtEn= 0.00D+00
 Coeff-Com: -0.357D-02 0.321D+00 0.307D+00 0.375D+00
 Coeff:     -0.357D-02 0.321D+00 0.307D+00 0.375D+00
 Gap=     0.180 Goal=   None    Shift=    0.000
 RMSDP=6.74D-07 MaxDP=3.88D-05 DE=-8.12D-06 OVMax= 6.31D-05

 Cycle  12  Pass 1  IDiag  1:
 RMSU=  2.16D-07    CP:  1.00D+00  1.01D+00  4.89D-01  4.49D-01
 E= -1787.75076040715     Delta-E=       -0.000000115926 Rises=F Damp=F
 DIIS: error= 2.16D-06 at cycle   5 NSaved=   5.
 NSaved= 5 IEnMin= 5 EnMin= -1787.75076040715     IErMin= 5 ErrMin= 2.16D-06
 ErrMax= 2.16D-06 EMaxC= 1.00D-01 BMatC= 3.88D-09 BMatP= 1.19D-07
 IDIUse=1 WtCom= 1.00D+00 WtEn= 0.00D+00
 Coeff-Com: -0.228D-02 0.171D+00 0.165D+00 0.229D+00 0.437D+00
 Coeff:     -0.228D-02 0.171D+00 0.165D+00 0.229D+00 0.437D+00
 Gap=     0.180 Goal=   None    Shift=    0.000
 RMSDP=1.41D-07 MaxDP=1.13D-05 DE=-1.16D-07 OVMax= 1.32D-05

 Cycle  13  Pass 1  IDiag  1:
 RMSU=  7.58D-08    CP:  1.00D+00  1.01D+00  4.90D-01  4.77D-01  7.20D-01
 E= -1787.75076041059     Delta-E=       -0.000000003443 Rises=F Damp=F
 DIIS: error= 4.73D-07 at cycle   6 NSaved=   6.
 NSaved= 6 IEnMin= 6 EnMin= -1787.75076041059     IErMin= 6 ErrMin= 4.73D-07
 ErrMax= 4.73D-07 EMaxC= 1.00D-01 BMatC= 3.26D-10 BMatP= 3.88D-09
 IDIUse=1 WtCom= 1.00D+00 WtEn= 0.00D+00
 Coeff-Com: -0.905D-03 0.625D-01 0.601D-01 0.896D-01 0.260D+00 0.529D+00
 Coeff:     -0.905D-03 0.625D-01 0.601D-01 0.896D-01 0.260D+00 0.529D+00
 Gap=     0.180 Goal=   None    Shift=    0.000
 RMSDP=3.85D-08 MaxDP=3.37D-06 DE=-3.44D-09 OVMax= 4.32D-06

 Cycle  14  Pass 1  IDiag  1:
 RMSU=  2.07D-08    CP:  1.00D+00  1.01D+00  4.89D-01  4.81D-01  7.48D-01
                    CP:  7.89D-01
 E= -1787.75076041085     Delta-E=       -0.000000000260 Rises=F Damp=F
 DIIS: error= 1.45D-07 at cycle   7 NSaved=   7.
 NSaved= 7 IEnMin= 7 EnMin= -1787.75076041085     IErMin= 7 ErrMin= 1.45D-07
 ErrMax= 1.45D-07 EMaxC= 1.00D-01 BMatC= 3.63D-11 BMatP= 3.26D-10
 IDIUse=1 WtCom= 1.00D+00 WtEn= 0.00D+00
 Coeff-Com: -0.236D-03 0.144D-01 0.137D-01 0.225D-01 0.955D-01 0.303D+00
 Coeff-Com:  0.551D+00
 Coeff:     -0.236D-03 0.144D-01 0.137D-01 0.225D-01 0.955D-01 0.303D+00
 Coeff:      0.551D+00
 Gap=     0.180 Goal=   None    Shift=    0.000
 RMSDP=1.43D-08 MaxDP=7.87D-07 DE=-2.60D-10 OVMax= 1.87D-06

 Cycle  15  Pass 1  IDiag  1:
 RMSU=  7.21D-09    CP:  1.00D+00  1.01D+00  4.89D-01  4.80D-01  7.62D-01
                    CP:  8.17D-01  7.09D-01
 E= -1787.75076041089     Delta-E=       -0.000000000040 Rises=F Damp=F
 DIIS: error= 6.47D-08 at cycle   8 NSaved=   8.
 NSaved= 8 IEnMin= 8 EnMin= -1787.75076041089     IErMin= 8 ErrMin= 6.47D-08
 ErrMax= 6.47D-08 EMaxC= 1.00D-01 BMatC= 6.10D-12 BMatP= 3.63D-11
 IDIUse=1 WtCom= 1.00D+00 WtEn= 0.00D+00
 Coeff-Com:  0.358D-04-0.357D-02-0.348D-02-0.402D-02 0.705D-02 0.840D-01
 Coeff-Com:  0.331D+00 0.589D+00
 Coeff:      0.358D-04-0.357D-02-0.348D-02-0.402D-02 0.705D-02 0.840D-01
 Coeff:      0.331D+00 0.589D+00
 Gap=     0.180 Goal=   None    Shift=    0.000
 RMSDP=5.63D-09 MaxDP=3.05D-07 DE=-4.00D-11 OVMax= 7.68D-07

 SCF Done:  E(RB3LYP) =  -1787.75076041     A.U. after   15 cycles
             Convg  =    0.5631D-08             -V/T =  2.0050
 KE= 1.778875057584D+03 PE=-1.064454745089D+04 EE= 3.844867525662D+03
 Leave Link  502 at Fri Sep  2 17:15:33 2022, MaxMem=  209715200 cpu:    6187.0
 (Enter /opt/gaussian/l601.exe)
 Copying SCF densities to generalized density rwf, IOpCl= 0 IROHF=0.

 **********************************************************************

            Population analysis using the SCF density.

 **********************************************************************

 Orbital symmetries:
       Occupied  (A) (A) (A) (A) (A) (A) (A) (A) (A) (A) (A) (A)
                 (A) (A) (A) (A) (A) (A) (A) (A) (A) (A) (A) (A)
                 (A) (A) (A) (A) (A) (A) (A) (A) (A) (A) (A) (A)
                 (A) (A) (A) (A) (A) (A) (A) (A) (A) (A) (A) (A)
                 (A) (A) (A) (A) (A) (A) (A) (A) (A) (A) (A) (A)
                 (A) (A) (A) (A) (A) (A) (A) (A) (A) (A) (A) (A)
                 (A) (A) (A) (A) (A) (A) (A) (A) (A) (A) (A) (A)
                 (A) (A) (A) (A) (A) (A) (A) (A) (A) (A) (A) (A)
                 (A) (A) (A) (A) (A) (A) (A) (A) (A) (A) (A) (A)
                 (A) (A) (A) (A) (A) (A) (A) (A) (A) (A) (A)
       Virtual   (A) (A) (A) (A) (A) (A) (A) (A) (A) (A) (A) (A)
                 (A) (A) (A) (A) (A) (A) (A) (A) (A) (A) (A) (A)
                 (A) (A) (A) (A) (A) (A) (A) (A) (A) (A) (A) (A)
                 (A) (A) (A) (A) (A) (A) (A) (A) (A) (A) (A) (A)
                 (A) (A) (A) (A) (A) (A) (A) (A) (A) (A) (A) (A)
                 (A) (A) (A) (A) (A) (A) (A) (A) (A) (A) (A) (A)
                 (A) (A) (A) (A) (A) (A) (A) (A) (A) (A) (A) (A)
                 (A) (A) (A) (A) (A) (A) (A) (A) (A) (A) (A) (A)
                 (A) (A) (A) (A) (A) (A) (A) (A) (A) (A) (A) (A)
                 (A) (A) (A) (A) (A) (A) (A) (A) (A) (A) (A) (A)
                 (A) (A) (A) (A) (A) (A) (A) (A) (A) (A) (A) (A)
                 (A) (A) (A) (A) (A) (A) (A) (A) (A) (A) (A) (A)
                 (A) (A) (A) (A) (A) (A) (A) (A) (A) (A) (A) (A)
                 (A) (A) (A) (A) (A) (A) (A) (A) (A) (A) (A) (A)
                 (A) (A) (A) (A) (A) (A) (A) (A) (A) (A) (A) (A)
                 (A) (A) (A) (A) (A) (A) (A) (A) (A) (A) (A) (A)
                 (A) (A) (A) (A) (A) (A) (A) (A) (A) (A) (A) (A)
                 (A) (A) (A) (A) (A) (A) (A) (A) (A) (A) (A) (A)
                 (A) (A) (A) (A) (A) (A) (A) (A) (A) (A) (A) (A)
                 (A) (A) (A) (A) (A) (A) (A) (A) (A) (A) (A) (A)
                 (A) (A) (A) (A) (A) (A) (A) (A) (A) (A) (A) (A)
                 (A) (A) (A) (A) (A) (A) (A) (A) (A) (A) (A) (A)
                 (A) (A) (A) (A) (A) (A) (A) (A) (A) (A) (A) (A)
                 (A) (A) (A) (A) (A) (A) (A) (A) (A) (A) (A) (A)
                 (A) (A) (A) (A) (A) (A) (A) (A) (A) (A) (A) (A)
                 (A) (A) (A) (A) (A) (A) (A) (A) (A) (A) (A) (A)
                 (A) (A) (A) (A) (A) (A) (A) (A) (A) (A) (A) (A)
                 (A) (A) (A) (A) (A) (A) (A) (A) (A) (A) (A) (A)
                 (A) (A) (A) (A) (A) (A) (A) (A) (A) (A) (A) (A)
                 (A) (A) (A) (A) (A) (A) (A) (A) (A) (A) (A) (A)
                 (A) (A) (A) (A) (A) (A) (A) (A) (A) (A) (A) (A)
                 (A) (A) (A) (A) (A) (A) (A) (A) (A) (A) (A) (A)
                 (A) (A) (A) (A) (A) (A) (A) (A) (A) (A) (A) (A)
                 (A) (A) (A) (A) (A) (A) (A) (A) (A) (A) (A) (A)
                 (A) (A) (A) (A) (A) (A) (A) (A) (A) (A) (A) (A)
                 (A) (A) (A) (A) (A) (A) (A) (A) (A) (A) (A) (A)
                 (A) (A) (A) (A) (A) (A) (A) (A) (A) (A) (A) (A)
                 (A) (A) (A) (A) (A) (A) (A) (A)
 The electronic state is 1-A.
 Alpha  occ. eigenvalues --  -88.92103 -19.17145 -19.11846 -14.40517 -14.38488
 Alpha  occ. eigenvalues --  -14.38228 -14.34222 -14.32150 -10.30065 -10.27801
 Alpha  occ. eigenvalues --  -10.25466 -10.24962 -10.23596 -10.23473 -10.23203
 Alpha  occ. eigenvalues --  -10.22879 -10.22483 -10.22183 -10.21882 -10.20904
 Alpha  occ. eigenvalues --  -10.20500 -10.20419 -10.20355 -10.20256 -10.19670
 Alpha  occ. eigenvalues --  -10.19451 -10.19304 -10.19263 -10.19190 -10.19159
 Alpha  occ. eigenvalues --  -10.19121 -10.18908 -10.18710  -7.98170  -5.94521
 Alpha  occ. eigenvalues --   -5.94155  -5.93766  -1.09887  -1.07470  -1.05350
 Alpha  occ. eigenvalues --   -0.96510  -0.94281  -0.92606  -0.89219  -0.87135
 Alpha  occ. eigenvalues --   -0.86766  -0.82057  -0.78871  -0.78330  -0.77756
 Alpha  occ. eigenvalues --   -0.76976  -0.75991  -0.75271  -0.74872  -0.73667
 Alpha  occ. eigenvalues --   -0.71004  -0.70392  -0.66074  -0.64823  -0.63371
 Alpha  occ. eigenvalues --   -0.62538  -0.62022  -0.61020  -0.59656  -0.59093
 Alpha  occ. eigenvalues --   -0.57100  -0.56083  -0.54377  -0.53895  -0.52894
 Alpha  occ. eigenvalues --   -0.52581  -0.52500  -0.51690  -0.50490  -0.49678
 Alpha  occ. eigenvalues --   -0.47869  -0.47317  -0.47154  -0.46759  -0.46474
 Alpha  occ. eigenvalues --   -0.45938  -0.45473  -0.44732  -0.44441  -0.43854
 Alpha  occ. eigenvalues --   -0.43572  -0.43471  -0.42933  -0.42115  -0.41493
 Alpha  occ. eigenvalues --   -0.40759  -0.40331  -0.39895  -0.39634  -0.38987
 Alpha  occ. eigenvalues --   -0.38336  -0.37727  -0.37398  -0.37170  -0.36536
 Alpha  occ. eigenvalues --   -0.35776  -0.35623  -0.35406  -0.34008  -0.33202
 Alpha  occ. eigenvalues --   -0.33042  -0.30933  -0.30454  -0.28171  -0.27133
 Alpha  occ. eigenvalues --   -0.26571  -0.26531  -0.26093  -0.25899  -0.25737
 Alpha  occ. eigenvalues --   -0.24891  -0.24650  -0.23271  -0.22178
 Alpha virt. eigenvalues --   -0.04191  -0.03520  -0.03381  -0.01305  -0.01153
 Alpha virt. eigenvalues --    0.00242   0.00756   0.01319   0.02354   0.02663
 Alpha virt. eigenvalues --    0.04142   0.05218   0.06527   0.06935   0.07282
 Alpha virt. eigenvalues --    0.07456   0.07672   0.08245   0.08533   0.09349
 Alpha virt. eigenvalues --    0.10388   0.10750   0.11337   0.11582   0.11772
 Alpha virt. eigenvalues --    0.12134   0.12981   0.13539   0.13875   0.14012
 Alpha virt. eigenvalues --    0.14179   0.14488   0.15438   0.16129   0.16276
 Alpha virt. eigenvalues --    0.16604   0.16981   0.17860   0.18583   0.20897
 Alpha virt. eigenvalues --    0.21391   0.21847   0.22689   0.24029   0.24949
 Alpha virt. eigenvalues --    0.25166   0.25593   0.25948   0.27051   0.27672
 Alpha virt. eigenvalues --    0.28422   0.29146   0.29670   0.30493   0.30709
 Alpha virt. eigenvalues --    0.31113   0.31990   0.32269   0.33421   0.34501
 Alpha virt. eigenvalues --    0.35341   0.35943   0.37220   0.37274   0.38842
 Alpha virt. eigenvalues --    0.39082   0.40733   0.41014   0.41626   0.42058
 Alpha virt. eigenvalues --    0.42949   0.43584   0.43872   0.44574   0.44939
 Alpha virt. eigenvalues --    0.45456   0.45714   0.46114   0.46160   0.46598
 Alpha virt. eigenvalues --    0.46772   0.47065   0.47249   0.47434   0.47579
 Alpha virt. eigenvalues --    0.47886   0.48083   0.48476   0.48986   0.49504
 Alpha virt. eigenvalues --    0.49773   0.50153   0.50349   0.50556   0.50693
 Alpha virt. eigenvalues --    0.51010   0.51382   0.51416   0.51993   0.52115
 Alpha virt. eigenvalues --    0.52766   0.53036   0.53285   0.53841   0.54607
 Alpha virt. eigenvalues --    0.54660   0.55101   0.55631   0.55931   0.56143
 Alpha virt. eigenvalues --    0.56736   0.57153   0.57808   0.58495   0.58685
 Alpha virt. eigenvalues --    0.59279   0.59690   0.60051   0.60244   0.60873
 Alpha virt. eigenvalues --    0.61019   0.61593   0.61719   0.61947   0.62904
 Alpha virt. eigenvalues --    0.63243   0.63297   0.63958   0.64407   0.65349
 Alpha virt. eigenvalues --    0.65524   0.65815   0.66155   0.66347   0.66724
 Alpha virt. eigenvalues --    0.67201   0.67286   0.67796   0.67821   0.68475
 Alpha virt. eigenvalues --    0.69005   0.69128   0.69909   0.70443   0.70687
 Alpha virt. eigenvalues --    0.71039   0.71879   0.72020   0.72805   0.73260
 Alpha virt. eigenvalues --    0.73842   0.74956   0.75009   0.76072   0.77260
 Alpha virt. eigenvalues --    0.77334   0.78003   0.78734   0.79324   0.80566
 Alpha virt. eigenvalues --    0.82369   0.82714   0.83329   0.84192   0.84350
 Alpha virt. eigenvalues --    0.85320   0.86085   0.86477   0.87413   0.88071
 Alpha virt. eigenvalues --    0.88712   0.89228   0.89539   0.89992   0.90521
 Alpha virt. eigenvalues --    0.91418   0.91857   0.92101   0.93048   0.93285
 Alpha virt. eigenvalues --    0.94100   0.94375   0.94587   0.95102   0.95491
 Alpha virt. eigenvalues --    0.95592   0.95691   0.96411   0.97754   0.98451
 Alpha virt. eigenvalues --    0.98964   0.99302   1.00269   1.00646   1.00983
 Alpha virt. eigenvalues --    1.01138   1.01700   1.02032   1.02766   1.02825
 Alpha virt. eigenvalues --    1.03143   1.04351   1.04602   1.05135   1.05451
 Alpha virt. eigenvalues --    1.05852   1.06584   1.07223   1.07753   1.08308
 Alpha virt. eigenvalues --    1.08510   1.08642   1.10646   1.11531   1.12106
 Alpha virt. eigenvalues --    1.12613   1.12744   1.13796   1.14420   1.15657
 Alpha virt. eigenvalues --    1.17701   1.18148   1.18612   1.19207   1.19719
 Alpha virt. eigenvalues --    1.20852   1.22958   1.23357   1.23955   1.24778
 Alpha virt. eigenvalues --    1.24977   1.26380   1.26495   1.27416   1.29199
 Alpha virt. eigenvalues --    1.29906   1.30676   1.30836   1.31277   1.32132
 Alpha virt. eigenvalues --    1.32849   1.34335   1.34753   1.35383   1.36320
 Alpha virt. eigenvalues --    1.37434   1.39149   1.39513   1.40002   1.41015
 Alpha virt. eigenvalues --    1.41196   1.42686   1.44479   1.46634   1.46781
 Alpha virt. eigenvalues --    1.47781   1.47974   1.48594   1.49274   1.49913
 Alpha virt. eigenvalues --    1.50182   1.50778   1.51119   1.52198   1.52363
 Alpha virt. eigenvalues --    1.52714   1.53930   1.54159   1.54687   1.56593
 Alpha virt. eigenvalues --    1.57114   1.57600   1.57962   1.58663   1.59113
 Alpha virt. eigenvalues --    1.59428   1.60032   1.60177   1.60889   1.61095
 Alpha virt. eigenvalues --    1.61479   1.61865   1.62494   1.63408   1.63699
 Alpha virt. eigenvalues --    1.64034   1.64999   1.65261   1.65633   1.66304
 Alpha virt. eigenvalues --    1.66398   1.66741   1.67091   1.67730   1.68009
 Alpha virt. eigenvalues --    1.68269   1.68789   1.69080   1.69443   1.69890
 Alpha virt. eigenvalues --    1.70491   1.70581   1.71070   1.72001   1.72198
 Alpha virt. eigenvalues --    1.73174   1.73462   1.74475   1.74570   1.75078
 Alpha virt. eigenvalues --    1.75643   1.75807   1.76804   1.77634   1.78069
 Alpha virt. eigenvalues --    1.79042   1.79262   1.80290   1.80546   1.81114
 Alpha virt. eigenvalues --    1.81547   1.81955   1.82517   1.83157   1.83849
 Alpha virt. eigenvalues --    1.84716   1.85206   1.85764   1.86288   1.86697
 Alpha virt. eigenvalues --    1.86729   1.87145   1.87915   1.88084   1.89075
 Alpha virt. eigenvalues --    1.89727   1.90745   1.91171   1.92630   1.92713
 Alpha virt. eigenvalues --    1.93958   1.94312   1.95356   1.95506   1.96361
 Alpha virt. eigenvalues --    1.97420   1.98164   1.98807   1.99305   2.00191
 Alpha virt. eigenvalues --    2.00389   2.00925   2.01354   2.02627   2.03183
 Alpha virt. eigenvalues --    2.04552   2.04878   2.05590   2.05705   2.06082
 Alpha virt. eigenvalues --    2.07061   2.07884   2.09612   2.10101   2.10805
 Alpha virt. eigenvalues --    2.11239   2.12650   2.13509   2.14132   2.16057
 Alpha virt. eigenvalues --    2.16643   2.18308   2.19045   2.20318   2.20705
 Alpha virt. eigenvalues --    2.21167   2.21851   2.22787   2.24311   2.26085
 Alpha virt. eigenvalues --    2.26440   2.29220   2.30296   2.30480   2.32684
 Alpha virt. eigenvalues --    2.33626   2.35524   2.36992   2.38467   2.39601
 Alpha virt. eigenvalues --    2.41600   2.42232   2.43021   2.43491   2.43761
 Alpha virt. eigenvalues --    2.44345   2.44721   2.45325   2.47103   2.47442
 Alpha virt. eigenvalues --    2.47712   2.48404   2.49005   2.49877   2.50687
 Alpha virt. eigenvalues --    2.51856   2.52273   2.53233   2.54949   2.56209
 Alpha virt. eigenvalues --    2.56828   2.59234   2.59931   2.61532   2.64512
 Alpha virt. eigenvalues --    2.65456   2.67284   2.68194   2.69890   2.71313
 Alpha virt. eigenvalues --    2.72662   2.73564   2.74304   2.74865   2.78049
 Alpha virt. eigenvalues --    2.78374   2.78420   2.80388   2.81794   2.82498
 Alpha virt. eigenvalues --    2.83113   2.86391   2.88756   2.91043   2.93016
 Alpha virt. eigenvalues --    2.97711   2.98876   2.99126   3.01113   3.02640
 Alpha virt. eigenvalues --    3.03190   3.07836   3.09121   3.13310   3.16676
 Alpha virt. eigenvalues --    3.33662   3.41794   3.42649   3.48902   3.51174
 Alpha virt. eigenvalues --    3.60781   3.62138
          Condensed to atoms (all electrons):
 Mulliken atomic charges:
              1
     1  C    0.161482
     2  O   -0.292312
     3  C    0.199171
     4  N   -0.224148
     5  C    0.118465
     6  C   -0.012603
     7  C    0.107315
     8  C   -0.049609
     9  C    0.034096
    10  C    0.034800
    11  C    0.100708
    12  C    0.077301
    13  C    0.048250
    14  C    0.070012
    15  N   -0.277319
    16  C    0.169649
    17  C   -0.028154
    18  C    0.072231
    19  C   -0.082794
    20  S    0.127393
    21  C   -0.141116
    22  C    0.107247
    23  O   -0.245693
    24  C    0.155461
    25  N   -0.229363
    26  N   -0.056816
    27  N   -0.180976
    28  C   -0.002654
    29  C    0.063549
    30  C    0.049532
    31  C    0.051630
    32  C    0.046373
    33  C    0.211716
    34  H    0.024220
    35  H    0.027249
    36  H    0.025148
    37  H   -0.016892
    38  H   -0.040475
    39  H   -0.042016
    40  H   -0.045049
    41  H   -0.031646
    42  H   -0.040233
    43  H   -0.052545
    44  H    0.043081
    45  H    0.033429
    46  H   -0.037159
    47  H    0.009322
    48  H    0.015990
    49  H    0.049627
    50  H    0.049710
    51  H   -0.034474
    52  H   -0.038943
    53  H   -0.037394
    54  H   -0.043772
 Sum of Mulliken atomic charges =   0.00000
 Mulliken charges with hydrogens summed into heavy atoms:
              1
     1  C    0.238099
     2  O   -0.292312
     3  C    0.199171
     4  N   -0.224148
     5  C    0.101573
     6  C   -0.053078
     7  C    0.065299
     8  C   -0.049609
     9  C    0.034096
    10  C   -0.010250
    11  C    0.069062
    12  C    0.077301
    13  C    0.008018
    14  C    0.017468
    15  N   -0.277319
    16  C    0.246159
    17  C   -0.028154
    18  C    0.035072
    19  C   -0.073472
    20  S    0.127393
    21  C   -0.125127
    22  C    0.107247
    23  O   -0.245693
    24  C    0.254798
    25  N   -0.229363
    26  N   -0.056816
    27  N   -0.180976
    28  C   -0.002654
    29  C    0.029075
    30  C    0.010589
    31  C    0.014236
    32  C    0.002600
    33  C    0.211716
 Sum of Mulliken charges with hydrogens summed into heavy atoms =   0.00000
 Electronic spatial extent (au):  <R**2>=          21242.4478
 Charge=              0.0000 electrons
 Dipole moment (field-independent basis, Debye):
    X=              2.3585    Y=              5.2214    Z=              0.0919  Tot=              5.7301
 Quadrupole moment (field-independent basis, Debye-Ang):
   XX=           -199.4967   YY=           -191.8060   ZZ=           -184.4692
   XY=            -18.0847   XZ=            -11.9282   YZ=             -7.4557
 Traceless Quadrupole moment (field-independent basis, Debye-Ang):
   XX=             -7.5727   YY=              0.1180   ZZ=              7.4548
   XY=            -18.0847   XZ=            -11.9282   YZ=             -7.4557
 Octapole moment (field-independent basis, Debye-Ang**2):
  XXX=            131.7686  YYY=             69.3297  ZZZ=             41.3764  XYY=              8.5128
  XXY=              6.9969  XXZ=             67.5146  XZZ=             33.2924  YZZ=             19.8059
  YYZ=             -4.0076  XYZ=             82.0150
 Hexadecapole moment (field-independent basis, Debye-Ang**3):
 XXXX=         -20806.3206 YYYY=          -5453.5657 ZZZZ=          -2204.5448 XXXY=           -275.7438
 XXXZ=           -479.7318 YYYX=           -241.6786 YYYZ=           -116.0478 ZZZX=             88.5444
 ZZZY=            -37.6474 XXYY=          -4320.4547 XXZZ=          -3696.7281 YYZZ=          -1344.8898
 XXYZ=           -115.4307 YYXZ=            -93.4084 ZZXY=            -57.7731
 N-N= 3.233054107231D+03 E-N=-1.064454747183D+04  KE= 1.778875057584D+03
 No NMR shielding tensors so no spin-rotation constants.
 Leave Link  601 at Fri Sep  2 17:15:33 2022, MaxMem=  209715200 cpu:       4.3
 (Enter /opt/gaussian/l701.exe)
 Compute integral first derivatives.
 ... and contract with generalized density number  0.
 Leave Link  701 at Fri Sep  2 17:15:34 2022, MaxMem=  209715200 cpu:       3.6
 (Enter /opt/gaussian/l702.exe)
 L702 exits ... SP integral derivatives will be done elsewhere.
 Leave Link  702 at Fri Sep  2 17:15:34 2022, MaxMem=  209715200 cpu:       0.2
 (Enter /opt/gaussian/l703.exe)
 Compute integral first derivatives, UseDBF=F ICtDFT=           0.
 Integral derivatives from FoFDir, PRISM(SPDF).
 Calling FoFJK, ICntrl=      2127 FMM=F ISym2X=0 I1Cent= 0 IOpClX= 0 NMat=1 NMatS=1 NMatT=0.
 FoFCou: FMM=F IPFlag=           0 FMFlag=      100000 FMFlg1=         800
         NFxFlg=           0 DoJE=F BraDBF=F KetDBF=F FulRan=T
         Omega=  0.000000  0.000000  1.000000  0.000000  0.000000 ICntrl=    2127 IOpCl=  0
         NMat0=    1 NMatS0=    1 NMatT0=    0 NMatD0=    1 NMtDS0=    0 NMtDT0=    0
         I1Cent=           0 NGrid=           0.
 Symmetry not used in FoFCou.
 Leave Link  703 at Fri Sep  2 17:19:59 2022, MaxMem=  209715200 cpu:    2119.3
 (Enter /opt/gaussian/l716.exe)
 Dipole        = 9.27918057D-01 2.05425374D+00 3.61572389D-02
 ***** Axes restored to original set *****
 -------------------------------------------------------------------
 Center     Atomic                   Forces (Hartrees/Bohr)
 Number     Number              X              Y              Z
 -------------------------------------------------------------------
      1        6          -0.005003816   -0.006411336   -0.021314154
      2        8          -0.009095831    0.002615386    0.000586646
      3        6           0.004245584    0.004493461    0.011374137
      4        7           0.013476965    0.001655283    0.013665950
      5        6          -0.013641883    0.005933019    0.003869484
      6        6          -0.005049165    0.000640181   -0.001816483
      7        6           0.005720108   -0.001449345    0.002799706
      8        6          -0.013043009    0.003731638   -0.001703841
      9        6           0.010566531   -0.002881854    0.000954775
     10        6          -0.002810751    0.003058312   -0.000291397
     11        6           0.002807012   -0.000060161    0.002274921
     12        6          -0.009812512    0.002746488   -0.001652265
     13        6           0.002397015   -0.001692066   -0.000713599
     14        6          -0.003530385   -0.002059926   -0.000602174
     15        7           0.005849310    0.006042711   -0.004266070
     16        6          -0.002225678   -0.002157130    0.013937082
     17        6          -0.002098715    0.007022503   -0.022496145
     18        6           0.007692764   -0.019295769   -0.000123887
     19        6           0.001587458   -0.006782894    0.032629635
     20       16           0.004272663   -0.008327287   -0.023419376
     21        6          -0.010445911    0.024777358    0.019782614
     22        6           0.002122912   -0.013479230    0.009189732
     23        8          -0.000165520    0.000791232   -0.001432326
     24        6           0.000958017   -0.004550326    0.003650390
     25        7           0.000101076    0.000303892   -0.000005818
     26        7           0.010400912    0.009829337   -0.011180698
     27        7          -0.014863214   -0.016972138    0.004518695
     28        6          -0.002635701   -0.007868117   -0.013972916
     29        6           0.001596441    0.001496118   -0.002003260
     30        6           0.004788360    0.006396625    0.001317812
     31        6          -0.004767649   -0.005985231   -0.001073939
     32        6           0.000397656   -0.000771608   -0.004973831
     33        6           0.007714649    0.010016794    0.004438368
     34        1           0.012837992    0.008537917   -0.001583340
     35        1          -0.009839654    0.006885335    0.008652049
     36        1           0.005249850   -0.012804599    0.006703485
     37        1           0.016834454   -0.003938491    0.002636530
     38        1           0.007073988   -0.007079897   -0.011192072
     39        1          -0.007238696   -0.003174702   -0.012076156
     40        1           0.004796347   -0.012641655   -0.003451782
     41        1          -0.009031560   -0.009836682   -0.005574315
     42        1          -0.004892667    0.012900792    0.003629999
     43        1           0.008924955    0.010123162    0.005552051
     44        1           0.010909297    0.003558672   -0.006004919
     45        1          -0.008345577   -0.002025748   -0.009416456
     46        1          -0.000598073    0.002679615   -0.014251957
     47        1          -0.006080111    0.015128080   -0.000902978
     48        1           0.003966565   -0.011489690    0.010248606
     49        1          -0.003770788    0.012189329    0.004989240
     50        1          -0.001375471    0.001690138   -0.013531463
     51        1          -0.008204025   -0.011308375   -0.003575833
     52        1          -0.007615245   -0.006091857    0.010560755
[...]
 48792,-0.00112309,0.00175909,0.01466906,0.01484981,0.01165051,-0.05310
 936,-0.05513360,-0.08026980,-0.02043036,-0.02048370,-0.00205310,0.0003
 0420,-0.00060440,-0.00504999,0.00024508,0.00024805,-0.00089223,0.00193
 120,0.00131929,-0.00278589,-0.00000041,-0.00000009,0.00000008,0.000000
 16,0.00000010,0.00000003,-0.00000021,0.00000024,-0.00000024,-0.0000004
 5,0.00000007,-0.00000003,-0.00000010,0.00000013,0.00000030,0.00000025,
 -0.00000032,-0.00000022,0.00000032,0.00000024,0.00000042,0.00000061,-0
 .00000010,0.00000073,0.00000039,0.00000020,-0.00000036,0.00000029,-0.0
 0000030,0.00000003,0.00000221,0.00000149,0.00000307,0.00000112,-0.0000
 0051,0.00000559,0.00000078,0.00000031,0.00000049,0.00000043,0.00000030
 ,0.00000072,0.00000368,0.00000048,-0.00000211,-0.00002820,-0.00001818,
 0.00000919,0.00009377,0.00009361,-0.00002166,0.05778132,0.06036332,0.0
 7696683,0.00000487,0.00000142,0.00000794,-0.00000230,-0.00000347,-0.00
 001002,-0.00000328,0.00000472,0.00000571,-0.00000167,-0.00000111,-0.00
 000396,-0.00000131,0.00000282,0.00000355,-0.00000342,-0.00000017,-0.00
 000436,-0.00000056,-0.00000137,-0.00000101,0.00000771,-0.00000074,0.00
 000253,-0.00000200,-0.00000094,-0.00000264,0.00000300,-0.00000292,-0.0
 0000015,-0.00000909,0.00000842,-0.00000478,0.00005161,-0.00002293,0.00
 000893,-0.00001153,0.00000137,0.00000155,0.00000020,0.00000191,0.00000
 116,-0.00008273,-0.00000908,0.00000381,0.00000030,-0.00000091,-0.00000
 891,-0.00000537,-0.00000437,-0.00001249,0.00000006,-0.00000143,-0.0000
 0258,-0.00000258,-0.00000743,0.00000233,-0.00000002,0.00000987,0.00000
 680,-0.00002016,-0.00000836,0.00000905,0.00011258,0.00001819,0.0000023
 5,-0.00003518,-0.00001001,0.00001818,0.00005464,0.00006997,-0.00000278
 ,-0.00004009,-0.00000399,-0.00004605,-0.00057525,0.00087116,-0.0000519
 1,0.00089774,-0.00062504,0.00005759,0.00433997,-0.00370653,-0.00128484
 ,0.00545308,0.00219026,-0.00494853,-0.12432524,-0.08069366,0.10586443,
 -0.00757324,-0.00835197,0.01622649,0.00037987,-0.00478206,-0.00197515,
 -0.00028024,0.00020184,-0.00086799,-0.00000067,-0.00000001,-0.00000076
 ,0.00000027,-0.00000087,0.00000018,-0.00000174,0.00000102,-0.00000092,
 -0.00000112,0.00000003,0.,-0.00000106,0.00000031,0.00000079,0.00000100
 ,-0.00000161,-0.00000044,-0.00000277,0.00000215,0.00000157,0.00000423,
 -0.00000492,-0.00000059,0.00000350,0.00000251,0.00000004,-0.00000081,-
 0.00000100,0.00000048,-0.00000250,-0.00000131,0.00000129,0.00000064,0.
 00000366,-0.00000484,0.00000233,0.00000071,0.00000077,0.00000172,0.000
 00095,0.00000110,0.00001997,0.00000267,0.00000153,0.00000475,0.0000178
 8,-0.00006486,-0.00001459,0.00001161,0.00001652,-0.00199872,0.00282645
 ,0.00009883,0.12496613,0.00000607,0.00000487,0.00000911,-0.00000333,-0
 .00000766,-0.00001121,-0.00000328,0.00000777,0.00000637,-0.00000202,-0
 .00000303,-0.00000387,-0.00000016,0.00000296,0.00000432,-0.00000406,-0
 .00000150,-0.00000427,-0.00000002,-0.00000223,-0.00000074,0.00000649,-
 0.00000151,0.00000204,0.00000060,-0.00000230,-0.00000204,0.00000172,-0
 .00000275,0.00000135,-0.00000587,0.00000875,-0.00000098,0.00003959,-0.
 00001633,0.00000850,-0.00000805,0.00000221,0.00000209,-0.00000178,0.00
 000109,0.00000150,-0.00007726,-0.00005640,0.00001440,-0.00000937,0.000
 01870,-0.00001253,-0.00000208,-0.00000238,-0.00000949,0.00000237,-0.00
 000494,-0.00000655,0.00000397,-0.00001140,0.00000645,-0.00000134,0.000
 00522,0.00000132,-0.00001372,0.00000255,0.00001083,0.00008023,0.000162
 49,-0.00009887,-0.00006025,-0.00006082,0.00010939,0.00000510,-0.000020
 73,-0.00003272,0.00004773,0.00001585,-0.00000009,0.00083805,-0.0006230
 2,-0.00004227,-0.00050576,0.00102273,-0.00009905,-0.00381902,0.0040903
 5,-0.00200936,0.00370943,0.00608142,-0.00631268,-0.08077438,-0.1081633
 0,0.09332533,-0.00973164,-0.00655387,0.01635526,-0.00472669,0.00036951
 ,-0.00224802,0.00024157,-0.00036179,-0.00086365,-0.00000162,-0.0000004
 4,-0.00000021,0.00000078,-0.00000047,-0.00000037,-0.00000107,0.0000004
 8,-0.00000086,-0.00000106,0.00000048,-0.00000027,-0.00000054,0.0000008
 8,0.00000029,0.00000112,-0.00000072,-0.00000129,0.00000013,0.00000136,
 -0.00000009,0.00000310,-0.00000324,-0.00000462,0.00000155,0.00000107,-
 0.00000078,-0.00000104,-0.00000097,-0.00000009,-0.00000225,-0.00000502
 ,0.00000040,0.00000244,-0.00000024,-0.00000318,0.00000034,0.00000053,0
 .00000121,-0.00000051,-0.00000101,0.00000170,0.00001472,0.00000474,0.0
 0000114,-0.00001751,0.00001667,0.00003604,0.00000113,-0.00000742,-0.00
 000107,0.00278876,-0.00207778,0.00050354,0.09048511,0.10752972,-0.0000
 0625,-0.00000351,-0.00000839,0.00000418,0.00000528,0.00000996,0.000002
 81,-0.00000583,-0.00000487,0.00000337,0.00000191,0.00000384,0.00000014
 ,-0.00000304,-0.00000453,0.00000493,0.00000107,0.00000541,-0.00000018,
 0.00000259,0.00000119,-0.00000867,0.00000106,-0.00000368,0.00000099,0.
 00000197,0.00000246,-0.00000281,0.00000397,0.00000032,0.00000835,-0.00
 001232,0.00000333,-0.00005312,0.00002947,-0.00001414,0.00001422,-0.000
 00385,-0.00000133,0.00000205,-0.00000070,-0.00000041,0.00012399,0.0000
 2733,0.00000052,0.00000062,-0.00001919,0.00000139,0.00000790,-0.000001
 59,-0.00000014,0.00000249,0.00000050,0.00000950,-0.00000088,0.00000583
 ,-0.00000308,-0.00000282,0.00000308,0.00000447,0.00000701,0.00000315,-
 0.00001174,-0.00015742,-0.00002941,-0.00001468,0.00007766,0.00001907,0
 .00000731,-0.00009025,-0.00011720,0.00005269,0.00010760,0.00014981,0.0
 0049055,-0.00007733,-0.00001565,-0.00100781,0.00119346,0.00104460,0.00
 001309,-0.00216448,-0.00294678,-0.00440209,0.01729371,0.01571963,-0.01
 672372,0.10584612,0.09312716,-0.19813247,-0.00632404,-0.00579434,0.008
 41779,-0.00138952,-0.00163441,0.00051501,-0.00041585,-0.00038829,-0.00
 046406,0.00000139,0.00000039,0.00000020,-0.00000051,0.00000034,0.00000
 023,0.00000113,-0.00000061,0.00000096,0.00000149,-0.00000036,0.0000002
 9,0.00000102,-0.00000086,-0.00000072,-0.00000149,0.00000144,0.00000107
 ,0.00000145,-0.00000203,-0.00000071,-0.00000560,0.00000513,0.00000182,
 -0.00000192,-0.00000149,-0.00000023,0.00000143,0.00000105,-0.00000002,
 0.00000399,0.00000673,0.00000259,-0.00000198,-0.00000431,0.00001218,-0
 .00000111,-0.00000267,0.00000004,-0.00000065,0.00000014,0.00000006,-0.
 00000290,-0.00000138,-0.00000253,0.00002505,0.00002504,-0.00000559,-0.
 00000061,-0.00000932,-0.00001747,-0.00032220,0.00009152,0.00125727,-0.
 11353032,-0.09935591,0.20888834,-0.00000388,-0.00000129,0.00000034,0.0
 0000715,-0.00000168,-0.00000541,-0.00000475,0.00000502,0.00000805,0.00
 000502,-0.00000082,-0.00000099,-0.00000263,0.00000004,-0.00000128,0.00
 000303,0.00000055,0.00000132,-0.00000157,0.00000278,0.00000137,-0.0000
 0276,-0.00000151,-0.00000352,-0.00000449,0.00000086,-0.00000088,0.0000
 0041,0.00000093,-0.00000319,-0.00000134,0.00000358,-0.00000175,0.00001
 225,-0.00000443,0.00000346,-0.00000174,-0.00000076,-0.00000403,-0.0000
 0067,-0.00000034,-0.00000159,-0.00001010,0.00000954,-0.00001137,0.0000
 0452,-0.00000378,0.00000901,-0.00000286,0.00000726,0.00000672,-0.00000
 483,0.00000522,-0.00000738,-0.00000166,0.00000333,-0.00000004,0.000003
 55,-0.00000973,-0.00000167,0.00000422,-0.00000731,-0.00000116,0.000059
 79,-0.00002694,0.00004195,-0.00005066,0.00002672,-0.00005460,0.0001055
 0,0.00002158,0.00000136,0.00135076,-0.00007968,0.00069877,-0.00092927,
 0.00037144,0.00027617,0.00017018,0.00018809,-0.00027519,-0.00094558,-0
 .00031591,0.00060875,-0.00008188,-0.00543010,-0.00052909,0.00094260,-0
 .00311156,-0.02092450,-0.05227820,-0.01737813,-0.03587747,0.00538346,0
 .00293472,0.01706104,0.00182702,-0.00538981,0.00285203,0.00000130,0.00
 000046,-0.00000145,-0.00000066,-0.00000189,-0.00000004,-0.00000133,0.0
 0000029,-0.00000012,0.00000085,-0.00000051,0.00000027,0.00000024,-0.00
 000084,-0.00000017,-0.00000076,-0.00000017,0.00000075,-0.00000173,0.00
 000020,0.00000224,0.00000108,-0.00000154,0.00000416,0.00000013,-0.0000
 0054,0.00000251,-0.00000075,-0.00000006,0.00000115,-0.00000007,-0.0000
 0116,-0.00000111,-0.00000141,0.00000214,-0.00000549,0.00000061,0.00000
 079,-0.00000244,0.00000145,0.00000171,-0.00000267,-0.00000719,-0.00000
 118,0.00001178,-0.00001040,0.00000417,0.00000077,-0.00002568,0.0000008
 9,0.00000561,0.00000426,-0.00022997,-0.00097826,-0.00102326,0.00216003
 ,0.00013092,0.04717069,-0.00000116,0.00000312,0.00000034,0.00000144,-0
 .00000417,-0.00000112,-0.00000108,0.00000376,0.00000203,0.00000150,-0.
 00000174,0.00000053,0.00000016,-0.00000025,-0.00000033,0.00000084,-0.0
 0000086,0.00000085,-0.00000008,0.,0.00000044,-0.00000231,-0.00000113,-
 0.00000152,0.00000082,-0.00000094,0.00000055,0.00000007,-0.00000036,0.
 00000071,0.00000258,-0.00000007,0.00000188,-0.00001222,0.00000099,0.00
 000310,0.00000157,0.00000409,-0.00000102,-0.00000269,-0.00000156,-0.00
 000104,-0.00001819,-0.00002835,0.00000871,-0.00000556,0.00002578,0.000
 00070,-0.00000602,0.00000805,0.00000120,0.00000188,-0.00000487,-0.0000
 1746,0.00001524,-0.00000813,0.00001668,-0.00000457,-0.00001406,-0.0000
 1091,0.00000854,0.00001549,0.00000969,0.00004011,0.00003758,-0.0000243
 1,-0.00001747,-0.00004025,0.00000939,-0.00000415,0.00009235,0.00003565
 ,-0.00023917,0.00129706,0.00046541,0.00046179,-0.00085915,0.00030422,0
 .00016268,0.00011315,-0.00022125,-0.00025675,-0.00077892,0.00063591,-0
 .00548380,0.00002590,-0.00065825,-0.00194604,-0.00029911,-0.02105787,-
 0.01714583,-0.05641241,-0.05206572,0.00174118,0.00606186,0.01564648,-0
 .00541184,0.00239010,0.00208922,-0.00000038,-0.00000032,0.00000017,0.0
 0000023,-0.00000001,-0.00000070,0.00000064,-0.00000072,0.00000009,0.00
 000043,0.00000019,-0.00000015,0.00000047,0.00000017,-0.00000051,-0.000
 00016,0.00000074,-0.00000037,0.00000189,-0.00000102,-0.00000138,-0.000
 00040,0.00000089,-0.00000227,-0.00000284,-0.00000233,0.00000071,-0.000
 00094,0.00000032,-0.00000016,0.00000054,-0.00000621,-0.00000338,0.0000
 0098,-0.00000424,-0.00000419,-0.00000233,-0.00000049,-0.00000232,-0.00
 000239,-0.00000157,-0.00000084,-0.00001548,0.00000120,0.00000874,0.000
 00594,0.00001237,0.00000191,-0.00000006,-0.00002426,0.00001541,-0.0001
 4648,-0.00006915,-0.00098240,0.00213749,-0.00112208,0.00037935,0.02330
 027,0.05159388,-0.00000482,-0.00000622,-0.00001461,-0.00000331,0.00001
 428,0.00002390,0.00001082,-0.00001810,-0.00001959,-0.00000281,0.000005
 66,0.00000747,0.00000325,-0.00000474,-0.00000537,0.00000295,0.00000153
 ,0.00000535,0.00000143,0.00000011,-0.00000063,-0.00000656,0.00000431,0
 .00000091,0.00000446,0.00000272,0.00000388,-0.00000376,0.00000395,0.00
 000301,0.00000961,-0.00001895,0.00000477,-0.00007258,0.00004051,-0.000
 02151,0.00001794,-0.00000680,0.00000193,0.00000461,0.00000044,0.000001
 27,0.00017362,0.00005388,0.00000331,0.00000326,-0.00003879,-0.00000059
 ,0.00001501,-0.00001126,0.00000513,0.00000246,0.00000527,0.00002900,-0
 .00001271,0.00001571,-0.00002176,-0.00000053,0.00001418,0.00001356,0.0
 0001138,-0.00000572,-0.00002439,-0.00026175,-0.00006648,0.00000257,0.0
 0014698,0.00003541,0.00000212,-0.00018539,-0.00023387,0.00001129,-0.00
 048454,-0.00063834,-0.00070387,0.00046839,0.00054616,-0.00034035,-0.00
 022216,-0.00021775,0.00015737,0.00019153,0.00025207,0.00050177,-0.0009
 7870,-0.00116394,0.00138034,0.00133728,0.00087904,-0.00484736,-0.03532
 862,-0.05178272,-0.32324159,-0.00484771,-0.00582487,-0.01608442,0.0028
 3333,0.00233009,-0.00077038,0.00000110,0.00000016,0.00000191,-0.000000
 47,0.00000275,0.00000082,0.00000306,-0.00000094,0.00000154,0.00000073,
 -0.00000008,0.00000007,0.00000054,-0.00000024,-0.00000035,-0.00000082,
 0.00000144,0.00000099,0.00000203,-0.00000221,-0.00000281,-0.00000713,0
 .00000696,-0.00000013,-0.00000103,-0.00000010,-0.00000264,0.00000309,0
 .00000130,-0.00000125,0.00000385,0.00001322,0.00000461,-0.00000140,-0.
 00000213,0.00001977,-0.00000053,-0.00000254,0.00000295,0.00000032,0.00
 000050,0.00000077,-0.00000318,-0.00000396,-0.00001635,0.00002216,0.000
 00531,0.00001453,0.00003252,0.00001537,-0.00003406,0.00008117,0.000045
 06,-0.00030075,-0.00025324,-0.00001866,0.00081576,0.03744756,0.0555592
 9,0.34247789,-0.00000637,-0.00000739,-0.00001115,0.00000304,0.00001187
 ,0.00001334,0.00000459,-0.00001136,-0.00000857,0.00000100,0.00000449,0
 .00000436,0.00000081,-0.00000342,-0.00000466,0.00000397,0.00000187,0.0
 0000432,0.00000006,0.00000251,0.00000049,-0.00000621,0.00000303,-0.000
 00039,-0.00000143,0.00000586,0.00000184,-0.00000507,0.00000759,-0.0000
 0314,0.00000544,-0.00001441,0.00000260,-0.00005133,0.00001890,-0.00000
 651,0.00000492,-0.00000876,-0.00000192,0.00000580,0.00000050,-0.000003
 93,0.00009013,0.00016901,-0.00003936,0.00002767,-0.00010037,0.00003336
 ,0.00000280,0.00000858,0.00000440,-0.00001925,0.00002949,0.00002863,-0
 .00004651,0.00004583,-0.00004957,0.00000293,0.00001885,0.00003208,0.00
 001263,-0.00012133,-0.00001104,-0.00001584,-0.00054695,0.00060950,-0.0
 0012473,0.00024922,-0.00027046,-0.00030814,0.00000825,-0.00017621,-0.0
 0112670,0.00140128,0.00031512,-0.00006224,-0.00020631,-0.00038186,0.00
 002905,-0.00013523,-0.00008780,0.00367748,-0.00163367,-0.00000081,-0.0
 0016775,0.00047033,0.00019101,0.00325131,-0.00403078,0.00317166,-0.007
 27586,-0.01004625,-0.00725938,-0.18132235,-0.14375593,-0.05560623,0.00
 024497,-0.00224086,0.00060638,0.00000228,0.00000055,0.00000028,-0.0000
 0111,0.00000033,0.00000097,0.00000096,0.00000002,0.00000100,0.00000087
 ,-0.00000057,0.00000031,0.00000044,-0.00000097,-0.00000010,-0.00000113
 ,0.00000043,0.00000152,-0.00000148,-0.00000070,0.00000034,-0.00000422,
 0.00000294,0.00000777,0.00000421,0.00000033,0.00000307,0.00000213,0.00
 000048,0.00000044,-0.00000146,0.00001870,0.00000390,-0.00000764,0.0000
 1206,-0.00000131,0.00000780,0.00000602,0.00000076,0.00000107,0.0000046
 0,-0.00000224,-0.00003368,-0.00003982,0.00001598,0.00008582,0.00018171
 ,-0.00021267,0.00003721,0.00011397,-0.00002519,-0.00068947,0.00062686,
 -0.00009252,-0.00028772,-0.00066642,-0.00030655,-0.00165790,0.00284111
 ,-0.00015267,0.18571423,0.00001241,0.00001041,0.00001466,-0.00001116,-
 0.00001329,-0.00001248,-0.00000264,0.00001094,0.00000352,-0.00000726,-
 0.00000468,-0.00000489,0.00000031,0.00000503,0.00000784,-0.00000904,-0
 .00000283,-0.00000841,0.00000026,-0.00000746,-0.00000368,0.00001558,-0
 .00000341,0.00000506,0.00000001,-0.00001184,-0.00000605,0.00001315,-0.
 00001865,0.00001227,-0.00002205,0.00002955,0.00000310,0.00010981,-0.00
 001785,0.00002642,-0.00000735,0.00002131,0.00000833,-0.00001465,0.0000
 0173,0.00000837,-0.00020997,-0.00049152,0.00012085,-0.00007131,0.00017
 381,-0.00007236,0.00003280,-0.00003690,0.00010623,-0.00002406,0.000048
 26,-0.00002550,0.00003874,-0.00002061,-0.00004660,0.00001904,-0.000099
 16,-0.00003432,0.00004969,0.00008886,-0.00001309,-0.00000135,0.0016015
 5,-0.00097580,-0.00004946,-0.00064258,0.00119621,0.00003108,-0.0005241
 8,-0.00021785,0.00146703,-0.00107218,0.00082404,-0.00031888,-0.0001660
 9,-0.00048238,-0.00018924,-0.00006958,-0.00029595,-0.00181104,0.003938
 96,-0.00070111,0.00062790,-0.00013859,-0.00004705,-0.00428220,0.004070
 01,0.00272818,-0.00926663,-0.00655086,-0.00648481,-0.14257417,-0.16994
 363,-0.05469582,-0.00377873,-0.00092478,-0.00009505,-0.00000408,-0.000
 00123,0.00000075,0.00000165,0.00000121,-0.00000129,-0.00000023,-0.0000
 0020,-0.00000142,-0.00000236,0.00000126,-0.00000077,-0.00000179,0.0000
 0241,0.00000064,0.00000298,-0.00000114,-0.00000289,0.00000118,0.000002
 13,-0.00000276,0.00000951,-0.00001512,-0.00002886,-0.00000768,-0.00000
 111,-0.00000430,-0.00000321,-0.00000091,-0.00000192,0.00000419,-0.0000
 3774,-0.00000140,0.00000698,-0.00003179,0.00001071,-0.00001389,-0.0000
 0292,-0.00000135,-0.00000046,-0.00000391,-0.00000372,-0.00008032,0.000
 03825,-0.00000076,-0.00006091,-0.00000034,0.00027513,0.00010452,0.0000
 0701,-0.00008427,0.00065078,-0.00075901,0.00001235,-0.00062632,-0.0002
 3707,-0.00030351,0.00294902,-0.00200026,0.00021275,0.15730392,0.173800
 74,0.00001499,0.00001404,0.00003188,-0.00000138,-0.00002621,-0.0000451
 6,-0.00001905,0.00003269,0.00003179,-0.00000071,-0.00001023,-0.0000145
 1,-0.00000606,0.00001059,0.00001307,-0.00001050,-0.00000328,-0.0000140
 3,-0.00000386,-0.00000555,-0.00000340,0.00002380,-0.00000620,0.0000043
 3,-0.00001161,-0.00000766,-0.00001073,0.00001267,-0.00001185,0.0000027
 5,-0.00004367,0.00004299,-0.00000929,0.00023993,-0.00006734,0.00003364
 ,-0.00003827,0.00000360,0.00000314,-0.00000875,0.00000892,0.00000647,-
 0.00026878,-0.00024888,0.00005623,-0.00002971,0.00008162,-0.00010227,-
 0.00001048,0.00002373,-0.00010578,0.00000829,-0.00005230,-0.00008029,0
 .00003029,-0.00006444,0.00008779,-0.00003836,0.00003317,0.00002340,-0.
 00010998,-0.00004449,0.00006869,0.00064826,0.00081634,-0.00084634,-0.0
 0020920,-0.00026336,0.00066672,-0.00034084,-0.00052183,-0.00020481,0.0
 0055766,0.00080679,0.00322213,-0.00104634,-0.00107504,-0.00057948,-0.0
 0090109,-0.00106054,-0.00189624,0.00129289,0.00075349,-0.00407987,0.00
 039370,0.00031005,-0.00131085,0.00235884,0.00174466,-0.00231851,0.0147
 0254,0.01445679,0.01045303,-0.05601165,-0.05558652,-0.08094817,-0.0211
 1241,-0.02031412,-0.00271104,-0.00000338,-0.00000099,-0.00000306,0.000
 00116,-0.00000443,-0.00000120,-0.00000573,0.00000220,-0.00000344,-0.00
 000268,0.00000078,-0.00000048,-0.00000287,0.00000188,0.00000127,0.0000
 0349,-0.00000388,-0.00000296,-0.00000653,0.00000678,0.00000300,0.00001
 451,-0.00001986,-0.00001628,0.00001089,0.00000489,-0.00000032,-0.00000
 556,-0.00000366,0.00000193,-0.00000349,-0.00001667,0.00001250,0.000019
 34,-0.00000081,0.00000381,0.00000339,-0.00000217,0.00000215,0.00000573
 ,0.00000292,-0.00000023,0.00009768,0.00001621,0.00007519,0.00000355,0.
 00041932,-0.00025614,0.00001135,0.00016044,0.00002640,-0.00012010,-0.0
 0002089,0.00012497,0.00073861,0.00074318,0.00030474,-0.00048123,-0.000
 13988,0.00095414,0.05966076,0.05908500,0.07934974\\0.00000533,0.000006
 68,-0.00000765,-0.00000756,-0.00000462,0.00000441,0.00000973,0.0000068
 3,-0.00000819,0.00000391,-0.00000491,-0.00000065,-0.00000720,0.0000099
 7,0.00001524,-0.00000746,-0.00000077,-0.00000273,0.00000987,-0.0000066
 0,0.00000545,-0.00001499,0.00000575,0.00000539,0.00001248,-0.00000040,
 -0.00000020,-0.00000445,0.00000150,-0.00000092,0.00000246,0.00000168,0
 .00000398,-0.00000342,0.00000593,-0.00000205,-0.00000689,-0.00000826,-
 0.00000185,-0.00000161,-0.00000160,0.00000147,0.00000273,-0.00000491,0
 .00000215,-0.00000026,-0.00000254,0.00000104,0.00000345,-0.00000483,0.
 00001213,-0.00000051,0.00000578,0.00000524,0.00000499,-0.00001319,-0.0
 0001177,-0.00000036,0.00000159,-0.00000112,-0.00000341,0.00000638,-0.0
 0001878,0.00000020,0.00001011,-0.00001224,0.00000783,-0.00000737,0.000
 00998,0.00001036,-0.00000573,0.00000081,-0.00000380,-0.00001590,-0.000
 01322,-0.00000041,0.00002865,0.00000366,0.00000493,-0.00002515,-0.0000
 0139,-0.00000139,0.00001110,0.00000137,-0.00000057,0.00000331,0.000008
 35,-0.00000118,0.00000063,-0.00000586,0.00000308,0.00000592,-0.0000030
 5,-0.00000351,0.00000007,0.00000440,-0.00000331,-0.00000482,0.00000840
 ,0.00000328,0.00000161,-0.00000159,-0.00000357,0.00000603,0.00000374,-
 0.00000024,-0.00000314,0.00000568,0.00000632,-0.00000077,0.00000307,0.
 00000058,-0.00000503,-0.00000264,-0.00000077,-0.00000326,-0.00000285,-
 0.00000128,-0.00000640,0.00000095,-0.00000629,-0.00000769,0.00000056,-
 0.00000102,0.00000554,0.00000035,0.00000119,0.00000339,-0.00000114,0.0
 0000306,0.00000112,-0.00000263,-0.00000288,-0.00000198,-0.00000574,-0.
 00000084,0.00000245,-0.00000843,-0.00000287,0.00000639,-0.00000404,0.0
 0000263,-0.00000316,0.00000358,-0.00000304,0.00000276,0.00000150,-0.00
 000094,-0.00000154,-0.00000542,-0.00000374,-0.00000361,0.00000026,-0.0
 0000226,-0.00000033,0.00000674,-0.00000005,0.00000281,0.00000625,0.000
 00370,0.00000453,0.00000003\\\@


 LIVE PURE, SPEAK TRUE, RIGHT WRONG, FOLLOW THE KING...
 ELSE, WHEREFORE BORN......
           IDYLLS OF THE KING, TENNYSON
 Job cpu time:  0 days 20 hours 40 minutes 24.2 seconds.
 File lengths (MBytes):  RWF=   1970 Int=      0 D2E=      0 Chk=     26 Scr=      1
 Normal termination of Gaussian 09 at Sat Sep  3 00:11:34 2022.
