 Entering Gaussian System, Link 0=g09
 Input=Mol11.gjf
 Output=Mol11.log
 Initial command:
 /opt/gaussian/l1.exe /home/scr/lqcapf-6/Gau-62666.inp -scrdir=/home/scr/lqcapf-6/
 Entering Link 1 = /opt/gaussian/l1.exe PID=     62668.
  
 Copyright (c) 1988,1990,1992,1993,1995,1998,2003,2009,2011,
            Gaussian, Inc.  All Rights Reserved.
  
 This is part of the Gaussian(R) 09 program.  It is based on
 the Gaussian(R) 03 system (copyright 2003, Gaussian, Inc.),
 the Gaussian(R) 98 system (copyright 1998, Gaussian, Inc.),
 the Gaussian(R) 94 system (copyright 1995, Gaussian, Inc.),
 the Gaussian 92(TM) system (copyright 1992, Gaussian, Inc.),
 the Gaussian 90(TM) system (copyright 1990, Gaussian, Inc.),
 the Gaussian 88(TM) system (copyright 1988, Gaussian, Inc.),
 the Gaussian 86(TM) system (copyright 1986, Carnegie Mellon
 University), and the Gaussian 82(TM) system (copyright 1983,
 Carnegie Mellon University). Gaussian is a federally registered
 trademark of Gaussian, Inc.
  
 This software contains proprietary and confidential information,
 including trade secrets, belonging to Gaussian, Inc.
  
 This software is provided under written license and may be
 used, copied, transmitted, or stored only in accord with that
 written license.
  
 The following legend is applicable only to US Government
 contracts under FAR:
  
                    RESTRICTED RIGHTS LEGEND
  
 Use, reproduction and disclosure by the US Government is
 subject to restrictions as set forth in subparagraphs (a)
 and (c) of the Commercial Computer Software - Restricted
 Rights clause in FAR 52.227-19.
  
 Gaussian, Inc.
 340 Quinnipiac St., Bldg. 40, Wallingford CT 06492
  
  
 ---------------------------------------------------------------
 Warning -- This program may not be used in any manner that
 competes with the business of Gaussian, Inc. or will provide
 assistance to any competitor of Gaussian, Inc.  The licensee
 of this program is prohibited from giving any competitor of
 Gaussian, Inc. access to this program.  By using this program,
 the user acknowledges that Gaussian, Inc. is engaged in the
 business of creating and licensing software in the field of
 computational chemistry and represents and warrants to the
 licensee that it is not a competitor of Gaussian, Inc. and that
 it will not use this program in any manner prohibited above.
 ---------------------------------------------------------------
  

 Cite this work as:
 Gaussian 09, Revision C.01,
 M. J. Frisch, G. W. Trucks, H. B. Schlegel, G. E. Scuseria, 
 M. A. Robb, J. R. Cheeseman, G. Scalmani, V. Barone, B. Mennucci, 
 G. A. Petersson, H. Nakatsuji, M. Caricato, X. Li, H. P. Hratchian, 
 A. F. Izmaylov, J. Bloino, G. Zheng, J. L. Sonnenberg, M. Hada, 
 M. Ehara, K. Toyota, R. Fukuda, J. Hasegawa, M. Ishida, T. Nakajima, 
 Y. Honda, O. Kitao, H. Nakai, T. Vreven, J. A. Montgomery, Jr., 
 J. E. Peralta, F. Ogliaro, M. Bearpark, J. J. Heyd, E. Brothers, 
 K. N. Kudin, V. N. Staroverov, T. Keith, R. Kobayashi, J. Normand, 
 K. Raghavachari, A. Rendell, J. C. Burant, S. S. Iyengar, J. Tomasi, 
 M. Cossi, N. Rega, J. M. Millam, M. Klene, J. E. Knox, J. B. Cross, 
 V. Bakken, C. Adamo, J. Jaramillo, R. Gomperts, R. E. Stratmann, 
 O. Yazyev, A. J. Austin, R. Cammi, C. Pomelli, J. W. Ochterski, 
 R. L. Martin, K. Morokuma, V. G. Zakrzewski, G. A. Voth, 
 P. Salvador, J. J. Dannenberg, S. Dapprich, A. D. Daniels, 
 O. Farkas, J. B. Foresman, J. V. Ortiz, J. Cioslowski, 
 and D. J. Fox, Gaussian, Inc., Wallingford CT, 2010.
 
 ******************************************
 Gaussian 09:  EM64L-G09RevC.01 23-Sep-2011
                31-Aug-2022 
 ******************************************
 %nprocshared=8
 Will use up to    8 processors via shared memory.
 %mem=1600MB
 -------------------------
 #p opt freq b3lyp/cc-pvdz
 -------------------------
 1/14=-1,18=20,19=15,26=3,38=1/1,3;
 2/9=110,12=2,17=6,18=5,40=1/2;
 3/5=16,11=2,16=1,25=1,30=1,71=1,74=-5/1,2,3;
 4//1;
 5/5=2,38=5/2;
 6/7=2,8=2,9=2,10=2,28=1/1;
 7//1,2,3,16;
 1/14=-1,18=20,19=15/3(2);
 2/9=110/2;
 99//99;
 2/9=110/2;
 3/5=16,11=2,16=1,25=1,30=1,71=1,74=-5/1,2,3;
 4/5=5,16=3/1;
 5/5=2,38=5/2;
 7//1,2,3,16;
 1/14=-1,18=20,19=15/3(-5);
 2/9=110/2;
 6/7=2,8=2,9=2,10=2,19=2,28=1/1;
 99/9=1/99;
 Leave Link    1 at Wed Aug 31 18:51:51 2022, MaxMem=  209715200 cpu:       0.2
 (Enter /opt/gaussian/l101.exe)
 ---------
 Mol11.log
 ---------
 Charge =  0 Multiplicity = 1
 Symbolic Z-Matrix:
 O                     1.20812  -1.45325  -0.06963 
 C                     1.33448  -0.42397  -0.71265 
 C                     2.71072   0.02609  -1.18837 
 N                     3.72866  -0.92514  -0.86791 
 N                     4.16428  -1.7906   -1.82816 
 N                     5.02938  -2.57246  -1.33188 
 C                     5.20098  -2.26034   0.00757 
 C                     6.0354   -2.82491   0.97127 
 C                     5.98847  -2.28985   2.23516 
 C                     5.12462  -1.21383   2.53844 
 C                     4.29705  -0.65357   1.59483 
 C                     4.35423  -1.20176   0.311 
 N                     0.26787   0.37764  -1.04334 
 C                     0.44205   1.68533  -1.68121 
 C                     0.87174   2.79857  -0.75413 
 C                     1.23028   4.10632  -1.26749 
 C                     1.58013   4.98633  -0.31781 
 S                     1.49805   4.26615   1.31548 
 C                     0.9631    2.72268   0.58535 
 C                    -1.07059  -0.0624   -0.7723 
 C                    -1.9787    0.803    -0.17713 
 C                    -3.28851   0.40113   0.03663 
 C                    -3.70706  -0.86908  -0.33514 
 C                    -2.79484  -1.72591  -0.94355 
 C                    -1.48857  -1.33192  -1.15975 
 C                    -5.10458  -1.35277  -0.14324 
 O                    -5.57675  -2.22941  -0.86403 
 N                    -5.81686  -0.79461   0.86939 
 C                    -7.1712   -1.17167   1.14622 
 C                    -8.26735  -0.65273   0.2675 
 C                    -8.10222  -0.10926   1.66228 
 H                     2.71237   0.12544  -2.26376 
 H                     2.96014   0.98737  -0.76085 
 H                     6.68036  -3.64275   0.72078 
 H                     6.61031  -2.69083   3.01086 
 H                     5.11351  -0.82822   3.53944 
 H                     3.63601   0.15301   1.84032 
 H                     1.15239   1.60714  -2.49526 
 H                    -0.50263   1.94332  -2.13902 
 H                     1.21707   4.34811  -2.31162 
 H                     1.88339   6.00178  -0.43726 
 H                     0.74895   1.88716   1.2134 
 H                    -1.67336   1.78586   0.11983 
 H                    -3.97706   1.09942   0.47132 
 H                    -3.125    -2.69645  -1.25308 
 H                    -0.7946   -2.00879  -1.61064 
 H                    -5.34266  -0.25232   1.5504 
 H                    -7.28574  -2.16666   1.53116 
 H                    -7.98253  -0.02541  -0.5531 
 H                    -9.09191  -1.30448   0.05688 
 H                    -8.8131   -0.38337   2.417 
 H                    -7.71685   0.88693   1.76721 
 
 NAtoms=     52 NQM=        0 NQMF=       0 NMMI=     52 NMMIF=      0
                NMic=       0 NMicF=      0.
                    Isotopes and Nuclear Properties:
 (Nuclear quadrupole moments (NQMom) in fm**2, nuclear magnetic moments (NMagM)
  in nuclear magnetons)

  Atom         1           2           3           4           5           6           7           8           9          10
 IAtWgt=          16          12          12          14          14          14          12          12          12          12
 AtmWgt=  15.9949146  12.0000000  12.0000000  14.0030740  14.0030740  14.0030740  12.0000000  12.0000000  12.0000000  12.0000000
 NucSpn=           0           0           0           2           2           2           0           0           0           0
 AtZEff=   0.0000000   0.0000000   0.0000000   0.0000000   0.0000000   0.0000000   0.0000000   0.0000000   0.0000000   0.0000000
 NQMom=    0.0000000   0.0000000   0.0000000   2.0440000   2.0440000   2.0440000   0.0000000   0.0000000   0.0000000   0.0000000
 NMagM=    0.0000000   0.0000000   0.0000000   0.4037610   0.4037610   0.4037610   0.0000000   0.0000000   0.0000000   0.0000000

  Atom        11          12          13          14          15          16          17          18          19          20
 IAtWgt=          12          12          14          12          12          12          12          32          12          12
 AtmWgt=  12.0000000  12.0000000  14.0030740  12.0000000  12.0000000  12.0000000  12.0000000  31.9720718  12.0000000  12.0000000
 NucSpn=           0           0           2           0           0           0           0           0           0           0
 AtZEff=   0.0000000   0.0000000   0.0000000   0.0000000   0.0000000   0.0000000   0.0000000   0.0000000   0.0000000   0.0000000
 NQMom=    0.0000000   0.0000000   2.0440000   0.0000000   0.0000000   0.0000000   0.0000000   0.0000000   0.0000000   0.0000000
 NMagM=    0.0000000   0.0000000   0.4037610   0.0000000   0.0000000   0.0000000   0.0000000   0.0000000   0.0000000   0.0000000

  Atom        21          22          23          24          25          26          27          28          29          30
 IAtWgt=          12          12          12          12          12          12          16          14          12          12
 AtmWgt=  12.0000000  12.0000000  12.0000000  12.0000000  12.0000000  12.0000000  15.9949146  14.0030740  12.0000000  12.0000000
 NucSpn=           0           0           0           0           0           0           0           2           0           0
 AtZEff=   0.0000000   0.0000000   0.0000000   0.0000000   0.0000000   0.0000000   0.0000000   0.0000000   0.0000000   0.0000000
 NQMom=    0.0000000   0.0000000   0.0000000   0.0000000   0.0000000   0.0000000   0.0000000   2.0440000   0.0000000   0.0000000
 NMagM=    0.0000000   0.0000000   0.0000000   0.0000000   0.0000000   0.0000000   0.0000000   0.4037610   0.0000000   0.0000000

  Atom        31          32          33          34          35          36          37          38          39          40
 IAtWgt=          12           1           1           1           1           1           1           1           1           1
 AtmWgt=  12.0000000   1.0078250   1.0078250   1.0078250   1.0078250   1.0078250   1.0078250   1.0078250   1.0078250   1.0078250
 NucSpn=           0           1           1           1           1           1           1           1           1           1
 AtZEff=   0.0000000   0.0000000   0.0000000   0.0000000   0.0000000   0.0000000   0.0000000   0.0000000   0.0000000   0.0000000
 NQMom=    0.0000000   0.0000000   0.0000000   0.0000000   0.0000000   0.0000000   0.0000000   0.0000000   0.0000000   0.0000000
 NMagM=    0.0000000   2.7928460   2.7928460   2.7928460   2.7928460   2.7928460   2.7928460   2.7928460   2.7928460   2.7928460

  Atom        41          42          43          44          45          46          47          48          49          50
 IAtWgt=           1           1           1           1           1           1           1           1           1           1
 AtmWgt=   1.0078250   1.0078250   1.0078250   1.0078250   1.0078250   1.0078250   1.0078250   1.0078250   1.0078250   1.0078250
 NucSpn=           1           1           1           1           1           1           1           1           1           1
 AtZEff=   0.0000000   0.0000000   0.0000000   0.0000000   0.0000000   0.0000000   0.0000000   0.0000000   0.0000000   0.0000000
 NQMom=    0.0000000   0.0000000   0.0000000   0.0000000   0.0000000   0.0000000   0.0000000   0.0000000   0.0000000   0.0000000
 NMagM=    2.7928460   2.7928460   2.7928460   2.7928460   2.7928460   2.7928460   2.7928460   2.7928460   2.7928460   2.7928460

  Atom        51          52
 IAtWgt=           1           1
 AtmWgt=   1.0078250   1.0078250
 NucSpn=           1           1
 AtZEff=   0.0000000   0.0000000
 NQMom=    0.0000000   0.0000000
 NMagM=    2.7928460   2.7928460
 Leave Link  101 at Wed Aug 31 18:51:52 2022, MaxMem=  209715200 cpu:       0.9
 (Enter /opt/gaussian/l103.exe)

 GradGradGradGradGradGradGradGradGradGradGradGradGradGradGradGradGradGrad
 Berny optimization.
 Initialization pass.
                           ----------------------------
                           !    Initial Parameters    !
                           ! (Angstroms and Degrees)  !
 --------------------------                            --------------------------
 ! Name  Definition              Value          Derivative Info.                !
 --------------------------------------------------------------------------------
 ! R1    R(1,2)                  1.2202         estimate D2E/DX2                !
 ! R2    R(2,3)                  1.5241         estimate D2E/DX2                !
 ! R3    R(2,13)                 1.3746         estimate D2E/DX2                !
 ! R4    R(3,4)                  1.4296         estimate D2E/DX2                !
 ! R5    R(3,32)                 1.08           estimate D2E/DX2                !
 ! R6    R(3,33)                 1.0812         estimate D2E/DX2                !
 ! R7    R(4,5)                  1.3641         estimate D2E/DX2                !
 ! R8    R(4,12)                 1.363          estimate D2E/DX2                !
 ! R9    R(5,6)                  1.2673         estimate D2E/DX2                !
 ! R10   R(6,7)                  1.386          estimate D2E/DX2                !
 ! R11   R(7,8)                  1.3942         estimate D2E/DX2                !
 ! R12   R(7,12)                 1.3891         estimate D2E/DX2                !
 ! R13   R(8,9)                  1.3733         estimate D2E/DX2                !
 ! R14   R(8,34)                 1.0713         estimate D2E/DX2                !
 ! R15   R(9,10)                 1.4128         estimate D2E/DX2                !
 ! R16   R(9,35)                 1.072          estimate D2E/DX2                !
 ! R17   R(10,11)                1.3745         estimate D2E/DX2                !
 ! R18   R(10,36)                1.0728         estimate D2E/DX2                !
 ! R19   R(11,12)                1.3971         estimate D2E/DX2                !
 ! R20   R(11,37)                1.0714         estimate D2E/DX2                !
 ! R21   R(13,14)                1.4654         estimate D2E/DX2                !
 ! R22   R(13,20)                1.4348         estimate D2E/DX2                !
 ! R23   R(14,15)                1.5111         estimate D2E/DX2                !
 ! R24   R(14,38)                1.0832         estimate D2E/DX2                !
 ! R25   R(14,39)                1.081          estimate D2E/DX2                !
 ! R26   R(15,16)                1.4499         estimate D2E/DX2                !
 ! R27   R(15,19)                1.3447         estimate D2E/DX2                !
 ! R28   R(16,17)                1.3412         estimate D2E/DX2                !
 ! R29   R(16,40)                1.0718         estimate D2E/DX2                !
 ! R30   R(17,18)                1.7869         estimate D2E/DX2                !
 ! R31   R(17,41)                1.0665         estimate D2E/DX2                !
 ! R32   R(18,19)                1.7893         estimate D2E/DX2                !
 ! R33   R(19,42)                1.067          estimate D2E/DX2                !
 ! R34   R(20,21)                1.3885         estimate D2E/DX2                !
 ! R35   R(20,25)                1.3916         estimate D2E/DX2                !
 ! R36   R(21,22)                1.3866         estimate D2E/DX2                !
 ! R37   R(21,43)                1.0712         estimate D2E/DX2                !
 ! R38   R(22,23)                1.3881         estimate D2E/DX2                !
 ! R39   R(22,44)                1.0727         estimate D2E/DX2                !
 ! R40   R(23,24)                1.3916         estimate D2E/DX2                !
 ! R41   R(23,26)                1.4913         estimate D2E/DX2                !
 ! R42   R(24,25)                1.3814         estimate D2E/DX2                !
 ! R43   R(24,45)                1.0709         estimate D2E/DX2                !
 ! R44   R(25,46)                1.0691         estimate D2E/DX2                !
 ! R45   R(26,27)                1.2292         estimate D2E/DX2                !
 ! R46   R(26,28)                1.3581         estimate D2E/DX2                !
 ! R47   R(28,29)                1.4328         estimate D2E/DX2                !
 ! R48   R(28,47)                0.9913         estimate D2E/DX2                !
 ! R49   R(29,30)                1.4977         estimate D2E/DX2                !
 ! R50   R(29,31)                1.5039         estimate D2E/DX2                !
 ! R51   R(29,48)                1.073          estimate D2E/DX2                !
 ! R52   R(30,31)                1.506          estimate D2E/DX2                !
 ! R53   R(30,49)                1.0715         estimate D2E/DX2                !
 ! R54   R(30,50)                1.0719         estimate D2E/DX2                !
 ! R55   R(31,51)                1.0724         estimate D2E/DX2                !
 ! R56   R(31,52)                1.0733         estimate D2E/DX2                !
 ! A1    A(1,2,3)              120.4703         estimate D2E/DX2                !
 ! A2    A(1,2,13)             122.5702         estimate D2E/DX2                !
 ! A3    A(3,2,13)             116.9595         estimate D2E/DX2                !
 ! A4    A(2,3,4)              112.118          estimate D2E/DX2                !
 ! A5    A(2,3,32)             109.8374         estimate D2E/DX2                !
 ! A6    A(2,3,33)             110.3297         estimate D2E/DX2                !
 ! A7    A(4,3,32)             106.4593         estimate D2E/DX2                !
 ! A8    A(4,3,33)             109.7965         estimate D2E/DX2                !
 ! A9    A(32,3,33)            108.1549         estimate D2E/DX2                !
 ! A10   A(3,4,5)              119.4548         estimate D2E/DX2                !
 ! A11   A(3,4,12)             130.9763         estimate D2E/DX2                !
 ! A12   A(5,4,12)             109.4835         estimate D2E/DX2                !
 ! A13   A(4,5,6)              109.4967         estimate D2E/DX2                !
 ! A14   A(5,6,7)              108.9074         estimate D2E/DX2                !
 ! A15   A(6,7,8)              130.6116         estimate D2E/DX2                !
 ! A16   A(6,7,12)             107.8929         estimate D2E/DX2                !
 ! A17   A(8,7,12)             121.4954         estimate D2E/DX2                !
 ! A18   A(7,8,9)              117.2544         estimate D2E/DX2                !
 ! A19   A(7,8,34)             120.5216         estimate D2E/DX2                !
 ! A20   A(9,8,34)             122.224          estimate D2E/DX2                !
 ! A21   A(8,9,10)             121.0109         estimate D2E/DX2                !
 ! A22   A(8,9,35)             120.0265         estimate D2E/DX2                !
 ! A23   A(10,9,35)            118.9622         estimate D2E/DX2                !
 ! A24   A(9,10,11)            122.0884         estimate D2E/DX2                !
 ! A25   A(9,10,36)            118.7118         estimate D2E/DX2                !
 ! A26   A(11,10,36)           119.1991         estimate D2E/DX2                !
 ! A27   A(10,11,12)           116.5047         estimate D2E/DX2                !
 ! A28   A(10,11,37)           121.4042         estimate D2E/DX2                !
 ! A29   A(12,11,37)           122.0867         estimate D2E/DX2                !
 ! A30   A(4,12,7)             104.2113         estimate D2E/DX2                !
 ! A31   A(4,12,11)            134.1382         estimate D2E/DX2                !
 ! A32   A(7,12,11)            121.6459         estimate D2E/DX2                !
 ! A33   A(2,13,14)            122.2011         estimate D2E/DX2                !
 ! A34   A(2,13,20)            119.9701         estimate D2E/DX2                !
 ! A35   A(14,13,20)           117.8278         estimate D2E/DX2                !
 ! A36   A(13,14,15)           115.0988         estimate D2E/DX2                !
 ! A37   A(13,14,38)           109.9172         estimate D2E/DX2                !
 ! A38   A(13,14,39)           107.0649         estimate D2E/DX2                !
 ! A39   A(15,14,38)           109.1333         estimate D2E/DX2                !
 ! A40   A(15,14,39)           109.4207         estimate D2E/DX2                !
 ! A41   A(38,14,39)           105.785          estimate D2E/DX2                !
 ! A42   A(14,15,16)           121.169          estimate D2E/DX2                !
 ! A43   A(14,15,19)           126.0761         estimate D2E/DX2                !
 ! A44   A(16,15,19)           112.754          estimate D2E/DX2                !
 ! A45   A(15,16,17)           113.9293         estimate D2E/DX2                !
 ! A46   A(15,16,40)           123.0465         estimate D2E/DX2                !
 ! A47   A(17,16,40)           123.0242         estimate D2E/DX2                !
 ! A48   A(16,17,18)           111.7647         estimate D2E/DX2                !
 ! A49   A(16,17,41)           128.289          estimate D2E/DX2                !
 ! A50   A(18,17,41)           119.9461         estimate D2E/DX2                !
 ! A51   A(17,18,19)            89.3364         estimate D2E/DX2                !
 ! A52   A(15,19,18)           112.2155         estimate D2E/DX2                !
 ! A53   A(15,19,42)           128.0896         estimate D2E/DX2                !
 ! A54   A(18,19,42)           119.6904         estimate D2E/DX2                !
 ! A55   A(13,20,21)           119.9971         estimate D2E/DX2                !
 ! A56   A(13,20,25)           120.4907         estimate D2E/DX2                !
 ! A57   A(21,20,25)           119.4398         estimate D2E/DX2                !
 ! A58   A(20,21,22)           120.2149         estimate D2E/DX2                !
 ! A59   A(20,21,43)           120.2843         estimate D2E/DX2                !
 ! A60   A(22,21,43)           119.5008         estimate D2E/DX2                !
 ! A61   A(21,22,23)           120.5793         estimate D2E/DX2                !
 ! A62   A(21,22,44)           118.6939         estimate D2E/DX2                !
 ! A63   A(23,22,44)           120.7083         estimate D2E/DX2                !
 ! A64   A(22,23,24)           118.873          estimate D2E/DX2                !
 ! A65   A(22,23,26)           123.0187         estimate D2E/DX2                !
 ! A66   A(24,23,26)           118.0913         estimate D2E/DX2                !
 ! A67   A(23,24,25)           120.8431         estimate D2E/DX2                !
 ! A68   A(23,24,45)           118.8362         estimate D2E/DX2                !
 ! A69   A(25,24,45)           120.3172         estimate D2E/DX2                !
 ! A70   A(20,25,24)           120.0423         estimate D2E/DX2                !
 ! A71   A(20,25,46)           120.0016         estimate D2E/DX2                !
 ! A72   A(24,25,46)           119.9487         estimate D2E/DX2                !
 ! A73   A(23,26,27)           121.0534         estimate D2E/DX2                !
 ! A74   A(23,26,28)           117.0111         estimate D2E/DX2                !
 ! A75   A(27,26,28)           121.9298         estimate D2E/DX2                !
 ! A76   A(26,28,29)           122.1173         estimate D2E/DX2                !
 ! A77   A(26,28,47)           119.09           estimate D2E/DX2                !
 ! A78   A(29,28,47)           117.605          estimate D2E/DX2                !
 ! A79   A(28,29,30)           119.161          estimate D2E/DX2                !
 ! A80   A(28,29,31)           117.7448         estimate D2E/DX2                !
 ! A81   A(28,29,48)           114.4713         estimate D2E/DX2                !
 ! A82   A(30,29,48)           116.9796         estimate D2E/DX2                !
 ! A83   A(31,29,48)           117.7673         estimate D2E/DX2                !
 ! A84   A(29,30,49)           117.2366         estimate D2E/DX2                !
 ! A85   A(29,30,50)           117.8793         estimate D2E/DX2                !
 ! A86   A(31,30,49)           117.9615         estimate D2E/DX2                !
 ! A87   A(31,30,50)           119.0606         estimate D2E/DX2                !
 ! A88   A(49,30,50)           114.2033         estimate D2E/DX2                !
 ! A89   A(29,31,51)           118.1174         estimate D2E/DX2                !
 ! A90   A(29,31,52)           117.8367         estimate D2E/DX2                !
 ! A91   A(30,31,51)           119.1343         estimate D2E/DX2                !
 ! A92   A(30,31,52)           117.7017         estimate D2E/DX2                !
 ! A93   A(51,31,52)           113.982          estimate D2E/DX2                !
 ! D1    D(1,2,3,4)              3.918          estimate D2E/DX2                !
 ! D2    D(1,2,3,32)           122.0663         estimate D2E/DX2                !
 ! D3    D(1,2,3,33)          -118.7962         estimate D2E/DX2                !
 ! D4    D(13,2,3,4)          -176.0231         estimate D2E/DX2                !
 ! D5    D(13,2,3,32)          -57.8748         estimate D2E/DX2                !
 ! D6    D(13,2,3,33)           61.2627         estimate D2E/DX2                !
 ! D7    D(1,2,13,14)          172.8838         estimate D2E/DX2                !
 ! D8    D(1,2,13,20)           -7.5063         estimate D2E/DX2                !
 ! D9    D(3,2,13,14)           -7.1765         estimate D2E/DX2                !
 ! D10   D(3,2,13,20)          172.4334         estimate D2E/DX2                !
 ! D11   D(2,3,4,5)             99.6759         estimate D2E/DX2                !
 ! D12   D(2,3,4,12)           -76.5771         estimate D2E/DX2                !
 ! D13   D(32,3,4,5)           -20.4587         estimate D2E/DX2                !
 ! D14   D(32,3,4,12)          163.2883         estimate D2E/DX2                !
 ! D15   D(33,3,4,5)          -137.3085         estimate D2E/DX2                !
 ! D16   D(33,3,4,12)           46.4385         estimate D2E/DX2                !
 ! D17   D(3,4,5,6)           -177.8858         estimate D2E/DX2                !
 ! D18   D(12,4,5,6)            -0.8858         estimate D2E/DX2                !
 ! D19   D(3,4,12,7)           177.4386         estimate D2E/DX2                !
 ! D20   D(3,4,12,11)           -3.3603         estimate D2E/DX2                !
 ! D21   D(5,4,12,7)             0.8991         estimate D2E/DX2                !
 ! D22   D(5,4,12,11)         -179.8998         estimate D2E/DX2                !
 ! D23   D(4,5,6,7)              0.4653         estimate D2E/DX2                !
 ! D24   D(5,6,7,8)           -179.7564         estimate D2E/DX2                !
 ! D25   D(5,6,7,12)             0.1065         estimate D2E/DX2                !
 ! D26   D(6,7,8,9)            179.7339         estimate D2E/DX2                !
 ! D27   D(6,7,8,34)            -0.3214         estimate D2E/DX2                !
 ! D28   D(12,7,8,9)            -0.1131         estimate D2E/DX2                !
 ! D29   D(12,7,8,34)          179.8316         estimate D2E/DX2                !
 ! D30   D(6,7,12,4)            -0.6178         estimate D2E/DX2                !
 ! D31   D(6,7,12,11)         -179.9443         estimate D2E/DX2                !
 ! D32   D(8,7,12,4)           179.2601         estimate D2E/DX2                !
 ! D33   D(8,7,12,11)           -0.0664         estimate D2E/DX2                !
 ! D34   D(7,8,9,10)             0.16           estimate D2E/DX2                !
 ! D35   D(7,8,9,35)           179.9121         estimate D2E/DX2                !
 ! D36   D(34,8,9,10)         -179.7837         estimate D2E/DX2                !
 ! D37   D(34,8,9,35)           -0.0316         estimate D2E/DX2                !
 ! D38   D(8,9,10,11)           -0.0309         estimate D2E/DX2                !
 ! D39   D(8,9,10,36)          179.6372         estimate D2E/DX2                !
 ! D40   D(35,9,10,11)        -179.7855         estimate D2E/DX2                !
 ! D41   D(35,9,10,36)          -0.1175         estimate D2E/DX2                !
 ! D42   D(9,10,11,12)          -0.1452         estimate D2E/DX2                !
 ! D43   D(9,10,11,37)         179.1094         estimate D2E/DX2                !
 ! D44   D(36,10,11,12)       -179.8117         estimate D2E/DX2                !
 ! D45   D(36,10,11,37)         -0.557          estimate D2E/DX2                !
 ! D46   D(10,11,12,4)        -178.8978         estimate D2E/DX2                !
 ! D47   D(10,11,12,7)           0.1924         estimate D2E/DX2                !
 ! D48   D(37,11,12,4)           1.853          estimate D2E/DX2                !
 ! D49   D(37,11,12,7)        -179.0567         estimate D2E/DX2                !
 ! D50   D(2,13,14,15)         -77.5912         estimate D2E/DX2                !
 ! D51   D(2,13,14,38)          46.0981         estimate D2E/DX2                !
 ! D52   D(2,13,14,39)         160.5473         estimate D2E/DX2                !
 ! D53   D(20,13,14,15)        102.7909         estimate D2E/DX2                !
 ! D54   D(20,13,14,38)       -133.5198         estimate D2E/DX2                !
 ! D55   D(20,13,14,39)        -19.0706         estimate D2E/DX2                !
 ! D56   D(2,13,20,21)         133.6737         estimate D2E/DX2                !
 ! D57   D(2,13,20,25)         -49.4373         estimate D2E/DX2                !
 ! D58   D(14,13,20,21)        -46.6995         estimate D2E/DX2                !
 ! D59   D(14,13,20,25)        130.1894         estimate D2E/DX2                !
 ! D60   D(13,14,15,16)        172.8747         estimate D2E/DX2                !
 ! D61   D(13,14,15,19)         -7.4938         estimate D2E/DX2                !
 ! D62   D(38,14,15,16)         48.7716         estimate D2E/DX2                !
 ! D63   D(38,14,15,19)       -131.597          estimate D2E/DX2                !
 ! D64   D(39,14,15,16)        -66.545          estimate D2E/DX2                !
 ! D65   D(39,14,15,19)        113.0865         estimate D2E/DX2                !
 ! D66   D(14,15,16,17)        179.5729         estimate D2E/DX2                !
 ! D67   D(14,15,16,40)         -0.432          estimate D2E/DX2                !
 ! D68   D(19,15,16,17)         -0.1041         estimate D2E/DX2                !
 ! D69   D(19,15,16,40)        179.891          estimate D2E/DX2                !
 ! D70   D(14,15,19,18)       -179.5711         estimate D2E/DX2                !
 ! D71   D(14,15,19,42)         -0.3585         estimate D2E/DX2                !
 ! D72   D(16,15,19,18)          0.0869         estimate D2E/DX2                !
 ! D73   D(16,15,19,42)        179.2995         estimate D2E/DX2                !
 ! D74   D(15,16,17,18)          0.0703         estimate D2E/DX2                !
 ! D75   D(15,16,17,41)        179.9052         estimate D2E/DX2                !
 ! D76   D(40,16,17,18)       -179.9248         estimate D2E/DX2                !
 ! D77   D(40,16,17,41)         -0.0899         estimate D2E/DX2                !
 ! D78   D(16,17,18,19)         -0.0184         estimate D2E/DX2                !
 ! D79   D(41,17,18,19)       -179.8688         estimate D2E/DX2                !
 ! D80   D(17,18,19,15)         -0.0411         estimate D2E/DX2                !
 ! D81   D(17,18,19,42)       -179.3277         estimate D2E/DX2                !
 ! D82   D(13,20,21,22)        177.3377         estimate D2E/DX2                !
 ! D83   D(13,20,21,43)         -2.6283         estimate D2E/DX2                !
 ! D84   D(25,20,21,22)          0.416          estimate D2E/DX2                !
 ! D85   D(25,20,21,43)       -179.5501         estimate D2E/DX2                !
 ! D86   D(13,20,25,24)       -177.3359         estimate D2E/DX2                !
 ! D87   D(13,20,25,46)          3.6561         estimate D2E/DX2                !
 ! D88   D(21,20,25,24)         -0.4297         estimate D2E/DX2                !
 ! D89   D(21,20,25,46)       -179.4376         estimate D2E/DX2                !
 ! D90   D(20,21,22,23)          0.2599         estimate D2E/DX2                !
 ! D91   D(20,21,22,44)       -178.1878         estimate D2E/DX2                !
 ! D92   D(43,21,22,23)       -179.7738         estimate D2E/DX2                !
 ! D93   D(43,21,22,44)          1.7786         estimate D2E/DX2                !
 ! D94   D(21,22,23,24)         -0.9088         estimate D2E/DX2                !
 ! D95   D(21,22,23,26)       -179.3792         estimate D2E/DX2                !
 ! D96   D(44,22,23,24)        177.5074         estimate D2E/DX2                !
 ! D97   D(44,22,23,26)         -0.963          estimate D2E/DX2                !
 ! D98   D(22,23,24,25)          0.8967         estimate D2E/DX2                !
 ! D99   D(22,23,24,45)       -178.4346         estimate D2E/DX2                !
 ! D100  D(26,23,24,25)        179.4429         estimate D2E/DX2                !
 ! D101  D(26,23,24,45)          0.1116         estimate D2E/DX2                !
 ! D102  D(22,23,26,27)        153.7745         estimate D2E/DX2                !
 ! D103  D(22,23,26,28)        -27.0805         estimate D2E/DX2                !
 ! D104  D(24,23,26,27)        -24.7072         estimate D2E/DX2                !
 ! D105  D(24,23,26,28)        154.4378         estimate D2E/DX2                !
 ! D106  D(23,24,25,20)         -0.2318         estimate D2E/DX2                !
 ! D107  D(23,24,25,46)        178.7767         estimate D2E/DX2                !
 ! D108  D(45,24,25,20)        179.0897         estimate D2E/DX2                !
 ! D109  D(45,24,25,46)         -1.9018         estimate D2E/DX2                !
 ! D110  D(23,26,28,29)        179.6064         estimate D2E/DX2                !
 ! D111  D(23,26,28,47)        -13.1499         estimate D2E/DX2                !
 ! D112  D(27,26,28,29)         -1.2567         estimate D2E/DX2                !
 ! D113  D(27,26,28,47)        165.987          estimate D2E/DX2                !
 ! D114  D(26,28,29,30)        -76.6908         estimate D2E/DX2                !
 ! D115  D(26,28,29,31)       -146.2671         estimate D2E/DX2                !
 ! D116  D(26,28,29,48)         68.8722         estimate D2E/DX2                !
 ! D117  D(47,28,29,30)        115.8854         estimate D2E/DX2                !
 ! D118  D(47,28,29,31)         46.3092         estimate D2E/DX2                !
 ! D119  D(47,28,29,48)        -98.5515         estimate D2E/DX2                !
 ! D120  D(28,29,30,49)          1.0409         estimate D2E/DX2                !
 ! D121  D(28,29,30,50)        143.5968         estimate D2E/DX2                !
 ! D122  D(48,29,30,49)       -143.6803         estimate D2E/DX2                !
 ! D123  D(48,29,30,50)         -1.1243         estimate D2E/DX2                !
 ! D124  D(28,29,31,51)       -141.4407         estimate D2E/DX2                !
 ! D125  D(28,29,31,52)          2.0061         estimate D2E/DX2                !
 ! D126  D(48,29,31,51)          2.2576         estimate D2E/DX2                !
 ! D127  D(48,29,31,52)        145.7044         estimate D2E/DX2                !
 ! D128  D(49,30,31,51)        145.5964         estimate D2E/DX2                !
 ! D129  D(49,30,31,52)          0.6901         estimate D2E/DX2                !
 ! D130  D(50,30,31,51)         -0.0934         estimate D2E/DX2                !
 ! D131  D(50,30,31,52)       -144.9998         estimate D2E/DX2                !
 --------------------------------------------------------------------------------
 Trust Radius=3.00D-01 FncErr=1.00D-07 GrdErr=1.00D-06
 Number of steps in this run=    290 maximum allowed number of steps=    312.
 GradGradGradGradGradGradGradGradGradGradGradGradGradGradGradGradGradGrad

 Leave Link  103 at Wed Aug 31 18:51:52 2022, MaxMem=  209715200 cpu:       0.1
 (Enter /opt/gaussian/l202.exe)
 Stoichiometry    C23H21N5O2S
 Framework group  C1[X(C23H21N5O2S)]
 Deg. of freedom   150
 Full point group                 C1      NOp   1
 Largest Abelian subgroup         C1      NOp   1
 Largest concise Abelian subgroup C1      NOp   1
                         Standard orientation:                         
 ---------------------------------------------------------------------
 Center     Atomic      Atomic             Coordinates (Angstroms)
 Number     Number       Type             X           Y           Z
 ---------------------------------------------------------------------
      1          8           0        1.208120   -1.453251   -0.069630
      2          6           0        1.334480   -0.423971   -0.712650
      3          6           0        2.710720    0.026089   -1.188370
      4          7           0        3.728660   -0.925141   -0.867910
      5          7           0        4.164280   -1.790601   -1.828160
      6          7           0        5.029380   -2.572462   -1.331880
      7          6           0        5.200980   -2.260342    0.007570
      8          6           0        6.035400   -2.824912    0.971270
      9          6           0        5.988470   -2.289852    2.235160
     10          6           0        5.124620   -1.213832    2.538440
     11          6           0        4.297050   -0.653571    1.594830
     12          6           0        4.354230   -1.201761    0.311000
     13          7           0        0.267870    0.377640   -1.043340
     14          6           0        0.442051    1.685330   -1.681210
     15          6           0        0.871741    2.798569   -0.754130
     16          6           0        1.230281    4.106319   -1.267490
     17          6           0        1.580132    4.986329   -0.317810
     18         16           0        1.498051    4.266149    1.315480
     19          6           0        0.963101    2.722679    0.585350
     20          6           0       -1.070590   -0.062400   -0.772300
     21          6           0       -1.978699    0.803000   -0.177130
     22          6           0       -3.288510    0.401131    0.036630
     23          6           0       -3.707060   -0.869079   -0.335140
     24          6           0       -2.794840   -1.725910   -0.943550
     25          6           0       -1.488570   -1.331920   -1.159750
     26          6           0       -5.104580   -1.352769   -0.143240
     27          8           0       -5.576750   -2.229409   -0.864030
     28          7           0       -5.816860   -0.794609    0.869390
     29          6           0       -7.171200   -1.171669    1.146220
     30          6           0       -8.267350   -0.652728    0.267500
     31          6           0       -8.102220   -0.109258    1.662280
     32          1           0        2.712370    0.125439   -2.263760
     33          1           0        2.960141    0.987369   -0.760850
     34          1           0        6.680359   -3.642752    0.720780
     35          1           0        6.610310   -2.690832    3.010860
     36          1           0        5.113510   -0.828222    3.539440
     37          1           0        3.636010    0.153009    1.840320
     38          1           0        1.152391    1.607139   -2.495260
     39          1           0       -0.502629    1.943320   -2.139020
     40          1           0        1.217071    4.348109   -2.311620
     41          1           0        1.883392    6.001779   -0.437260
     42          1           0        0.748951    1.887160    1.213400
     43          1           0       -1.673359    1.785860    0.119830
     44          1           0       -3.977059    1.099421    0.471320
     45          1           0       -3.125000   -2.696450   -1.253080
     46          1           0       -0.794600   -2.008790   -1.610640
     47          1           0       -5.342660   -0.252319    1.550400
     48          1           0       -7.285740   -2.166659    1.531160
     49          1           0       -7.982530   -0.025408   -0.553100
     50          1           0       -9.091910   -1.304478    0.056880
     51          1           0       -8.813100   -0.383368    2.417000
     52          1           0       -7.716849    0.886932    1.767210
 ---------------------------------------------------------------------
 Rotational constants (GHZ):      0.1897269      0.0619757      0.0525128
 Leave Link  202 at Wed Aug 31 18:51:52 2022, MaxMem=  209715200 cpu:       0.0
 (Enter /opt/gaussian/l301.exe)
 Standard basis: CC-pVDZ (5D, 7F)
 Ernie: Thresh=  0.10000D-02 Tol=  0.10000D-05 Strict=F.
 Ernie:  70 primitive shells out of 815 were deleted.
 There are   543 symmetry adapted basis functions of A   symmetry.
 Integral buffers will be    131072 words long.
 Raffenetti 2 integral format.
 Two-electron integral symmetry is turned on.
   543 basis functions,  1208 primitive gaussians,   574 cartesian basis functions
   113 alpha electrons      113 beta electrons
       nuclear repulsion energy      2958.3977133439 Hartrees.
 IExCor=  402 DFT=T Ex+Corr=B3LYP ExCW=0 ScaHFX=  0.200000
 ScaDFX=  0.800000  0.720000  1.000000  0.810000 ScalE2=  1.000000  1.000000
 IRadAn=      0 IRanWt=     -1 IRanGd=            0 ICorTp=0
 NAtoms=   52 NActive=   52 NUniq=   52 SFac= 1.00D+00 NAtFMM=   60 NAOKFM=F Big=F
 Leave Link  301 at Wed Aug 31 18:51:52 2022, MaxMem=  209715200 cpu:       0.3
 (Enter /opt/gaussian/l302.exe)
 NPDir=0 NMtPBC=     1 NCelOv=     1 NCel=       1 NClECP=     1 NCelD=      1
         NCelK=      1 NCelE2=     1 NClLst=     1 CellRange=     0.0.
 One-electron integrals computed using PRISM.
 NBasis=   543 RedAO= T  NBF=   543
 NBsUse=   543 1.00D-06 NBFU=   543
 Precomputing XC quadrature grid using
 IXCGrd= 2 IRadAn=           0 IRanWt=          -1 IRanGd=           0 AccXCQ= 0.00D+00.
 NRdTot=    3366 NPtTot=      430492 NUsed=      454743 NTot=      454775
 NSgBfM=   546   546   546   549   549 NAtAll=    52    52.
 Leave Link  302 at Wed Aug 31 18:51:53 2022, MaxMem=  209715200 cpu:       8.2
 (Enter /opt/gaussian/l303.exe)
 DipDrv:  MaxL=1.
 Leave Link  303 at Wed Aug 31 18:51:53 2022, MaxMem=  209715200 cpu:       1.1
 (Enter /opt/gaussian/l401.exe)
 Harris functional with IExCor=  402 diagonalized for initial guess.
 ExpMin= 1.22D-01 ExpMax= 1.11D+05 ExpMxC= 1.07D+03 IAcc=2 IRadAn=         4 AccDes= 0.00D+00
 HarFok:  IExCor=  402 AccDes= 0.00D+00 IRadAn=         4 IDoV= 1
 ScaDFX=  1.000000  1.000000  1.000000  1.000000
 FoFCou: FMM=F IPFlag=           0 FMFlag=      100000 FMFlg1=           0
         NFxFlg=           0 DoJE=T BraDBF=F KetDBF=T FulRan=T
         Omega=  0.000000  0.000000  1.000000  0.000000  0.000000 ICntrl=     500 IOpCl=  0
         NMat0=    1 NMatS0=    1 NMatT0=    0 NMatD0=    1 NMtDS0=    0 NMtDT0=    0
         I1Cent=           4 NGrid=           0.
 Petite list used in FoFCou.
 Harris En= -1711.35226245680    
 Initial guess orbital symmetries:
       Occupied  (A) (A) (A) (A) (A) (A) (A) (A) (A) (A) (A) (A)
                 (A) (A) (A) (A) (A) (A) (A) (A) (A) (A) (A) (A)
                 (A) (A) (A) (A) (A) (A) (A) (A) (A) (A) (A) (A)
                 (A) (A) (A) (A) (A) (A) (A) (A) (A) (A) (A) (A)
                 (A) (A) (A) (A) (A) (A) (A) (A) (A) (A) (A) (A)
                 (A) (A) (A) (A) (A) (A) (A) (A) (A) (A) (A) (A)
                 (A) (A) (A) (A) (A) (A) (A) (A) (A) (A) (A) (A)
                 (A) (A) (A) (A) (A) (A) (A) (A) (A) (A) (A) (A)
                 (A) (A) (A) (A) (A) (A) (A) (A) (A) (A) (A) (A)
                 (A) (A) (A) (A) (A)
       Virtual   (A) (A) (A) (A) (A) (A) (A) (A) (A) (A) (A) (A)
                 (A) (A) (A) (A) (A) (A) (A) (A) (A) (A) (A) (A)
                 (A) (A) (A) (A) (A) (A) (A) (A) (A) (A) (A) (A)
                 (A) (A) (A) (A) (A) (A) (A) (A) (A) (A) (A) (A)
                 (A) (A) (A) (A) (A) (A) (A) (A) (A) (A) (A) (A)
                 (A) (A) (A) (A) (A) (A) (A) (A) (A) (A) (A) (A)
                 (A) (A) (A) (A) (A) (A) (A) (A) (A) (A) (A) (A)
                 (A) (A) (A) (A) (A) (A) (A) (A) (A) (A) (A) (A)
                 (A) (A) (A) (A) (A) (A) (A) (A) (A) (A) (A) (A)
                 (A) (A) (A) (A) (A) (A) (A) (A) (A) (A) (A) (A)
                 (A) (A) (A) (A) (A) (A) (A) (A) (A) (A) (A) (A)
                 (A) (A) (A) (A) (A) (A) (A) (A) (A) (A) (A) (A)
                 (A) (A) (A) (A) (A) (A) (A) (A) (A) (A) (A) (A)
                 (A) (A) (A) (A) (A) (A) (A) (A) (A) (A) (A) (A)
                 (A) (A) (A) (A) (A) (A) (A) (A) (A) (A) (A) (A)
                 (A) (A) (A) (A) (A) (A) (A) (A) (A) (A) (A) (A)
                 (A) (A) (A) (A) (A) (A) (A) (A) (A) (A) (A) (A)
                 (A) (A) (A) (A) (A) (A) (A) (A) (A) (A) (A) (A)
                 (A) (A) (A) (A) (A) (A) (A) (A) (A) (A) (A) (A)
                 (A) (A) (A) (A) (A) (A) (A) (A) (A) (A) (A) (A)
                 (A) (A) (A) (A) (A) (A) (A) (A) (A) (A) (A) (A)
                 (A) (A) (A) (A) (A) (A) (A) (A) (A) (A) (A) (A)
                 (A) (A) (A) (A) (A) (A) (A) (A) (A) (A) (A) (A)
                 (A) (A) (A) (A) (A) (A) (A) (A) (A) (A) (A) (A)
                 (A) (A) (A) (A) (A) (A) (A) (A) (A) (A) (A) (A)
                 (A) (A) (A) (A) (A) (A) (A) (A) (A) (A) (A) (A)
                 (A) (A) (A) (A) (A) (A) (A) (A) (A) (A) (A) (A)
                 (A) (A) (A) (A) (A) (A) (A) (A) (A) (A) (A) (A)
                 (A) (A) (A) (A) (A) (A) (A) (A) (A) (A) (A) (A)
                 (A) (A) (A) (A) (A) (A) (A) (A) (A) (A) (A) (A)
                 (A) (A) (A) (A) (A) (A) (A) (A) (A) (A) (A) (A)
                 (A) (A) (A) (A) (A) (A) (A) (A) (A) (A) (A) (A)
                 (A) (A) (A) (A) (A) (A) (A) (A) (A) (A) (A) (A)
                 (A) (A) (A) (A) (A) (A) (A) (A) (A) (A) (A) (A)
                 (A) (A) (A) (A) (A) (A) (A) (A) (A) (A) (A) (A)
                 (A) (A) (A) (A) (A) (A) (A) (A) (A) (A)
 The electronic state of the initial guess is 1-A.
 Leave Link  401 at Wed Aug 31 18:51:56 2022, MaxMem=  209715200 cpu:      23.7
 (Enter /opt/gaussian/l502.exe)
 Closed shell SCF:
 Requested convergence on RMS density matrix=1.00D-08 within 128 cycles.
 Requested convergence on MAX density matrix=1.00D-06.
 Requested convergence on             energy=1.00D-06.
 No special actions if energy rises.
 Using DIIS extrapolation, IDIIS=  1040.
 Integral symmetry usage will be decided dynamically.
       454262 words used for storage of precomputed grid.
 IEnd=     1469770 IEndB=     1469770 NGot=   209715200 MDV=   208592121
 LenX=   208592121 LenY=   208262071
 Fock matrices will be formed incrementally for  20 cycles.
 Integral accuracy reduced to 1.0D-05 until final iterations.

 Cycle   1  Pass 0  IDiag  1:
 FoFCou: FMM=F IPFlag=           0 FMFlag=      100000 FMFlg1=           0
         NFxFlg=           0 DoJE=F BraDBF=F KetDBF=F FulRan=T
         Omega=  0.000000  0.000000  1.000000  0.000000  0.000000 ICntrl=       0 IOpCl=  0
         NMat0=    1 NMatS0=    1 NMatT0=    0 NMatD0=    1 NMtDS0=    0 NMtDT0=    0
         I1Cent=           0 NGrid=           0.
 Symmetry not used in FoFCou.
 E= -1710.75852597356    
 DIIS: error= 1.89D-02 at cycle   1 NSaved=   1.
 NSaved= 1 IEnMin= 1 EnMin= -1710.75852597356     IErMin= 1 ErrMin= 1.89D-02
 ErrMax= 1.89D-02 EMaxC= 1.00D-01 BMatC= 7.14D-01 BMatP= 7.14D-01
 IDIUse=3 WtCom= 8.11D-01 WtEn= 1.89D-01
 Coeff-Com:  0.100D+01
 Coeff-En:   0.100D+01
 Coeff:      0.100D+01
 Gap=     0.309 Goal=   None    Shift=    0.000
 GapD=    0.309 DampG=1.000 DampE=0.500 DampFc=0.5000 IDamp=-1.
 Damping current iteration by 5.00D-01
 RMSDP=4.56D-03 MaxDP=2.00D-01              OVMax= 3.11D-01

 Cycle   2  Pass 0  IDiag  1:
 RMSU=  1.60D-03    CP:  9.82D-01
 E= -1710.93108029828     Delta-E=       -0.172554324716 Rises=F Damp=T
 DIIS: error= 9.00D-03 at cycle   2 NSaved=   2.
 NSaved= 2 IEnMin= 2 EnMin= -1710.93108029828     IErMin= 2 ErrMin= 9.00D-03
 ErrMax= 9.00D-03 EMaxC= 1.00D-01 BMatC= 1.43D-01 BMatP= 7.14D-01
 IDIUse=3 WtCom= 9.10D-01 WtEn= 9.00D-02
 Coeff-Com:  0.256D+00 0.744D+00
 Coeff-En:   0.382D+00 0.618D+00
 Coeff:      0.267D+00 0.733D+00
 Gap=     0.260 Goal=   None    Shift=    0.000
 RMSDP=1.50D-03 MaxDP=6.97D-02 DE=-1.73D-01 OVMax= 2.84D-01

 Cycle   3  Pass 0  IDiag  1:
 RMSU=  9.47D-04    CP:  9.68D-01  7.14D-01
 E= -1711.42376713857     Delta-E=       -0.492686840291 Rises=F Damp=F
 DIIS: error= 7.42D-03 at cycle   3 NSaved=   3.
 NSaved= 3 IEnMin= 3 EnMin= -1711.42376713857     IErMin= 3 ErrMin= 7.42D-03
 ErrMax= 7.42D-03 EMaxC= 1.00D-01 BMatC= 1.02D-01 BMatP= 1.43D-01
 IDIUse=3 WtCom= 9.26D-01 WtEn= 7.42D-02
 Coeff-Com:  0.914D-01 0.450D+00 0.458D+00
 Coeff-En:   0.000D+00 0.000D+00 0.100D+01
 Coeff:      0.846D-01 0.417D+00 0.499D+00
 Gap=     0.204 Goal=   None    Shift=    0.000
 RMSDP=7.57D-04 MaxDP=4.77D-02 DE=-4.93D-01 OVMax= 8.41D-02

 Cycle   4  Pass 0  IDiag  1:
 RMSU=  4.00D-04    CP:  9.72D-01  8.02D-01  6.59D-01
 E= -1711.50085635296     Delta-E=       -0.077089214389 Rises=F Damp=F
 DIIS: error= 3.06D-03 at cycle   4 NSaved=   4.
 NSaved= 4 IEnMin= 4 EnMin= -1711.50085635296     IErMin= 4 ErrMin= 3.06D-03
 ErrMax= 3.06D-03 EMaxC= 1.00D-01 BMatC= 1.76D-02 BMatP= 1.02D-01
 IDIUse=3 WtCom= 9.69D-01 WtEn= 3.06D-02
 Coeff-Com:  0.209D-01 0.132D+00 0.309D+00 0.539D+00
 Coeff-En:   0.000D+00 0.000D+00 0.163D+00 0.837D+00
 Coeff:      0.203D-01 0.128D+00 0.304D+00 0.548D+00
 Gap=     0.189 Goal=   None    Shift=    0.000
 RMSDP=3.22D-04 MaxDP=2.14D-02 DE=-7.71D-02 OVMax= 3.95D-02

 Cycle   5  Pass 0  IDiag  1:
 RMSU=  1.44D-04    CP:  9.71D-01  7.77D-01  7.14D-01  5.92D-01
 E= -1711.51473182511     Delta-E=       -0.013875472153 Rises=F Damp=F
 DIIS: error= 2.47D-03 at cycle   5 NSaved=   5.
 NSaved= 5 IEnMin= 5 EnMin= -1711.51473182511     IErMin= 5 ErrMin= 2.47D-03
 ErrMax= 2.47D-03 EMaxC= 1.00D-01 BMatC= 2.04D-03 BMatP= 1.76D-02
 IDIUse=3 WtCom= 9.75D-01 WtEn= 2.47D-02
 Coeff-Com:  0.334D-02 0.248D-01 0.131D+00 0.344D+00 0.497D+00
 Coeff-En:   0.000D+00 0.000D+00 0.000D+00 0.102D+00 0.898D+00
 Coeff:      0.326D-02 0.242D-01 0.128D+00 0.338D+00 0.507D+00
 Gap=     0.190 Goal=   None    Shift=    0.000
 RMSDP=1.20D-04 MaxDP=7.37D-03 DE=-1.39D-02 OVMax= 1.86D-02

 Cycle   6  Pass 0  IDiag  1:
 RMSU=  3.72D-05    CP:  9.71D-01  7.77D-01  7.31D-01  6.80D-01  5.41D-01
 E= -1711.51682673772     Delta-E=       -0.002094912612 Rises=F Damp=F
 DIIS: error= 7.99D-04 at cycle   6 NSaved=   6.
 NSaved= 6 IEnMin= 6 EnMin= -1711.51682673772     IErMin= 6 ErrMin= 7.99D-04
 ErrMax= 7.99D-04 EMaxC= 1.00D-01 BMatC= 2.05D-04 BMatP= 2.04D-03
 IDIUse=3 WtCom= 9.92D-01 WtEn= 7.99D-03
 Coeff-Com: -0.218D-03-0.236D-02 0.390D-01 0.134D+00 0.299D+00 0.530D+00
 Coeff-En:   0.000D+00 0.000D+00 0.000D+00 0.000D+00 0.459D-01 0.954D+00
 Coeff:     -0.217D-03-0.234D-02 0.387D-01 0.133D+00 0.297D+00 0.534D+00
 Gap=     0.190 Goal=   None    Shift=    0.000
 RMSDP=3.16D-05 MaxDP=2.44D-03 DE=-2.09D-03 OVMax= 4.86D-03

 Cycle   7  Pass 0  IDiag  1:
 RMSU=  1.44D-05    CP:  9.71D-01  7.78D-01  7.32D-01  6.72D-01  5.97D-01
                    CP:  6.08D-01
 E= -1711.51702451892     Delta-E=       -0.000197781201 Rises=F Damp=F
 DIIS: error= 1.93D-04 at cycle   7 NSaved=   7.
 NSaved= 7 IEnMin= 7 EnMin= -1711.51702451892     IErMin= 7 ErrMin= 1.93D-04
 ErrMax= 1.93D-04 EMaxC= 1.00D-01 BMatC= 2.31D-05 BMatP= 2.05D-04
 IDIUse=3 WtCom= 9.98D-01 WtEn= 1.93D-03
 Coeff-Com: -0.231D-03-0.357D-02 0.110D-01 0.451D-01 0.126D+00 0.320D+00
 Coeff-Com:  0.502D+00
 Coeff-En:   0.000D+00 0.000D+00 0.000D+00 0.000D+00 0.000D+00 0.428D-01
 Coeff-En:   0.957D+00
 Coeff:     -0.230D-03-0.356D-02 0.110D-01 0.450D-01 0.126D+00 0.319D+00
 Coeff:      0.503D+00
 Gap=     0.190 Goal=   None    Shift=    0.000
 RMSDP=1.04D-05 MaxDP=7.95D-04 DE=-1.98D-04 OVMax= 1.14D-03

 Cycle   8  Pass 0  IDiag  1:
 RMSU=  4.28D-06    CP:  9.71D-01  7.77D-01  7.32D-01  6.74D-01  6.01D-01
                    CP:  6.68D-01  6.24D-01
 E= -1711.51704639939     Delta-E=       -0.000021880465 Rises=F Damp=F
 DIIS: error= 4.73D-05 at cycle   8 NSaved=   8.
 NSaved= 8 IEnMin= 8 EnMin= -1711.51704639939     IErMin= 8 ErrMin= 4.73D-05
 ErrMax= 4.73D-05 EMaxC= 1.00D-01 BMatC= 2.63D-06 BMatP= 2.31D-05
 IDIUse=1 WtCom= 1.00D+00 WtEn= 0.00D+00
 Coeff-Com: -0.642D-04-0.223D-02 0.381D-02 0.171D-01 0.545D-01 0.158D+00
 Coeff-Com:  0.315D+00 0.454D+00
 Coeff:     -0.642D-04-0.223D-02 0.381D-02 0.171D-01 0.545D-01 0.158D+00
 Coeff:      0.315D+00 0.454D+00
 Gap=     0.190 Goal=   None    Shift=    0.000
 RMSDP=3.48D-06 MaxDP=2.34D-04 DE=-2.19D-05 OVMax= 3.73D-04

 Initial convergence to 1.0D-05 achieved.  Increase integral accuracy.
 Cycle   9  Pass 1  IDiag  1:
 E= -1711.51714485205     Delta-E=       -0.000098452658 Rises=F Damp=F
 DIIS: error= 1.94D-04 at cycle   1 NSaved=   1.
 NSaved= 1 IEnMin= 1 EnMin= -1711.51714485205     IErMin= 1 ErrMin= 1.94D-04
 ErrMax= 1.94D-04 EMaxC= 1.00D-01 BMatC= 1.03D-05 BMatP= 1.03D-05
 IDIUse=3 WtCom= 9.98D-01 WtEn= 1.94D-03
 Coeff-Com:  0.100D+01
 Coeff-En:   0.100D+01
 Coeff:      0.100D+01
 Gap=     0.190 Goal=   None    Shift=    0.000
 RMSDP=3.48D-06 MaxDP=2.34D-04 DE=-9.85D-05 OVMax= 4.88D-04

 Cycle  10  Pass 1  IDiag  1:
 RMSU=  8.68D-05    CP:  1.00D+00
 E= -1711.51715412470     Delta-E=       -0.000009272650 Rises=F Damp=F
 DIIS: error= 4.80D-05 at cycle   2 NSaved=   2.
 NSaved= 2 IEnMin= 2 EnMin= -1711.51715412470     IErMin= 2 ErrMin= 4.80D-05
 ErrMax= 4.80D-05 EMaxC= 1.00D-01 BMatC= 1.35D-06 BMatP= 1.03D-05
 IDIUse=1 WtCom= 1.00D+00 WtEn= 0.00D+00
 Coeff-Com:  0.146D+00 0.854D+00
 Coeff:      0.146D+00 0.854D+00
 Gap=     0.190 Goal=   None    Shift=    0.000
 RMSDP=5.73D-06 MaxDP=4.98D-04 DE=-9.27D-06 OVMax= 8.22D-04

 Cycle  11  Pass 1  IDiag  1:
 RMSU=  3.97D-06    CP:  1.00D+00  1.01D+00
 E= -1711.51715158929     Delta-E=        0.000002535405 Rises=F Damp=F
 DIIS: error= 9.18D-05 at cycle   3 NSaved=   3.
 NSaved= 3 IEnMin= 2 EnMin= -1711.51715412470     IErMin= 2 ErrMin= 4.80D-05
 ErrMax= 9.18D-05 EMaxC= 1.00D-01 BMatC= 4.44D-06 BMatP= 1.35D-06
 IDIUse=1 WtCom= 1.00D+00 WtEn= 0.00D+00
 Coeff-Com: -0.439D-02 0.647D+00 0.357D+00
 Coeff:     -0.439D-02 0.647D+00 0.357D+00
 Gap=     0.190 Goal=   None    Shift=    0.000
 RMSDP=3.68D-06 MaxDP=3.36D-04 DE= 2.54D-06 OVMax= 5.61D-04

 Cycle  12  Pass 1  IDiag  1:
 RMSU=  4.07D-07    CP:  1.00D+00  1.01D+00  3.55D-01
 E= -1711.51715524305     Delta-E=       -0.000003653760 Rises=F Damp=F
 DIIS: error= 6.40D-06 at cycle   4 NSaved=   4.
 NSaved= 4 IEnMin= 4 EnMin= -1711.51715524305     IErMin= 4 ErrMin= 6.40D-06
 ErrMax= 6.40D-06 EMaxC= 1.00D-01 BMatC= 2.23D-08 BMatP= 1.35D-06
 IDIUse=1 WtCom= 1.00D+00 WtEn= 0.00D+00
 Coeff-Com: -0.404D-02 0.378D+00 0.214D+00 0.412D+00
 Coeff:     -0.404D-02 0.378D+00 0.214D+00 0.412D+00
 Gap=     0.190 Goal=   None    Shift=    0.000
 RMSDP=2.81D-07 MaxDP=2.51D-05 DE=-3.65D-06 OVMax= 3.54D-05

 Cycle  13  Pass 1  IDiag  1:
 RMSU=  1.37D-07    CP:  1.00D+00  1.01D+00  3.65D-01  6.59D-01
 E= -1711.51715526458     Delta-E=       -0.000000021530 Rises=F Damp=F
 DIIS: error= 1.37D-06 at cycle   5 NSaved=   5.
 NSaved= 5 IEnMin= 5 EnMin= -1711.51715526458     IErMin= 5 ErrMin= 1.37D-06
 ErrMax= 1.37D-06 EMaxC= 1.00D-01 BMatC= 5.44D-10 BMatP= 2.23D-08
 IDIUse=1 WtCom= 1.00D+00 WtEn= 0.00D+00
 Coeff-Com: -0.174D-02 0.152D+00 0.863D-01 0.205D+00 0.559D+00
 Coeff:     -0.174D-02 0.152D+00 0.863D-01 0.205D+00 0.559D+00
 Gap=     0.190 Goal=   None    Shift=    0.000
 RMSDP=6.19D-08 MaxDP=4.26D-06 DE=-2.15D-08 OVMax= 8.60D-06

 Cycle  14  Pass 1  IDiag  1:
 RMSU=  3.99D-08    CP:  1.00D+00  1.01D+00  3.65D-01  6.65D-01  8.71D-01
 E= -1711.51715526500     Delta-E=       -0.000000000414 Rises=F Damp=F
 DIIS: error= 5.25D-07 at cycle   6 NSaved=   6.
 NSaved= 6 IEnMin= 6 EnMin= -1711.51715526500     IErMin= 6 ErrMin= 5.25D-07
 ErrMax= 5.25D-07 EMaxC= 1.00D-01 BMatC= 1.07D-10 BMatP= 5.44D-10
 IDIUse=1 WtCom= 1.00D+00 WtEn= 0.00D+00
 Coeff-Com: -0.528D-03 0.423D-01 0.242D-01 0.690D-01 0.334D+00 0.531D+00
 Coeff:     -0.528D-03 0.423D-01 0.242D-01 0.690D-01 0.334D+00 0.531D+00
 Gap=     0.190 Goal=   None    Shift=    0.000
 RMSDP=2.93D-08 MaxDP=1.90D-06 DE=-4.14D-10 OVMax= 4.44D-06

 Cycle  15  Pass 1  IDiag  1:
 RMSU=  1.34D-08    CP:  1.00D+00  1.01D+00  3.65D-01  6.76D-01  9.11D-01
                    CP:  6.49D-01
 E= -1711.51715526508     Delta-E=       -0.000000000080 Rises=F Damp=F
 DIIS: error= 1.58D-07 at cycle   7 NSaved=   7.
 NSaved= 7 IEnMin= 7 EnMin= -1711.51715526508     IErMin= 7 ErrMin= 1.58D-07
 ErrMax= 1.58D-07 EMaxC= 1.00D-01 BMatC= 2.27D-11 BMatP= 1.07D-10
 IDIUse=1 WtCom= 1.00D+00 WtEn= 0.00D+00
 Coeff-Com: -0.160D-04-0.916D-03-0.407D-03 0.640D-02 0.116D+00 0.353D+00
 Coeff-Com:  0.526D+00
 Coeff:     -0.160D-04-0.916D-03-0.407D-03 0.640D-02 0.116D+00 0.353D+00
 Coeff:      0.526D+00
 Gap=     0.190 Goal=   None    Shift=    0.000
 RMSDP=1.05D-08 MaxDP=6.91D-07 DE=-8.00D-11 OVMax= 1.04D-06

 Cycle  16  Pass 1  IDiag  1:
 RMSU=  4.28D-09    CP:  1.00D+00  1.01D+00  3.65D-01  6.79D-01  9.13D-01
                    CP:  7.13D-01  5.98D-01
 E= -1711.51715526511     Delta-E=       -0.000000000029 Rises=F Damp=F
 DIIS: error= 4.04D-08 at cycle   8 NSaved=   8.
 NSaved= 8 IEnMin= 8 EnMin= -1711.51715526511     IErMin= 8 ErrMin= 4.04D-08
 ErrMax= 4.04D-08 EMaxC= 1.00D-01 BMatC= 2.12D-12 BMatP= 2.27D-11
 IDIUse=1 WtCom= 1.00D+00 WtEn= 0.00D+00
 Coeff-Com:  0.416D-04-0.476D-02-0.265D-02-0.304D-02 0.378D-01 0.162D+00
 Coeff-Com:  0.320D+00 0.492D+00
 Coeff:      0.416D-04-0.476D-02-0.265D-02-0.304D-02 0.378D-01 0.162D+00
 Coeff:      0.320D+00 0.492D+00
 Gap=     0.190 Goal=   None    Shift=    0.000
 RMSDP=3.43D-09 MaxDP=2.16D-07 DE=-2.91D-11 OVMax= 3.49D-07

 SCF Done:  E(RB3LYP) =  -1711.51715527     A.U. after   16 cycles
             Convg  =    0.3430D-08             -V/T =  2.0050
 KE= 1.703031516724D+03 PE=-9.917799681401D+03 EE= 3.544853296067D+03
 Leave Link  502 at Wed Aug 31 19:03:44 2022, MaxMem=  209715200 cpu:    5345.6
 (Enter /opt/gaussian/l601.exe)
 Copying SCF densities to generalized density rwf, IOpCl= 0 IROHF=0.

 **********************************************************************

            Population analysis using the SCF density.

 **********************************************************************

 Orbital symmetries:
       Occupied  (A) (A) (A) (A) (A) (A) (A) (A) (A) (A) (A) (A)
                 (A) (A) (A) (A) (A) (A) (A) (A) (A) (A) (A) (A)
                 (A) (A) (A) (A) (A) (A) (A) (A) (A) (A) (A) (A)
                 (A) (A) (A) (A) (A) (A) (A) (A) (A) (A) (A) (A)
                 (A) (A) (A) (A) (A) (A) (A) (A) (A) (A) (A) (A)
                 (A) (A) (A) (A) (A) (A) (A) (A) (A) (A) (A) (A)
                 (A) (A) (A) (A) (A) (A) (A) (A) (A) (A) (A) (A)
                 (A) (A) (A) (A) (A) (A) (A) (A) (A) (A) (A) (A)
                 (A) (A) (A) (A) (A) (A) (A) (A) (A) (A) (A) (A)
                 (A) (A) (A) (A) (A)
       Virtual   (A) (A) (A) (A) (A) (A) (A) (A) (A) (A) (A) (A)
                 (A) (A) (A) (A) (A) (A) (A) (A) (A) (A) (A) (A)
                 (A) (A) (A) (A) (A) (A) (A) (A) (A) (A) (A) (A)
                 (A) (A) (A) (A) (A) (A) (A) (A) (A) (A) (A) (A)
                 (A) (A) (A) (A) (A) (A) (A) (A) (A) (A) (A) (A)
                 (A) (A) (A) (A) (A) (A) (A) (A) (A) (A) (A) (A)
                 (A) (A) (A) (A) (A) (A) (A) (A) (A) (A) (A) (A)
                 (A) (A) (A) (A) (A) (A) (A) (A) (A) (A) (A) (A)
                 (A) (A) (A) (A) (A) (A) (A) (A) (A) (A) (A) (A)
                 (A) (A) (A) (A) (A) (A) (A) (A) (A) (A) (A) (A)
                 (A) (A) (A) (A) (A) (A) (A) (A) (A) (A) (A) (A)
                 (A) (A) (A) (A) (A) (A) (A) (A) (A) (A) (A) (A)
                 (A) (A) (A) (A) (A) (A) (A) (A) (A) (A) (A) (A)
                 (A) (A) (A) (A) (A) (A) (A) (A) (A) (A) (A) (A)
                 (A) (A) (A) (A) (A) (A) (A) (A) (A) (A) (A) (A)
                 (A) (A) (A) (A) (A) (A) (A) (A) (A) (A) (A) (A)
                 (A) (A) (A) (A) (A) (A) (A) (A) (A) (A) (A) (A)
                 (A) (A) (A) (A) (A) (A) (A) (A) (A) (A) (A) (A)
                 (A) (A) (A) (A) (A) (A) (A) (A) (A) (A) (A) (A)
                 (A) (A) (A) (A) (A) (A) (A) (A) (A) (A) (A) (A)
                 (A) (A) (A) (A) (A) (A) (A) (A) (A) (A) (A) (A)
                 (A) (A) (A) (A) (A) (A) (A) (A) (A) (A) (A) (A)
                 (A) (A) (A) (A) (A) (A) (A) (A) (A) (A) (A) (A)
                 (A) (A) (A) (A) (A) (A) (A) (A) (A) (A) (A) (A)
                 (A) (A) (A) (A) (A) (A) (A) (A) (A) (A) (A) (A)
                 (A) (A) (A) (A) (A) (A) (A) (A) (A) (A) (A) (A)
                 (A) (A) (A) (A) (A) (A) (A) (A) (A) (A) (A) (A)
                 (A) (A) (A) (A) (A) (A) (A) (A) (A) (A) (A) (A)
                 (A) (A) (A) (A) (A) (A) (A) (A) (A) (A) (A) (A)
                 (A) (A) (A) (A) (A) (A) (A) (A) (A) (A) (A) (A)
                 (A) (A) (A) (A) (A) (A) (A) (A) (A) (A) (A) (A)
                 (A) (A) (A) (A) (A) (A) (A) (A) (A) (A) (A) (A)
                 (A) (A) (A) (A) (A) (A) (A) (A) (A) (A) (A) (A)
                 (A) (A) (A) (A) (A) (A) (A) (A) (A) (A) (A) (A)
                 (A) (A) (A) (A) (A) (A) (A) (A) (A) (A) (A) (A)
                 (A) (A) (A) (A) (A) (A) (A) (A) (A) (A)
 The electronic state is 1-A.
 Alpha  occ. eigenvalues --  -88.92483 -19.12357 -19.09996 -14.40765 -14.38727
 Alpha  occ. eigenvalues --  -14.38703 -14.35655 -14.34460 -10.30543 -10.28303
 Alpha  occ. eigenvalues --  -10.25925 -10.25339 -10.24543 -10.23569 -10.23292
 Alpha  occ. eigenvalues --  -10.23024 -10.22747 -10.22295 -10.21265 -10.20683
 Alpha  occ. eigenvalues --  -10.20590 -10.20384 -10.20323 -10.19937 -10.19816
 Alpha  occ. eigenvalues --  -10.19813 -10.19653 -10.19552 -10.19343 -10.19144
 Alpha  occ. eigenvalues --  -10.18929  -7.98550  -5.94901  -5.94535  -5.94146
 Alpha  occ. eigenvalues --   -1.10130  -1.05881  -1.03205  -0.97059  -0.93721
 Alpha  occ. eigenvalues --   -0.92905  -0.89626  -0.87552  -0.87014  -0.85114
 Alpha  occ. eigenvalues --   -0.79565  -0.78679  -0.77512  -0.76792  -0.76338
 Alpha  occ. eigenvalues --   -0.75262  -0.74524  -0.70869  -0.67357  -0.65067
 Alpha  occ. eigenvalues --   -0.63962  -0.62797  -0.62307  -0.61940  -0.60397
 Alpha  occ. eigenvalues --   -0.59524  -0.58160  -0.57401  -0.56504  -0.55021
 Alpha  occ. eigenvalues --   -0.54172  -0.53203  -0.52807  -0.52334  -0.51858
 Alpha  occ. eigenvalues --   -0.50827  -0.49069  -0.48135  -0.47118  -0.46955
 Alpha  occ. eigenvalues --   -0.46734  -0.45930  -0.45105  -0.44904  -0.44249
 Alpha  occ. eigenvalues --   -0.44021  -0.43721  -0.42608  -0.42544  -0.42260
 Alpha  occ. eigenvalues --   -0.41227  -0.40267  -0.40072  -0.39248  -0.38761
 Alpha  occ. eigenvalues --   -0.38046  -0.37762  -0.37590  -0.37361  -0.36782
 Alpha  occ. eigenvalues --   -0.36256  -0.36006  -0.35888  -0.33285  -0.32152
 Alpha  occ. eigenvalues --   -0.31181  -0.30899  -0.29620  -0.27699  -0.26945
 Alpha  occ. eigenvalues --   -0.26653  -0.26473  -0.26000  -0.25835  -0.25129
 Alpha  occ. eigenvalues --   -0.24687  -0.24223  -0.23515
 Alpha virt. eigenvalues --   -0.04553  -0.03786  -0.03737  -0.02177   0.00387
 Alpha virt. eigenvalues --    0.00462   0.01132   0.02277   0.03848   0.04556
 Alpha virt. eigenvalues --    0.04940   0.05342   0.06188   0.06940   0.07174
 Alpha virt. eigenvalues --    0.07434   0.07944   0.08405   0.08870   0.09065
 Alpha virt. eigenvalues --    0.10488   0.10953   0.11161   0.11261   0.11588
 Alpha virt. eigenvalues --    0.13024   0.13228   0.13631   0.13968   0.14752
 Alpha virt. eigenvalues --    0.15123   0.16003   0.16137   0.16718   0.17251
 Alpha virt. eigenvalues --    0.17618   0.18251   0.20607   0.21054   0.21455
 Alpha virt. eigenvalues --    0.22145   0.23286   0.23845   0.24421   0.24787
 Alpha virt. eigenvalues --    0.25370   0.25631   0.26426   0.27300   0.28373
 Alpha virt. eigenvalues --    0.28648   0.29312   0.30270   0.30491   0.31086
 Alpha virt. eigenvalues --    0.31870   0.32693   0.34641   0.34824   0.35836
 Alpha virt. eigenvalues --    0.37010   0.37709   0.38662   0.40541   0.40870
 Alpha virt. eigenvalues --    0.41509   0.42004   0.43494   0.43715   0.43894
 Alpha virt. eigenvalues --    0.44393   0.44750   0.45287   0.45472   0.45895
 Alpha virt. eigenvalues --    0.46150   0.46364   0.46671   0.46874   0.47074
 Alpha virt. eigenvalues --    0.47128   0.47406   0.47833   0.48152   0.49071
 Alpha virt. eigenvalues --    0.49224   0.49913   0.50221   0.50361   0.50828
 Alpha virt. eigenvalues --    0.51201   0.51312   0.51588   0.51965   0.52056
 Alpha virt. eigenvalues --    0.52830   0.53015   0.53167   0.53588   0.54386
 Alpha virt. eigenvalues --    0.54913   0.55155   0.55534   0.55655   0.55914
 Alpha virt. eigenvalues --    0.56140   0.57381   0.58035   0.58183   0.58645
 Alpha virt. eigenvalues --    0.59042   0.59601   0.59715   0.60222   0.60610
 Alpha virt. eigenvalues --    0.61122   0.61638   0.62133   0.62649   0.63331
 Alpha virt. eigenvalues --    0.63850   0.64089   0.64936   0.65150   0.65266
 Alpha virt. eigenvalues --    0.65366   0.65710   0.65971   0.66192   0.66737
 Alpha virt. eigenvalues --    0.66936   0.67162   0.67532   0.67842   0.68552
 Alpha virt. eigenvalues --    0.68851   0.69586   0.70483   0.70834   0.71562
 Alpha virt. eigenvalues --    0.71819   0.72458   0.72907   0.73545   0.73697
 Alpha virt. eigenvalues --    0.74582   0.75187   0.75749   0.76355   0.77018
 Alpha virt. eigenvalues --    0.78028   0.78677   0.80270   0.81321   0.82273
 Alpha virt. eigenvalues --    0.83234   0.83735   0.84019   0.84588   0.85431
 Alpha virt. eigenvalues --    0.85694   0.86590   0.87855   0.88328   0.89270
 Alpha virt. eigenvalues --    0.89901   0.90603   0.91448   0.92378   0.92713
 Alpha virt. eigenvalues --    0.93591   0.93699   0.93925   0.94763   0.95115
 Alpha virt. eigenvalues --    0.95376   0.96839   0.97465   0.98026   0.98760
 Alpha virt. eigenvalues --    0.99501   1.00010   1.00556   1.01072   1.01112
 Alpha virt. eigenvalues --    1.01675   1.02343   1.02654   1.03479   1.04238
 Alpha virt. eigenvalues --    1.04374   1.05411   1.05746   1.06291   1.07020
 Alpha virt. eigenvalues --    1.07392   1.07838   1.08472   1.09266   1.10787
 Alpha virt. eigenvalues --    1.11803   1.12201   1.12398   1.13881   1.14705
 Alpha virt. eigenvalues --    1.15289   1.16353   1.16446   1.17896   1.18250
 Alpha virt. eigenvalues --    1.18651   1.18910   1.19081   1.21524   1.22451
 Alpha virt. eigenvalues --    1.22871   1.23849   1.24589   1.24774   1.25121
 Alpha virt. eigenvalues --    1.26167   1.27149   1.28165   1.29055   1.30660
 Alpha virt. eigenvalues --    1.30837   1.31990   1.33326   1.33819   1.34917
 Alpha virt. eigenvalues --    1.36117   1.37275   1.38139   1.39019   1.39454
 Alpha virt. eigenvalues --    1.40520   1.42266   1.43333   1.44277   1.44723
 Alpha virt. eigenvalues --    1.46384   1.46502   1.47322   1.47498   1.48528
 Alpha virt. eigenvalues --    1.48904   1.49881   1.50243   1.51173   1.51821
 Alpha virt. eigenvalues --    1.52174   1.52635   1.53376   1.54968   1.55384
 Alpha virt. eigenvalues --    1.56205   1.56363   1.57180   1.57564   1.58141
 Alpha virt. eigenvalues --    1.58333   1.59288   1.59658   1.59757   1.60520
 Alpha virt. eigenvalues --    1.60725   1.61453   1.62324   1.62724   1.63024
 Alpha virt. eigenvalues --    1.63567   1.63861   1.64935   1.65023   1.65221
 Alpha virt. eigenvalues --    1.65973   1.66313   1.67352   1.67756   1.68268
 Alpha virt. eigenvalues --    1.68585   1.69560   1.70208   1.70579   1.71237
 Alpha virt. eigenvalues --    1.71543   1.72298   1.73414   1.73761   1.73976
 Alpha virt. eigenvalues --    1.74749   1.75354   1.76045   1.76344   1.76670
 Alpha virt. eigenvalues --    1.77253   1.77705   1.78416   1.78728   1.79145
 Alpha virt. eigenvalues --    1.80187   1.81022   1.81561   1.82203   1.82212
 Alpha virt. eigenvalues --    1.83463   1.83651   1.84056   1.84969   1.85596
 Alpha virt. eigenvalues --    1.85603   1.85965   1.86517   1.86599   1.87502
 Alpha virt. eigenvalues --    1.88576   1.88960   1.89704   1.89827   1.91723
 Alpha virt. eigenvalues --    1.92431   1.92734   1.93311   1.93896   1.94658
 Alpha virt. eigenvalues --    1.95336   1.95640   1.96922   1.98049   1.98638
 Alpha virt. eigenvalues --    1.99307   1.99780   2.00160   2.01302   2.02179
 Alpha virt. eigenvalues --    2.02375   2.02803   2.04613   2.04990   2.05392
 Alpha virt. eigenvalues --    2.06666   2.06953   2.07555   2.09071   2.09651
 Alpha virt. eigenvalues --    2.11049   2.12049   2.13697   2.13823   2.15316
 Alpha virt. eigenvalues --    2.15838   2.16579   2.18077   2.18410   2.19296
 Alpha virt. eigenvalues --    2.20084   2.20881   2.22371   2.23372   2.25170
 Alpha virt. eigenvalues --    2.25692   2.27033   2.29151   2.29722   2.30559
 Alpha virt. eigenvalues --    2.32586   2.33657   2.34317   2.36605   2.37818
 Alpha virt. eigenvalues --    2.38717   2.41355   2.42530   2.43186   2.43308
 Alpha virt. eigenvalues --    2.43428   2.43836   2.45089   2.46786   2.47274
 Alpha virt. eigenvalues --    2.48045   2.48704   2.50090   2.51723   2.52614
 Alpha virt. eigenvalues --    2.54387   2.54774   2.55161   2.55951   2.58595
 Alpha virt. eigenvalues --    2.60595   2.61250   2.61942   2.64728   2.65408
 Alpha virt. eigenvalues --    2.67368   2.67904   2.68941   2.70874   2.71913
 Alpha virt. eigenvalues --    2.72554   2.73611   2.74388   2.74634   2.75851
 Alpha virt. eigenvalues --    2.76615   2.78143   2.78343   2.80364   2.81924
 Alpha virt. eigenvalues --    2.82075   2.83752   2.90192   2.92773   2.96879
 Alpha virt. eigenvalues --    2.97662   2.98476   3.00711   3.07495   3.08661
 Alpha virt. eigenvalues --    3.11686   3.13087   3.16340   3.19641   3.41546
 Alpha virt. eigenvalues --    3.43569   3.48733   3.49246   3.60538   3.61341
          Condensed to atoms (all electrons):
 Mulliken atomic charges:
              1
     1  O   -0.241314
     2  C    0.107087
     3  C    0.154991
     4  N   -0.230519
     5  N   -0.055280
     6  N   -0.179618
     7  C   -0.002061
     8  C    0.064305
     9  C    0.049848
    10  C    0.052019
    11  C    0.044687
    12  C    0.211550
    13  N   -0.278974
    14  C    0.168751
    15  C   -0.027469
    16  C    0.072449
    17  C   -0.082444
    18  S    0.128594
    19  C   -0.143257
    20  C    0.081549
    21  C    0.052249
    22  C    0.032644
    23  C   -0.018765
    24  C    0.084042
    25  C    0.105561
    26  C    0.168276
    27  O   -0.269832
    28  N   -0.118144
    29  C    0.010952
    30  C    0.045405
    31  C   -0.007957
    32  H    0.051835
    33  H    0.049152
    34  H   -0.033315
    35  H   -0.038166
    36  H   -0.037168
    37  H   -0.044604
    38  H    0.036596
    39  H    0.043774
    40  H   -0.035943
    41  H    0.010500
    42  H    0.015202
    43  H   -0.038125
    44  H   -0.056085
    45  H   -0.033788
    46  H   -0.026558
    47  H    0.080445
    48  H    0.004386
    49  H    0.019332
    50  H    0.023352
    51  H    0.019447
    52  H    0.010403
 Sum of Mulliken atomic charges =   0.00000
 Mulliken charges with hydrogens summed into heavy atoms:
              1
     1  O   -0.241314
     2  C    0.107087
     3  C    0.255978
     4  N   -0.230519
     5  N   -0.055280
     6  N   -0.179618
     7  C   -0.002061
     8  C    0.030990
     9  C    0.011683
    10  C    0.014850
    11  C    0.000083
    12  C    0.211550
    13  N   -0.278974
    14  C    0.249122
    15  C   -0.027469
    16  C    0.036507
    17  C   -0.071944
    18  S    0.128594
    19  C   -0.128055
    20  C    0.081549
    21  C    0.014124
    22  C   -0.023441
    23  C   -0.018765
    24  C    0.050254
    25  C    0.079002
    26  C    0.168276
    27  O   -0.269832
    28  N   -0.037699
    29  C    0.015338
    30  C    0.088090
    31  C    0.021893
 Sum of Mulliken charges with hydrogens summed into heavy atoms =   0.00000
 Electronic spatial extent (au):  <R**2>=          19948.1545
 Charge=              0.0000 electrons
 Dipole moment (field-independent basis, Debye):
    X=             -1.5483    Y=              7.5318    Z=              2.5124  Tot=              8.0894
 Quadrupole moment (field-independent basis, Debye-Ang):
   XX=           -191.2289   YY=           -186.7156   ZZ=           -179.3020
   XY=              1.9932   XZ=             -3.8441   YZ=            -14.1700
 Traceless Quadrupole moment (field-independent basis, Debye-Ang):
   XX=             -5.4801   YY=             -0.9668   ZZ=              6.4468
   XY=              1.9932   XZ=             -3.8441   YZ=            -14.1700
 Octapole moment (field-independent basis, Debye-Ang**2):
  XXX=           -133.4753  YYY=             75.2010  ZZZ=             13.0767  XYY=             22.9185
  XXY=             65.9080  XXZ=            175.7601  XZZ=            -10.4555  YZZ=             19.2757
  YYZ=              1.3214  XYZ=            -23.7132
 Hexadecapole moment (field-independent basis, Debye-Ang**3):
 XXXX=         -19349.3893 YYYY=          -5085.5518 ZZZZ=          -1738.5764 XXXY=           -137.5027
 XXXZ=           -230.0411 YYYX=            189.5949 YYYZ=           -121.2483 ZZZX=             58.6588
 ZZZY=            -51.8962 XXYY=          -4370.9545 XXZZ=          -3560.3106 YYZZ=          -1216.6585
 XXYZ=           -403.4722 YYXZ=             21.5369 ZZXY=             55.9829
 N-N= 2.958397713344D+03 E-N=-9.917799661886D+03  KE= 1.703031516724D+03
 No NMR shielding tensors so no spin-rotation constants.
 Leave Link  601 at Wed Aug 31 19:03:45 2022, MaxMem=  209715200 cpu:       3.8
 (Enter /opt/gaussian/l701.exe)
 Compute integral first derivatives.
 ... and contract with generalized density number  0.
 Leave Link  701 at Wed Aug 31 19:03:45 2022, MaxMem=  209715200 cpu:       3.3
 (Enter /opt/gaussian/l702.exe)
 L702 exits ... SP integral derivatives will be done elsewhere.
 Leave Link  702 at Wed Aug 31 19:03:45 2022, MaxMem=  209715200 cpu:       0.2
 (Enter /opt/gaussian/l703.exe)
 Compute integral first derivatives, UseDBF=F ICtDFT=           0.
 Integral derivatives from FoFDir, PRISM(SPDF).
 Calling FoFJK, ICntrl=      2127 FMM=F ISym2X=0 I1Cent= 0 IOpClX= 0 NMat=1 NMatS=1 NMatT=0.
 FoFCou: FMM=F IPFlag=           0 FMFlag=      100000 FMFlg1=         800
         NFxFlg=           0 DoJE=F BraDBF=F KetDBF=F FulRan=T
         Omega=  0.000000  0.000000  1.000000  0.000000  0.000000 ICntrl=    2127 IOpCl=  0
         NMat0=    1 NMatS0=    1 NMatT0=    0 NMatD0=    1 NMtDS0=    0 NMtDT0=    0
         I1Cent=           0 NGrid=           0.
 Symmetry not used in FoFCou.
 Leave Link  703 at Wed Aug 31 19:07:41 2022, MaxMem=  209715200 cpu:    1783.8
 (Enter /opt/gaussian/l716.exe)
 Dipole        =-6.09155439D-01 2.96325628D+00 9.88459566D-01
 ***** Axes restored to original set *****
 -------------------------------------------------------------------
 Center     Atomic                   Forces (Hartrees/Bohr)
 Number     Number              X              Y              Z
 -------------------------------------------------------------------
      1        8           0.000344378    0.000473224   -0.001486576
      2        6          -0.001884195   -0.012932162    0.009222500
      3        6          -0.000581867   -0.004354307    0.003761178
      4        7           0.000308624    0.000141443   -0.000058266
      5        7          -0.011529237    0.009094158   -0.010925086
      6        7           0.016036190   -0.016099321    0.004539536
      7        6           0.002464480   -0.008200857   -0.013930530
      8        6          -0.001699077    0.001353343   -0.001839720
      9        6          -0.005007125    0.006071939    0.001210315
     10        6           0.004912813   -0.005641544   -0.001135703
     11        6          -0.000490641   -0.000914627   -0.004761282
     12        6          -0.008213447    0.009667899    0.004205877
     13        7          -0.005208462    0.005799658   -0.004344292
     14        6           0.002645655   -0.002367173    0.013962657
     15        6           0.000658973    0.007741651   -0.022417266
     16        6          -0.006088155   -0.019814573   -0.000239082
     17        6           0.000269677   -0.007597520    0.032426686
     18       16          -0.004435166   -0.008095806   -0.023426909
     19        6           0.009137781    0.025048288    0.019944582
     20        6           0.009115010    0.002978595   -0.001626332
     21        6          -0.002020746   -0.001859369   -0.000719112
     22        6           0.003996923   -0.000655350   -0.001300767
     23        6          -0.005502567   -0.000683969    0.003974544
     24        6           0.002996542    0.003473714   -0.000328696
     25        6          -0.002837306    0.000262097    0.002986976
     26        6          -0.002411274   -0.014593386   -0.011190496
     27        8           0.000214787    0.001475728    0.000981961
     28        7          -0.013500848    0.000563916   -0.005881224
     29        6           0.004452489    0.008491223   -0.002546120
     30        6           0.002555107    0.000761345    0.006391782
     31        6           0.002325304   -0.005283436   -0.006250898
     32        1           0.000794537    0.001495288   -0.013462499
     33        1           0.003123152    0.012409220    0.004681410
     34        1           0.008634476   -0.010987622   -0.003571518
     35        1           0.008339515   -0.005366143    0.010425130
     36        1          -0.000233188    0.005200816    0.013259641
     37        1          -0.008772032    0.010742634    0.003236155
     38        1           0.008341154   -0.001378094   -0.009652526
     39        1          -0.011185309    0.002916486   -0.005774874
     40        1          -0.000206672    0.003035621   -0.014202363
     41        1           0.004804312    0.015593290   -0.000743206
     42        1          -0.002668188   -0.011995720    0.010082716
     43        1           0.004317185    0.013193391    0.003822134
     44        1          -0.009323044    0.008841867    0.005936393
     45        1          -0.005330448   -0.012758168   -0.003955442
     46        1           0.009669330   -0.008990839   -0.006547107
     47        1           0.010480719    0.010567228    0.013997350
     48        1          -0.002494773   -0.014596125    0.005415177
     49        1           0.004842163    0.008929581   -0.010372318
     50        1          -0.010916684   -0.009331106   -0.001654606
     51        1          -0.009292518   -0.004787946    0.009511480
     52        1           0.006051693    0.012961521    0.000368637
 -------------------------------------------------------------------
 Cartesian Forces:  Max     0.032426686 RMS     0.008570030
 Leave Link  716 at Wed Aug 31 19:07:41 2022, MaxMem=  209715200 cpu:       0.2
 (Enter /opt/gaussian/l103.exe)

 GradGradGradGradGradGradGradGradGradGradGradGradGradGradGradGradGradGrad
 Berny optimization.
 Internal  Forces:  Max     0.021850141 RMS     0.005746098
 Search for a local minimum.
 Step number   1 out of a maximum of  290
 All quantities printed in internal units (Hartrees-Bohrs-Radians)
 RMS Force = .57461D-02 SwitMx=.10000D-02 MixMth= 1
 Mixed Optimization -- RFO/linear search
 Second derivative matrix not updated -- first step.
 ITU=  0
     Eigenvalues ---    0.00447   0.00619   0.00827   0.00882   0.01096
     Eigenvalues ---    0.01232   0.01232   0.01257   0.01295   0.01300
     Eigenvalues ---    0.01571   0.01641   0.01709   0.01737   0.01799
     Eigenvalues ---    0.01829   0.01934   0.02027   0.02052   0.02062
     Eigenvalues ---    0.02092   0.02118   0.02160   0.02167   0.02183
[...]
 .00222786,0.03643053,0.10679760,0.00000848,-0.00001329,0.00000899,-0.0
 0002437,0.00002531,-0.00000865,-0.00000411,0.00000338,-0.00000208,0.00
 000521,-0.00000307,-0.00000099,-0.00000211,0.00000336,0.00000607,0.000
 00336,-0.00000313,0.00000140,0.00000079,-0.00000074,-0.00000094,-0.000
 00051,0.00000034,-0.00000037,0.00000016,-0.00000027,0.00000069,-0.0000
 0026,0.00000005,-0.00000082,0.00000010,-0.00000010,0.00000125,-0.00000
 274,0.00000048,-0.00000580,0.00003731,-0.00000282,-0.00000102,-0.00000
 110,-0.00000832,-0.00000175,-0.00000020,-0.00000206,0.00000054,0.00000
 120,0.00000078,0.00000378,0.00000107,0.00000195,-0.00000271,0.00000055
 ,0.00000163,0.00000123,0.00000157,-0.00000161,-0.00000260,-0.00002187,
 -0.00000236,0.00000398,0.00001757,-0.00001353,0.00000567,-0.00000057,0
 .00000696,0.00000359,-0.00004425,0.00017227,-0.00000747,-0.00003544,-0
 .00002215,0.00001647,0.00000050,0.00002007,0.00000044,-0.00077681,-0.0
 0013268,0.00009181,0.00017174,-0.00009428,0.00011512,0.00099553,0.0001
 1047,0.00181137,0.00313646,0.00110831,-0.00790334,0.05135971,0.1185200
 1,-0.26289857,0.00168342,0.00844538,-0.01443255,0.00000031,0.00000029,
 0.00000076,0.00000118,-0.00000050,-0.00000028,0.00000018,-0.00000008,-
 0.00000008,0.00000042,-0.00000015,0.00000022,0.00000022,0.00000024,0.0
 0000052,-0.00000014,-0.00000003,-0.00000106,0.00000160,0.00000229,-0.0
 0000082,-0.00000005,0.00000043,0.00000217,-0.00000087,-0.00000016,0.00
 000046,-0.00000051,0.00000008,0.00000001,-0.00000114,-0.00000014,-0.00
 000224,-0.00000053,0.00000195,-0.00000186,-0.00001292,-0.00000932,-0.0
 0001983,-0.00000656,0.00000194,-0.00000069,-0.00000219,-0.00000143,-0.
 00000100,0.00005382,0.00004520,-0.00011272,0.00001909,-0.00113943,-0.0
 0076021,-0.05396922,-0.12390631,0.28009218,-0.00004151,0.00003967,-0.0
 0002027,0.00009533,-0.00008457,0.00001644,0.00001481,-0.00001327,0.000
 00716,-0.00002087,0.00001132,0.00000725,0.00001320,-0.00001708,-0.0000
 2030,-0.00001603,0.00001477,-0.00000677,-0.00000233,0.00000236,0.00000
 502,0.00000100,-0.00000106,-0.00000096,-0.00000150,0.00000140,0.000000
 44,0.00000186,-0.00000230,0.00000245,-0.00000023,-0.00000167,-0.000005
 61,0.00000840,0.00000021,0.00001929,-0.00014805,-0.00000317,0.00001023
 ,-0.00000320,0.00004711,-0.00000276,0.00000090,0.00000325,0.00000046,-
 0.00000144,-0.00000189,-0.00001031,-0.00000369,-0.00000989,0.00000343,
 -0.00000039,-0.00000279,-0.00000144,-0.00000566,0.00000433,0.00000876,
 0.00008505,0.00007304,-0.00000651,0.00000581,0.00003469,-0.00000002,-0
 .00003266,0.00000749,0.00005561,-0.00009078,0.00009598,0.00011710,0.00
 004610,-0.00010187,-0.00002197,-0.00006918,-0.00005235,0.00002015,0.00
 093280,-0.00201887,-0.00127330,0.00044462,0.00110430,0.00056292,-0.003
 28031,-0.00110493,-0.00413657,-0.01270277,-0.01786168,0.00344526,-0.18
 720148,-0.15178457,-0.00688293,0.00674625,0.00999772,-0.00212884,-0.00
 000244,-0.00000114,-0.00000236,-0.00000549,0.00000209,0.00000034,-0.00
 000084,0.00000068,0.00000028,-0.00000094,0.00000068,-0.00000107,0.0000
 0060,-0.00000032,-0.00000061,0.00000070,0.00000231,0.00000258,-0.00000
 938,-0.00001086,0.00000465,0.00000208,0.00000064,-0.00000847,0.0000007
 8,0.00000088,0.00000073,0.00000008,-0.00000072,0.00000013,0.00000660,0
 .00000021,0.00000466,-0.00000340,-0.00000788,0.00000086,0.00000576,0.0
 0005615,-0.00001542,0.00001366,-0.00000308,-0.00000079,-0.00001096,-0.
 00000260,0.00000222,-0.00152509,0.00053115,0.00013032,0.00119296,0.000
 71592,0.00171577,-0.00202980,-0.00094590,-0.00137093,0.19658723,-0.000
 00011,-0.00000197,0.00000156,0.00000056,0.00000486,-0.00000038,0.00000
 071,-0.00000148,0.00000021,-0.00000073,0.00000116,0.00000054,0.0000016
 8,-0.00000163,-0.00000061,-0.00000190,0.00000116,-0.00000068,-0.000000
 03,0.00000025,0.00000039,-0.00000001,-0.00000020,-0.00000040,-0.000000
 20,-0.00000004,0.00000062,0.00000019,-0.00000041,0.00000004,0.00000011
 ,-0.00000039,-0.00000052,-0.00000026,0.00000047,0.00000041,0.00000793,
 0.00000341,0.00000132,0.00000297,-0.00000708,-0.00000026,-0.00000156,-
 0.00000033,-0.00000075,-0.00000060,0.00000059,0.00000101,-0.00000122,0
 .00000208,-0.00000107,0.00000156,0.00000083,0.00000118,-0.00000253,-0.
 00000039,0.00000028,0.00000689,-0.00002714,-0.00000804,-0.00002714,0.0
 0000282,-0.00000180,0.00004717,-0.00000654,-0.00002759,0.00003243,-0.0
 0001896,-0.00008809,-0.00002231,0.00002482,0.00000348,0.00002574,0.000
 02050,0.00000082,-0.00014416,0.00057486,0.00048981,-0.00020400,-0.0003
 4799,-0.00013281,0.00241803,0.00136822,0.00259231,0.01058521,0.0102910
 6,-0.00247815,-0.15412938,-0.18914545,-0.00194385,-0.01243028,-0.01337
 387,0.00306682,0.00000030,-0.00000006,-0.00000032,0.00000065,0.0000000
 2,-0.00000001,0.,0.00000019,0.00000007,0.00000010,0.00000012,-0.000000
 10,0.00000039,0.00000003,0.00000027,-0.00000003,0.00000029,-0.00000015
 ,0.00000030,0.00000154,-0.00000009,0.00000012,-0.00000006,-0.00000048,
 0.00000098,-0.00000008,-0.00000007,0.00000088,-0.00000004,0.00000005,0
 .00000136,-0.00000085,-0.00000106,0.00000431,0.00000140,-0.00000131,0.
 00000771,-0.00001426,0.00000846,-0.00000206,0.00000023,-0.00000251,0.0
 0000273,0.00000125,-0.00000003,0.00118116,0.00001619,-0.00009370,-0.00
 053288,0.00018685,-0.00145637,-0.00687132,-0.00679845,-0.00270075,0.16
 061110,0.19588876,0.00000271,-0.00000645,0.00000397,-0.00000964,0.0000
 1121,-0.00000369,-0.00000144,0.00000107,-0.00000083,0.00000175,-0.0000
 0105,-0.00000034,-0.00000083,0.00000115,0.00000192,0.00000102,-0.00000
 104,0.00000054,0.00000028,-0.00000025,-0.00000028,-0.00000016,0.000000
 12,-0.00000005,0.00000015,-0.00000016,0.00000025,-0.00000014,0.0000000
 8,-0.00000021,0.00000017,-0.00000016,0.00000033,-0.00000093,0.00000017
 ,-0.00000202,0.00001470,-0.00000051,0.00000039,-0.00000179,-0.00000293
 ,-0.00000243,-0.00000028,-0.00000169,0.00000019,0.00000075,0.00000068,
 0.00000190,0.00000006,0.00000085,-0.00000187,0.00000081,0.00000137,0.0
 0000162,-0.00000029,-0.00000076,-0.00000114,-0.00000766,-0.00000651,-0
 .00000209,0.00000121,-0.00000540,0.00001570,0.00000211,-0.00000957,0.0
 0000388,0.00000298,0.00001928,-0.00003473,-0.00001245,-0.00000010,0.00
 000605,0.00000404,0.00000727,0.00000171,-0.00002856,0.00042856,0.00022
 871,-0.00017972,-0.00008503,-0.00000180,0.00108546,-0.00141749,-0.0009
 0706,-0.00645014,-0.00678153,-0.00453007,-0.00329665,0.00071090,-0.046
 77756,-0.01540772,-0.01355246,-0.00181258,0.00000004,0.00000017,0.0000
 0030,0.00000050,-0.00000020,-0.00000016,0.00000007,-0.00000002,0.00000
 004,0.00000007,-0.00000003,0.00000006,0.00000015,-0.00000001,0.0000001
 9,-0.00000003,0.00000004,-0.00000039,0.00000023,0.00000105,-0.00000017
 ,0.00000008,0.00000041,0.00000039,-0.00000054,-0.00000019,0.00000039,-
 0.00000010,-0.00000002,0.00000003,0.00000045,-0.00000043,-0.00000119,-
 0.00000080,0.00000041,-0.00000270,-0.00001059,0.00000579,-0.00002219,0
 .00000134,0.00000004,-0.00000156,0.00000030,0.00000026,-0.00000054,-0.
 00024306,0.00004569,0.00031488,-0.00103975,0.00033478,0.00122059,0.017
 86936,0.01634289,0.00421139,0.00876379,0.00477470,0.04871815,-0.000046
 44,0.00003752,-0.00002827,0.00010441,-0.00008727,0.00002135,0.00001626
 ,-0.00001342,0.00000937,-0.00002233,0.00001157,0.00000597,0.00001037,-
 0.00001648,-0.00002355,-0.00001551,0.00001379,-0.00000639,-0.00000280,
 0.00000298,0.00000454,0.00000166,-0.00000160,0.00000043,-0.00000127,0.
 00000090,-0.00000133,0.00000118,-0.00000156,0.00000328,-0.00000107,-0.
 00000085,-0.00000532,0.00001118,-0.00000079,0.00002262,-0.00016102,-0.
 00001056,0.00001395,-0.00000413,0.00005601,-0.00000152,0.00000280,0.00
 000620,0.00000008,-0.00000220,-0.00000365,-0.00001522,-0.00000327,-0.0
 0001325,0.00000772,-0.00000269,-0.00000535,-0.00000422,-0.00000431,0.0
 0000574,0.00001157,0.00011536,0.00003444,-0.00002265,-0.00005964,0.000
 01480,-0.00000578,-0.00000638,0.00004056,0.00002313,-0.00018667,0.0003
 4176,0.00024775,-0.00009921,-0.00015605,-0.00000126,-0.00005180,0.0000
 0513,0.00001747,-0.00055508,-0.00142091,-0.00106130,0.00013072,0.00046
 731,0.00034804,-0.00196006,0.00478359,0.00368970,-0.01206246,-0.009949
 13,0.01561085,0.00917028,0.00686773,-0.01197492,-0.15408383,-0.0370985
 9,0.14363909,-0.00000248,-0.00000076,-0.00000236,-0.00000681,0.0000022
 7,0.00000040,-0.00000057,0.00000072,0.00000029,-0.00000119,0.00000090,
 -0.00000105,0.,-0.00000036,-0.00000159,0.00000109,0.00000189,0.0000036
 6,-0.00000994,-0.00001286,0.00000439,0.00000137,0.00000020,-0.00000974
 ,0.00000071,0.00000134,0.00000009,-0.00000028,-0.00000063,0.00000009,0
 .00000569,0.00000136,0.00000810,-0.00000993,-0.00001178,0.00000323,0.0
 0002008,0.00002705,0.00000975,0.00003170,-0.00000431,0.00000381,-0.000
 01792,-0.00000507,0.00000793,0.00027656,-0.00005666,0.00027476,0.00119
 730,-0.00112434,-0.00158685,0.00088740,-0.00233771,-0.00244782,-0.0000
 3905,0.00126957,0.00126402,0.16104350,0.00000843,-0.00000502,0.0000043
 8,-0.00001909,0.00001557,-0.00000140,-0.00000264,0.00000166,-0.0000021
 0,0.00000374,-0.00000149,-0.00000133,-0.00000160,0.00000282,0.00000352
 ,0.00000229,-0.00000216,0.00000099,0.00000033,-0.00000039,-0.00000084,
 -0.00000022,0.00000020,0.00000004,0.00000019,-0.00000020,0.00000005,-0
 .00000026,0.00000039,-0.00000032,0.00000024,0.00000020,0.00000074,-0.0
 0000184,0.00000002,-0.00000338,0.00003349,0.00001014,-0.00000275,0.000
 00433,-0.00001661,0.00000145,-0.00000163,-0.00000052,-0.00000168,-0.00
 000065,0.00000048,0.00000224,-0.00000025,0.00000361,-0.00000019,0.0000
 0119,0.00000131,0.00000116,-0.00000100,-0.00000026,-0.00000120,-0.0000
 2400,-0.00001141,0.00000493,0.00000546,0.00002346,-0.00000270,0.000033
 22,-0.00005782,-0.00002268,0.00007886,-0.00024823,-0.00002239,0.000084
 46,0.00007879,0.00000581,0.00001171,-0.00000742,-0.00001679,0.00057638
 ,0.00049938,-0.00029546,0.00012182,0.00012054,0.00013873,-0.00081064,-
 0.00164632,-0.00239177,0.01024030,0.00169126,-0.01400663,0.00697542,-0
 .00119063,-0.00768019,-0.04004810,-0.05935049,0.04555084,0.00000084,0.
 00000007,0.00000011,0.00000175,-0.00000049,0.00000013,0.00000013,-0.00
 000010,-0.00000004,0.00000020,-0.00000010,0.00000021,-0.00000002,0.000
 00005,0.00000019,-0.00000019,-0.00000051,-0.00000045,0.00000241,0.0000
 0354,-0.00000110,-0.00000041,-0.00000090,0.00000105,0.00000089,-0.0000
 0040,-0.00000051,0.00000082,0.00000020,0.00000014,-0.00000015,-0.00000
 087,-0.00000134,0.00000911,0.00000298,-0.00000020,0.00000697,-0.000000
 96,0.00000297,-0.00001432,0.00000627,0.00000639,0.00000898,0.00000396,
 -0.00000442,0.00032556,-0.00022591,0.00039014,0.00076548,0.00135164,0.
 00117054,0.00113951,-0.00091055,-0.00030485,-0.00063663,0.00158412,-0.
 00075333,0.03763674,0.05963769,0.00001028,-0.00000667,0.00000413,-0.00
 002425,0.00001644,-0.00000361,-0.00000456,0.00000382,-0.00000299,0.000
 00588,-0.00000345,-0.00000166,-0.00000315,0.00000502,0.00000604,0.0000
 0491,-0.00000383,0.00000193,0.00000072,-0.00000097,-0.00000125,-0.0000
 0049,0.00000067,0.00000004,0.00000041,0.00000003,-0.00000011,-0.000000
 26,0.00000075,-0.00000071,0.00000041,0.00000055,0.00000150,-0.00000263
 ,-0.00000017,-0.00000555,0.00003118,0.00000161,0.00000012,-0.00000181,
 -0.00001043,-0.00000046,0.00000004,-0.00000197,0.00000091,0.00000094,0
 .00000143,0.00000301,0.00000113,0.00000247,-0.00000181,0.00000015,0.00
 000116,0.00000159,0.00000152,-0.00000150,-0.00000348,-0.00002352,-0.00
 000449,0.00000505,0.00000565,-0.00000399,-0.00000348,0.00001228,-0.000
 00465,-0.00000508,-0.00012860,0.00009574,0.00014545,-0.00002909,-0.000
 01692,0.00000173,-0.00001329,0.00002086,-0.00000306,-0.00078486,-0.000
 69244,-0.00033800,0.00038516,0.00029150,0.00018356,-0.00218664,0.00186
 985,0.00165285,-0.00550295,-0.00470243,0.00295600,0.01502375,0.0068707
 8,-0.01621704,0.14423751,0.04271539,-0.20842865,0.00000030,0.00000003,
 0.00000065,0.00000146,-0.00000061,0.00000006,0.00000007,-0.00000037,-0
 .00000018,0.00000016,-0.00000038,0.00000038,-0.00000043,-0.00000004,0.
 00000021,-0.00000037,-0.00000088,-0.00000067,0.00000145,0.00000220,-0.
 00000092,0.00000006,-0.00000023,0.00000181,-0.00000074,-0.00000060,0.,
 -0.00000008,0.00000015,-0.00000025,-0.00000187,-0.00000025,-0.00000099
 ,-0.00000174,0.00000103,-0.00000088,-0.00000172,-0.00001250,-0.0000002
 3,-0.00000663,0.00000638,0.00000608,-0.00000487,-0.00000181,0.00000047
 ,0.00015109,-0.00002538,-0.00000468,0.00072495,-0.00072436,0.00013754,
 0.00178474,-0.00398944,-0.00183844,-0.00128599,0.00160347,0.00204868,-
 0.15169721,-0.04247039,0.22013479,0.00002059,-0.00001341,0.00000824,-0
 .00004329,0.00003244,-0.00000697,-0.00000642,0.00000605,-0.00000329,0.
 00000983,-0.00000520,-0.00000349,-0.00000560,0.00000824,0.00000931,0.0
 0000743,-0.00000626,0.00000306,0.00000083,-0.00000116,-0.00000251,-0.0
 0000034,0.00000062,0.00000051,0.00000081,-0.00000037,-0.00000044,-0.00
 000070,0.00000131,-0.00000109,0.00000023,0.00000114,0.00000249,-0.0000
 0396,-0.00000044,-0.00000863,0.00006482,0.00000139,-0.00000847,0.00000
 153,-0.00002273,0.00000233,-0.00000016,-0.00000144,0.00000070,0.000000
 25,0.00000079,0.00000484,0.00000199,0.00000560,-0.00000054,-0.00000034
 ,0.00000036,0.,0.00000412,-0.00000187,-0.00000520,-0.00004868,-0.00001
 367,0.00001054,0.00002635,-0.00002591,-0.00000125,-0.00002287,0.000019
 83,0.00002502,0.00005884,-0.00010032,-0.00013627,0.00002204,0.00003566
 ,0.00000421,0.00002199,-0.00000729,-0.00000437,0.00009960,0.00110266,0
 .00074693,-0.00058536,-0.00053727,0.00005951,0.00384215,-0.00186624,-0
 .00226080,0.00722835,0.02581783,-0.00395109,-0.00667658,-0.01118503,0.
 00404837,-0.06387992,-0.08310188,0.01716111,0.00000106,0.00000017,0.00
 000107,0.00000262,-0.00000099,0.00000004,0.00000023,-0.00000050,-0.000
 00013,0.00000033,-0.00000052,0.00000061,-0.00000051,-0.00000005,0.0000
 0026,-0.00000052,-0.00000140,-0.00000105,0.00000498,0.00000466,-0.0000
 0210,-0.00000156,-0.00000057,0.00000488,-0.00000013,-0.00000074,-0.000
 00093,0.00000045,0.00000023,-0.00000024,-0.00000425,0.00000093,-0.0000
 0188,-0.00000116,0.00000179,0.00000405,-0.00003900,0.00000920,-0.00000
 926,0.00000188,-0.00000601,-0.00000497,0.00000531,0.00000143,-0.000002
 60,-0.00088881,-0.00009252,-0.00065504,-0.00173382,0.00251528,0.002786
 23,0.00069627,0.00186379,0.00122559,0.00104291,-0.00184015,-0.00232535
 ,-0.00360926,-0.01651762,-0.00067842,0.06438544,-0.00000626,0.00001224
 ,-0.00000421,0.00001654,-0.00001803,0.00000605,0.00000323,-0.00000404,
 0.00000036,-0.00000445,0.00000348,0.00000199,0.00000447,-0.00000415,-0
 .00000433,-0.00000419,0.00000410,-0.00000183,-0.00000047,0.00000040,0.
 00000150,0.00000003,0.00000008,-0.00000061,-0.00000031,0.00000074,0.00
 000061,0.00000086,-0.00000052,0.00000026,0.00000086,-0.00000061,-0.000
 00168,0.00000069,0.00000031,0.00000378,-0.00001895,0.00001226,0.000001
 39,0.00000221,-0.00000326,-0.00000061,-0.00000227,-0.00000068,-0.00000
 081,-0.00000053,0.00000125,0.00000092,-0.00000217,0.00000144,-0.000001
 83,0.00000241,0.00000135,0.00000233,-0.00000502,0.00000013,0.00000046,
 0.00000967,0.00000466,-0.00000345,-0.00000337,0.00002658,0.00000116,0.
 00003120,-0.00003853,-0.00002094,-0.00000606,-0.00005977,0.00011115,0.
 00002148,0.00001421,-0.00001294,-0.00001117,0.00000052,0.00000044,0.00
 013623,-0.00079254,-0.00088614,0.00050508,0.00064829,0.00024303,-0.002
 45786,0.00313743,0.00175233,-0.00641745,-0.01381004,0.00128110,0.00061
 294,-0.00553371,0.00071889,-0.07979613,-0.30683860,0.03084222,-0.00000
 005,-0.00000049,-0.00000095,0.00000029,0.00000033,0.00000028,-0.000000
 42,0.00000007,0.00000012,-0.00000037,0.,-0.00000028,0.00000022,-0.0000
 0040,0.00000016,-0.00000023,0.00000020,0.00000028,-0.00000110,0.000000
 43,0.00000090,0.00000068,0.00000025,-0.00000187,0.00000115,-0.00000029
 ,0.00000018,0.00000113,-0.00000011,0.00000004,0.00000336,-0.00000193,-
 0.00000084,0.00000531,0.00000089,-0.00000286,0.00000944,-0.00000060,0.
 00000012,-0.00000842,0.00000604,0.00000754,0.00000020,0.00000027,0.000
 00024,0.00136313,-0.00052606,-0.00003505,0.00047239,-0.00093542,-0.002
 40473,-0.00039158,0.00088954,-0.00010964,0.00131167,-0.00023041,-0.000
 06162,0.00070188,-0.00136060,-0.00083019,0.08392019,0.32539332,0.00000
 410,-0.00000108,-0.00000130,-0.00000619,0.00000374,0.00000248,-0.00000
 088,0.00000124,0.00000008,0.00000156,-0.00000090,-0.00000142,-0.000002
 05,0.00000214,0.00000084,0.00000188,-0.00000158,0.00000071,-0.00000007
 ,-0.00000005,-0.00000081,0.00000021,-0.00000008,0.00000058,0.00000020,
 -0.00000023,-0.00000083,-0.00000040,0.00000053,0.00000006,-0.00000044,
 0.00000069,0.00000069,0.00000015,-0.00000056,-0.00000052,0.00000987,0.
 00000149,-0.00000232,0.00000270,-0.00000429,0.00000367,0.00000068,0.00
 000215,-0.00000106,-0.00000131,-0.00000151,-0.00000212,0.00000084,-0.0
 0000020,0.00000419,-0.00000178,-0.00000171,-0.00000279,0.00000228,0.00
 000159,0.00000081,-0.00000605,-0.00001511,-0.00000462,-0.00001687,0.00
 001480,0.00000365,0.00002617,-0.00002987,-0.00003819,0.00000551,0.0000
 5027,-0.00013466,-0.00001293,0.00001519,-0.00000049,0.00001374,0.00001
 159,0.00000550,0.00016173,-0.00001655,-0.00001848,0.00014314,-0.000153
 99,0.00005939,0.00120239,-0.00115656,0.00007345,0.00109375,0.00414348,
 -0.00551172,-0.00733622,-0.02639377,0.00319775,0.01805806,0.03428323,-
 0.04475572,0.00000040,0.,0.00000011,0.00000015,-0.00000012,0.00000022,
 0.00000011,-0.00000013,-0.00000007,0.00000004,-0.00000005,0.00000016,-
 0.00000038,0.00000011,-0.00000032,0.00000004,-0.00000050,0.00000026,0.
 00000132,0.00000039,-0.00000090,-0.00000080,-0.00000133,0.00000032,0.0
 0000066,0.,-0.00000104,0.00000012,0.00000015,0.00000010,-0.00000199,0.
 00000115,0.00000150,0.00000384,0.00000108,0.00000351,0.00003626,0.0000
 1373,0.00003967,-0.00000669,0.00000116,-0.00000431,0.00000173,0.000000
 08,0.00000071,-0.00012827,-0.00003383,0.00037598,-0.00136056,0.0010433
 4,0.00083026,-0.00179304,0.00171536,0.00162878,0.00229590,-0.00360587,
 -0.00267464,0.00364092,0.02070371,-0.00043043,-0.01603354,-0.03059248,
 0.04735332\\0.00000391,-0.00000296,0.00000408,0.00000249,0.00000937,0.
 00000032,-0.00000523,-0.00000527,0.00000187,-0.00001281,-0.00000691,-0
 .00000363,0.00001742,0.00001895,0.00001597,-0.00000346,-0.00002765,-0.
 00000664,0.00000265,0.00001322,-0.00000319,0.00000273,0.00000440,0.000
 00455,0.00000073,0.00000193,-0.00000249,-0.00000205,0.00000540,-0.0000
 0208,0.00000060,0.00000195,0.00000435,0.00000410,0.00000228,-0.0000012
 0,-0.00001146,-0.00000682,-0.00000483,0.00000100,0.00000037,0.00000399
 ,-0.00000533,-0.00000500,0.00001000,0.00000350,0.00000471,0.00000212,-
 0.00000559,-0.00000960,-0.00000396,-0.00000273,0.00000058,-0.00000398,
 0.00000345,0.00000718,-0.00001316,0.00000895,0.00000843,0.00000128,0.0
 0000451,-0.00000323,-0.00000428,-0.00000050,-0.00000401,-0.00000207,-0
 .00000407,-0.00000205,0.00000285,0.00000486,0.00000135,-0.00000098,-0.
 00000562,-0.00000377,0.00000137,0.00000144,0.00000579,0.00000642,-0.00
 000237,-0.00000436,-0.00000119,0.00000136,-0.00001094,-0.00000610,-0.0
 0000200,0.00000321,-0.00000194,0.00000270,-0.00000068,0.00000076,0.000
 00131,-0.00000442,-0.00000121,0.00000207,0.00000119,-0.00000294,0.0000
 0087,0.00000312,0.00000245,0.00000353,-0.00000098,0.00000122,0.0000020
 4,0.00000166,0.00000556,-0.00000006,0.00000366,0.00000507,-0.00000353,
 0.00000424,0.00000057,0.00000021,-0.00000040,-0.00000248,-0.00000510,-
 0.00000039,-0.00000217,-0.00000052,0.00000068,-0.00000630,0.00000018,0
 .00000538,-0.00000184,-0.00000059,-0.00000193,0.00000397,-0.00000018,0
 .00000466,-0.00000094,-0.00000245,0.00000235,-0.00000036,-0.00000010,-
 0.00000493,0.00000044,0.00000202,-0.00000339,-0.00000014,0.00000078,0.
 00000425,0.00000220,0.00000094,-0.00000546,0.00000193,0.00000033,-0.00
 000056,-0.00000448,-0.00000267,-0.00000553,0.00000084,-0.00000305,-0.0
 0000188,0.00000223,0.00000081,0.00000283,-0.00000181\\\@


 MEN HAVE BECOME THE TOOLS OF THEIR TOOLS... THOREAU   
 Job cpu time:  0 days 17 hours 42 minutes 46.0 seconds.
 File lengths (MBytes):  RWF=   1722 Int=      0 D2E=      0 Chk=     24 Scr=      1
 Normal termination of Gaussian 09 at Thu Sep  1 01:06:19 2022.
