 Entering Gaussian System, Link 0=g09
 Input=Mol13.gjf
 Output=Mol13.log
 Initial command:
 /opt/gaussian/l1.exe /home/scr/lqcapf-6/Gau-85100.inp -scrdir=/home/scr/lqcapf-6/
 Entering Link 1 = /opt/gaussian/l1.exe PID=     85102.
  
 Copyright (c) 1988,1990,1992,1993,1995,1998,2003,2009,2011,
            Gaussian, Inc.  All Rights Reserved.
  
 This is part of the Gaussian(R) 09 program.  It is based on
 the Gaussian(R) 03 system (copyright 2003, Gaussian, Inc.),
 the Gaussian(R) 98 system (copyright 1998, Gaussian, Inc.),
 the Gaussian(R) 94 system (copyright 1995, Gaussian, Inc.),
 the Gaussian 92(TM) system (copyright 1992, Gaussian, Inc.),
 the Gaussian 90(TM) system (copyright 1990, Gaussian, Inc.),
 the Gaussian 88(TM) system (copyright 1988, Gaussian, Inc.),
 the Gaussian 86(TM) system (copyright 1986, Carnegie Mellon
 University), and the Gaussian 82(TM) system (copyright 1983,
 Carnegie Mellon University). Gaussian is a federally registered
 trademark of Gaussian, Inc.
  
 This software contains proprietary and confidential information,
 including trade secrets, belonging to Gaussian, Inc.
  
 This software is provided under written license and may be
 used, copied, transmitted, or stored only in accord with that
 written license.
  
 The following legend is applicable only to US Government
 contracts under FAR:
  
                    RESTRICTED RIGHTS LEGEND
  
 Use, reproduction and disclosure by the US Government is
 subject to restrictions as set forth in subparagraphs (a)
 and (c) of the Commercial Computer Software - Restricted
 Rights clause in FAR 52.227-19.
  
 Gaussian, Inc.
 340 Quinnipiac St., Bldg. 40, Wallingford CT 06492
  
  
 ---------------------------------------------------------------
 Warning -- This program may not be used in any manner that
 competes with the business of Gaussian, Inc. or will provide
 assistance to any competitor of Gaussian, Inc.  The licensee
 of this program is prohibited from giving any competitor of
 Gaussian, Inc. access to this program.  By using this program,
 the user acknowledges that Gaussian, Inc. is engaged in the
 business of creating and licensing software in the field of
 computational chemistry and represents and warrants to the
 licensee that it is not a competitor of Gaussian, Inc. and that
 it will not use this program in any manner prohibited above.
 ---------------------------------------------------------------
  

 Cite this work as:
 Gaussian 09, Revision C.01,
 M. J. Frisch, G. W. Trucks, H. B. Schlegel, G. E. Scuseria, 
 M. A. Robb, J. R. Cheeseman, G. Scalmani, V. Barone, B. Mennucci, 
 G. A. Petersson, H. Nakatsuji, M. Caricato, X. Li, H. P. Hratchian, 
 A. F. Izmaylov, J. Bloino, G. Zheng, J. L. Sonnenberg, M. Hada, 
 M. Ehara, K. Toyota, R. Fukuda, J. Hasegawa, M. Ishida, T. Nakajima, 
 Y. Honda, O. Kitao, H. Nakai, T. Vreven, J. A. Montgomery, Jr., 
 J. E. Peralta, F. Ogliaro, M. Bearpark, J. J. Heyd, E. Brothers, 
 K. N. Kudin, V. N. Staroverov, T. Keith, R. Kobayashi, J. Normand, 
 K. Raghavachari, A. Rendell, J. C. Burant, S. S. Iyengar, J. Tomasi, 
 M. Cossi, N. Rega, J. M. Millam, M. Klene, J. E. Knox, J. B. Cross, 
 V. Bakken, C. Adamo, J. Jaramillo, R. Gomperts, R. E. Stratmann, 
 O. Yazyev, A. J. Austin, R. Cammi, C. Pomelli, J. W. Ochterski, 
 R. L. Martin, K. Morokuma, V. G. Zakrzewski, G. A. Voth, 
 P. Salvador, J. J. Dannenberg, S. Dapprich, A. D. Daniels, 
 O. Farkas, J. B. Foresman, J. V. Ortiz, J. Cioslowski, 
 and D. J. Fox, Gaussian, Inc., Wallingford CT, 2010.
 
 ******************************************
 Gaussian 09:  EM64L-G09RevC.01 23-Sep-2011
                 1-Sep-2022 
 ******************************************
 %nprocshared=8
 Will use up to    8 processors via shared memory.
 %mem=1600MB
 -------------------------
 #p opt freq b3lyp/cc-pvdz
 -------------------------
 1/14=-1,18=20,19=15,26=3,38=1/1,3;
 2/9=110,12=2,17=6,18=5,40=1/2;
 3/5=16,11=2,16=1,25=1,30=1,71=1,74=-5/1,2,3;
 4//1;
 5/5=2,38=5/2;
 6/7=2,8=2,9=2,10=2,28=1/1;
 7//1,2,3,16;
 1/14=-1,18=20,19=15/3(2);
 2/9=110/2;
 99//99;
 2/9=110/2;
 3/5=16,11=2,16=1,25=1,30=1,71=1,74=-5/1,2,3;
 4/5=5,16=3/1;
 5/5=2,38=5/2;
 7//1,2,3,16;
 1/14=-1,18=20,19=15/3(-5);
 2/9=110/2;
 6/7=2,8=2,9=2,10=2,19=2,28=1/1;
 99/9=1/99;
 Leave Link    1 at Thu Sep  1 09:12:09 2022, MaxMem=  209715200 cpu:       0.2
 (Enter /opt/gaussian/l101.exe)
 ---------
 Mol13.log
 ---------
 Charge =  0 Multiplicity = 1
 Symbolic Z-Matrix:
 O                     1.23119  -1.23731  -0.59344 
 C                     1.56677  -0.1251   -0.9686 
 C                     3.03796   0.20101  -1.19715 
 N                     3.87635  -0.93973  -1.00012 
 N                     4.27887  -1.67162  -2.07835 
 N                     4.96403  -2.66253  -1.68494 
 C                     5.03779  -2.63657  -0.30105 
 C                     5.67525  -3.49836   0.59037 
 C                     5.57356  -3.20679   1.92857 
 C                     4.84854  -2.07937   2.37496 
 C                     4.21551  -1.22611   1.5028 
 C                     4.32713  -1.52883   0.14339 
 N                     0.66033   0.87907  -1.20997 
 C                     1.07815   2.25175  -1.51 
 C                     1.53663   3.05774  -0.31695 
 C                     2.13949   4.36575  -0.4826 
 C                     2.48324   4.95596   0.67172 
 S                     2.08818   3.9333    2.08226 
 C                     1.44104   2.6884    0.9727 
 C                    -0.74593   0.59898  -1.16848 
 C                    -1.26655  -0.4936   -1.85526 
 C                    -2.62697  -0.73821  -1.83297 
 C                    -3.48662   0.11743  -1.15499 
 C                    -2.97225   1.21511  -0.48095 
 C                    -1.60457   1.44661  -0.48057 
 N                    -4.88517  -0.15887  -1.18555 
 S                    -5.81355  -0.49984   0.23183 
 O                    -5.38988   0.4895    1.47347 
 O                    -7.36718  -0.46766  -0.3234 
 C                    -5.32055  -2.18046   0.69632 
 C                    -5.47026  -2.5795    2.1358 
 C                    -4.10489  -2.36718   1.55889 
 H                     3.18717   0.5211   -2.21786 
 H                     3.35225   1.00262  -0.54364 
 H                     6.21792  -4.34914   0.23084 
 H                     6.04588  -3.84028   2.65298 
 H                     4.78919  -1.88897   3.42902 
 H                     3.65909  -0.38057   1.85421 
 H                     1.86362   2.24282  -2.25601 
 H                     0.23595   2.74476  -1.97489 
 H                     2.29601   4.82047  -1.4405 
 H                     2.93869   5.90939   0.81627 
 H                     1.02981   1.78825   1.3715 
 H                    -0.61296  -1.16081  -2.37526 
 H                    -3.03266  -1.58657  -2.3468 
 H                    -3.6301    1.8615    0.06275 
 H                    -1.21627   2.28478   0.06144 
 H                    -5.4729    0.22912  -1.89354 
 H                    -5.56181  -2.8524   -0.09907 
 H                    -5.82885  -1.83865   2.82203 
 H                    -5.82303  -3.57454   2.31951 
 H                    -3.48358  -3.2104    1.33173 
 H                    -3.57619  -1.4904    1.87364 
 
 NAtoms=     53 NQM=        0 NQMF=       0 NMMI=     53 NMMIF=      0
                NMic=       0 NMicF=      0.
                    Isotopes and Nuclear Properties:
 (Nuclear quadrupole moments (NQMom) in fm**2, nuclear magnetic moments (NMagM)
  in nuclear magnetons)

  Atom         1           2           3           4           5           6           7           8           9          10
 IAtWgt=          16          12          12          14          14          14          12          12          12          12
 AtmWgt=  15.9949146  12.0000000  12.0000000  14.0030740  14.0030740  14.0030740  12.0000000  12.0000000  12.0000000  12.0000000
 NucSpn=           0           0           0           2           2           2           0           0           0           0
 AtZEff=   0.0000000   0.0000000   0.0000000   0.0000000   0.0000000   0.0000000   0.0000000   0.0000000   0.0000000   0.0000000
 NQMom=    0.0000000   0.0000000   0.0000000   2.0440000   2.0440000   2.0440000   0.0000000   0.0000000   0.0000000   0.0000000
 NMagM=    0.0000000   0.0000000   0.0000000   0.4037610   0.4037610   0.4037610   0.0000000   0.0000000   0.0000000   0.0000000

  Atom        11          12          13          14          15          16          17          18          19          20
 IAtWgt=          12          12          14          12          12          12          12          32          12          12
 AtmWgt=  12.0000000  12.0000000  14.0030740  12.0000000  12.0000000  12.0000000  12.0000000  31.9720718  12.0000000  12.0000000
 NucSpn=           0           0           2           0           0           0           0           0           0           0
 AtZEff=   0.0000000   0.0000000   0.0000000   0.0000000   0.0000000   0.0000000   0.0000000   0.0000000   0.0000000   0.0000000
 NQMom=    0.0000000   0.0000000   2.0440000   0.0000000   0.0000000   0.0000000   0.0000000   0.0000000   0.0000000   0.0000000
 NMagM=    0.0000000   0.0000000   0.4037610   0.0000000   0.0000000   0.0000000   0.0000000   0.0000000   0.0000000   0.0000000

  Atom        21          22          23          24          25          26          27          28          29          30
 IAtWgt=          12          12          12          12          12          14          32          16          16          12
 AtmWgt=  12.0000000  12.0000000  12.0000000  12.0000000  12.0000000  14.0030740  31.9720718  15.9949146  15.9949146  12.0000000
 NucSpn=           0           0           0           0           0           2           0           0           0           0
 AtZEff=   0.0000000   0.0000000   0.0000000   0.0000000   0.0000000   0.0000000   0.0000000   0.0000000   0.0000000   0.0000000
 NQMom=    0.0000000   0.0000000   0.0000000   0.0000000   0.0000000   2.0440000   0.0000000   0.0000000   0.0000000   0.0000000
 NMagM=    0.0000000   0.0000000   0.0000000   0.0000000   0.0000000   0.4037610   0.0000000   0.0000000   0.0000000   0.0000000

  Atom        31          32          33          34          35          36          37          38          39          40
 IAtWgt=          12          12           1           1           1           1           1           1           1           1
 AtmWgt=  12.0000000  12.0000000   1.0078250   1.0078250   1.0078250   1.0078250   1.0078250   1.0078250   1.0078250   1.0078250
 NucSpn=           0           0           1           1           1           1           1           1           1           1
 AtZEff=   0.0000000   0.0000000   0.0000000   0.0000000   0.0000000   0.0000000   0.0000000   0.0000000   0.0000000   0.0000000
 NQMom=    0.0000000   0.0000000   0.0000000   0.0000000   0.0000000   0.0000000   0.0000000   0.0000000   0.0000000   0.0000000
 NMagM=    0.0000000   0.0000000   2.7928460   2.7928460   2.7928460   2.7928460   2.7928460   2.7928460   2.7928460   2.7928460

  Atom        41          42          43          44          45          46          47          48          49          50
 IAtWgt=           1           1           1           1           1           1           1           1           1           1
 AtmWgt=   1.0078250   1.0078250   1.0078250   1.0078250   1.0078250   1.0078250   1.0078250   1.0078250   1.0078250   1.0078250
 NucSpn=           1           1           1           1           1           1           1           1           1           1
 AtZEff=   0.0000000   0.0000000   0.0000000   0.0000000   0.0000000   0.0000000   0.0000000   0.0000000   0.0000000   0.0000000
 NQMom=    0.0000000   0.0000000   0.0000000   0.0000000   0.0000000   0.0000000   0.0000000   0.0000000   0.0000000   0.0000000
 NMagM=    2.7928460   2.7928460   2.7928460   2.7928460   2.7928460   2.7928460   2.7928460   2.7928460   2.7928460   2.7928460

  Atom        51          52          53
 IAtWgt=           1           1           1
 AtmWgt=   1.0078250   1.0078250   1.0078250
 NucSpn=           1           1           1
 AtZEff=   0.0000000   0.0000000   0.0000000
 NQMom=    0.0000000   0.0000000   0.0000000
 NMagM=    2.7928460   2.7928460   2.7928460
 Leave Link  101 at Thu Sep  1 09:12:09 2022, MaxMem=  209715200 cpu:       0.9
 (Enter /opt/gaussian/l103.exe)

 GradGradGradGradGradGradGradGradGradGradGradGradGradGradGradGradGradGrad
 Berny optimization.
 Initialization pass.
                           ----------------------------
                           !    Initial Parameters    !
                           ! (Angstroms and Degrees)  !
 --------------------------                            --------------------------
 ! Name  Definition              Value          Derivative Info.                !
 --------------------------------------------------------------------------------
 ! R1    R(1,2)                  1.2208         estimate D2E/DX2                !
 ! R2    R(2,3)                  1.5241         estimate D2E/DX2                !
 ! R3    R(2,13)                 1.3741         estimate D2E/DX2                !
 ! R4    R(3,4)                  1.4293         estimate D2E/DX2                !
 ! R5    R(3,33)                 1.0801         estimate D2E/DX2                !
 ! R6    R(3,34)                 1.0809         estimate D2E/DX2                !
 ! R7    R(4,5)                  1.3639         estimate D2E/DX2                !
 ! R8    R(4,12)                 1.363          estimate D2E/DX2                !
 ! R9    R(5,6)                  1.2673         estimate D2E/DX2                !
 ! R10   R(6,7)                  1.3861         estimate D2E/DX2                !
 ! R11   R(7,8)                  1.3942         estimate D2E/DX2                !
 ! R12   R(7,12)                 1.3891         estimate D2E/DX2                !
 ! R13   R(8,9)                  1.3734         estimate D2E/DX2                !
 ! R14   R(8,35)                 1.0713         estimate D2E/DX2                !
 ! R15   R(9,10)                 1.4128         estimate D2E/DX2                !
 ! R16   R(9,36)                 1.072          estimate D2E/DX2                !
 ! R17   R(10,11)                1.3746         estimate D2E/DX2                !
 ! R18   R(10,37)                1.0728         estimate D2E/DX2                !
 ! R19   R(11,12)                1.3972         estimate D2E/DX2                !
 ! R20   R(11,38)                1.0715         estimate D2E/DX2                !
 ! R21   R(13,14)                1.4659         estimate D2E/DX2                !
 ! R22   R(13,20)                1.4345         estimate D2E/DX2                !
 ! R23   R(14,15)                1.511          estimate D2E/DX2                !
 ! R24   R(14,39)                1.0833         estimate D2E/DX2                !
 ! R25   R(14,40)                1.081          estimate D2E/DX2                !
 ! R26   R(15,16)                1.4497         estimate D2E/DX2                !
 ! R27   R(15,19)                1.3449         estimate D2E/DX2                !
 ! R28   R(16,17)                1.3413         estimate D2E/DX2                !
 ! R29   R(16,41)                1.0718         estimate D2E/DX2                !
 ! R30   R(17,18)                1.7865         estimate D2E/DX2                !
 ! R31   R(17,42)                1.0665         estimate D2E/DX2                !
 ! R32   R(18,19)                1.7888         estimate D2E/DX2                !
 ! R33   R(19,43)                1.067          estimate D2E/DX2                !
 ! R34   R(20,21)                1.3916         estimate D2E/DX2                !
 ! R35   R(20,25)                1.3889         estimate D2E/DX2                !
 ! R36   R(21,22)                1.3824         estimate D2E/DX2                !
 ! R37   R(21,44)                1.069          estimate D2E/DX2                !
 ! R38   R(22,23)                1.3895         estimate D2E/DX2                !
 ! R39   R(22,45)                1.0716         estimate D2E/DX2                !
 ! R40   R(23,24)                1.387          estimate D2E/DX2                !
 ! R41   R(23,26)                1.4259         estimate D2E/DX2                !
 ! R42   R(24,25)                1.3871         estimate D2E/DX2                !
 ! R43   R(24,46)                1.0706         estimate D2E/DX2                !
 ! R44   R(25,47)                1.071          estimate D2E/DX2                !
 ! R45   R(26,27)                1.7283         estimate D2E/DX2                !
 ! R46   R(26,48)                0.9986         estimate D2E/DX2                !
 ! R47   R(27,28)                1.6432         estimate D2E/DX2                !
 ! R48   R(27,29)                1.6502         estimate D2E/DX2                !
 ! R49   R(27,30)                1.812          estimate D2E/DX2                !
 ! R50   R(30,31)                1.5012         estimate D2E/DX2                !
 ! R51   R(30,32)                1.5022         estimate D2E/DX2                !
 ! R52   R(30,49)                1.0688         estimate D2E/DX2                !
 ! R53   R(31,32)                1.4974         estimate D2E/DX2                !
 ! R54   R(31,50)                1.0716         estimate D2E/DX2                !
 ! R55   R(31,51)                1.0716         estimate D2E/DX2                !
 ! R56   R(32,52)                1.0717         estimate D2E/DX2                !
 ! R57   R(32,53)                1.0711         estimate D2E/DX2                !
 ! A1    A(1,2,3)              120.4209         estimate D2E/DX2                !
 ! A2    A(1,2,13)             122.5757         estimate D2E/DX2                !
 ! A3    A(3,2,13)             117.0027         estimate D2E/DX2                !
 ! A4    A(2,3,4)              112.0089         estimate D2E/DX2                !
 ! A5    A(2,3,33)             109.7837         estimate D2E/DX2                !
 ! A6    A(2,3,34)             110.406          estimate D2E/DX2                !
 ! A7    A(4,3,33)             106.6042         estimate D2E/DX2                !
 ! A8    A(4,3,34)             109.7531         estimate D2E/DX2                !
 ! A9    A(33,3,34)            108.1437         estimate D2E/DX2                !
 ! A10   A(3,4,5)              119.4981         estimate D2E/DX2                !
 ! A11   A(3,4,12)             130.8867         estimate D2E/DX2                !
 ! A12   A(5,4,12)             109.4933         estimate D2E/DX2                !
 ! A13   A(4,5,6)              109.4946         estimate D2E/DX2                !
 ! A14   A(5,6,7)              108.9084         estimate D2E/DX2                !
 ! A15   A(6,7,8)              130.6272         estimate D2E/DX2                !
 ! A16   A(6,7,12)             107.8873         estimate D2E/DX2                !
 ! A17   A(8,7,12)             121.4854         estimate D2E/DX2                !
 ! A18   A(7,8,9)              117.254          estimate D2E/DX2                !
 ! A19   A(7,8,35)             120.528          estimate D2E/DX2                !
 ! A20   A(9,8,35)             122.218          estimate D2E/DX2                !
 ! A21   A(8,9,10)             121.0168         estimate D2E/DX2                !
 ! A22   A(8,9,36)             120.0247         estimate D2E/DX2                !
 ! A23   A(10,9,36)            118.9582         estimate D2E/DX2                !
 ! A24   A(9,10,11)            122.0878         estimate D2E/DX2                !
 ! A25   A(9,10,37)            118.7168         estimate D2E/DX2                !
 ! A26   A(11,10,37)           119.195          estimate D2E/DX2                !
 ! A27   A(10,11,12)           116.4912         estimate D2E/DX2                !
 ! A28   A(10,11,38)           121.394          estimate D2E/DX2                !
 ! A29   A(12,11,38)           122.112          estimate D2E/DX2                !
 ! A30   A(4,12,7)             104.2072         estimate D2E/DX2                !
 ! A31   A(4,12,11)            134.1234         estimate D2E/DX2                !
 ! A32   A(7,12,11)            121.6646         estimate D2E/DX2                !
 ! A33   A(2,13,14)            122.1564         estimate D2E/DX2                !
 ! A34   A(2,13,20)            119.9272         estimate D2E/DX2                !
 ! A35   A(14,13,20)           117.9162         estimate D2E/DX2                !
 ! A36   A(13,14,15)           115.1108         estimate D2E/DX2                !
 ! A37   A(13,14,39)           109.8701         estimate D2E/DX2                !
 ! A38   A(13,14,40)           107.0398         estimate D2E/DX2                !
 ! A39   A(15,14,39)           109.1546         estimate D2E/DX2                !
 ! A40   A(15,14,40)           109.4323         estimate D2E/DX2                !
 ! A41   A(39,14,40)           105.8135         estimate D2E/DX2                !
 ! A42   A(14,15,16)           121.1456         estimate D2E/DX2                !
 ! A43   A(14,15,19)           126.0916         estimate D2E/DX2                !
 ! A44   A(16,15,19)           112.7616         estimate D2E/DX2                !
 ! A45   A(15,16,17)           113.9074         estimate D2E/DX2                !
 ! A46   A(15,16,41)           123.066          estimate D2E/DX2                !
 ! A47   A(17,16,41)           123.0266         estimate D2E/DX2                !
 ! A48   A(16,17,18)           111.7738         estimate D2E/DX2                !
 ! A49   A(16,17,42)           128.2798         estimate D2E/DX2                !
 ! A50   A(18,17,42)           119.9464         estimate D2E/DX2                !
 ! A51   A(17,18,19)            89.349          estimate D2E/DX2                !
 ! A52   A(15,19,18)           112.2082         estimate D2E/DX2                !
 ! A53   A(15,19,43)           128.1335         estimate D2E/DX2                !
 ! A54   A(18,19,43)           119.6522         estimate D2E/DX2                !
 ! A55   A(13,20,21)           120.3842         estimate D2E/DX2                !
 ! A56   A(13,20,25)           120.0812         estimate D2E/DX2                !
 ! A57   A(21,20,25)           119.4937         estimate D2E/DX2                !
 ! A58   A(20,21,22)           119.9433         estimate D2E/DX2                !
 ! A59   A(20,21,44)           120.0911         estimate D2E/DX2                !
 ! A60   A(22,21,44)           119.9393         estimate D2E/DX2                !
 ! A61   A(21,22,23)           120.5128         estimate D2E/DX2                !
 ! A62   A(21,22,45)           120.3255         estimate D2E/DX2                !
 ! A63   A(23,22,45)           119.1594         estimate D2E/DX2                !
 ! A64   A(22,23,24)           119.6704         estimate D2E/DX2                !
 ! A65   A(22,23,26)           118.4908         estimate D2E/DX2                !
 ! A66   A(24,23,26)           121.8365         estimate D2E/DX2                !
 ! A67   A(23,24,25)           119.8583         estimate D2E/DX2                !
 ! A68   A(23,24,46)           119.7843         estimate D2E/DX2                !
 ! A69   A(25,24,46)           120.3278         estimate D2E/DX2                !
 ! A70   A(20,25,24)           120.5021         estimate D2E/DX2                !
 ! A71   A(20,25,47)           120.2739         estimate D2E/DX2                !
 ! A72   A(24,25,47)           119.2232         estimate D2E/DX2                !
 ! A73   A(23,26,27)           123.1957         estimate D2E/DX2                !
 ! A74   A(23,26,48)           121.1424         estimate D2E/DX2                !
 ! A75   A(27,26,48)           109.9947         estimate D2E/DX2                !
 ! A76   A(26,27,28)           111.2483         estimate D2E/DX2                !
 ! A77   A(26,27,29)           103.0586         estimate D2E/DX2                !
 ! A78   A(26,27,30)           104.3034         estimate D2E/DX2                !
 ! A79   A(28,27,29)           119.0296         estimate D2E/DX2                !
 ! A80   A(28,27,30)           107.133          estimate D2E/DX2                !
 ! A81   A(29,27,30)           111.1308         estimate D2E/DX2                !
 ! A82   A(27,30,31)           117.7231         estimate D2E/DX2                !
 ! A83   A(27,30,32)           118.8584         estimate D2E/DX2                !
 ! A84   A(27,30,49)           109.3247         estimate D2E/DX2                !
 ! A85   A(31,30,49)           121.5973         estimate D2E/DX2                !
 ! A86   A(32,30,49)           122.129          estimate D2E/DX2                !
 ! A87   A(30,31,50)           117.6216         estimate D2E/DX2                !
 ! A88   A(30,31,51)           116.3613         estimate D2E/DX2                !
 ! A89   A(32,31,50)           116.989          estimate D2E/DX2                !
 ! A90   A(32,31,51)           119.861          estimate D2E/DX2                !
 ! A91   A(50,31,51)           114.9617         estimate D2E/DX2                !
 ! A92   A(30,32,52)           116.4371         estimate D2E/DX2                !
 ! A93   A(30,32,53)           117.8015         estimate D2E/DX2                !
 ! A94   A(31,32,52)           119.9147         estimate D2E/DX2                !
 ! A95   A(31,32,53)           116.9316         estimate D2E/DX2                !
 ! A96   A(52,32,53)           114.8442         estimate D2E/DX2                !
 ! D1    D(1,2,3,4)              3.5253         estimate D2E/DX2                !
 ! D2    D(1,2,3,33)           121.751          estimate D2E/DX2                !
 ! D3    D(1,2,3,34)          -119.1115         estimate D2E/DX2                !
 ! D4    D(13,2,3,4)          -176.1587         estimate D2E/DX2                !
 ! D5    D(13,2,3,33)          -57.933          estimate D2E/DX2                !
 ! D6    D(13,2,3,34)           61.2045         estimate D2E/DX2                !
 ! D7    D(1,2,13,14)          172.808          estimate D2E/DX2                !
 ! D8    D(1,2,13,20)           -7.0066         estimate D2E/DX2                !
 ! D9    D(3,2,13,14)           -7.5153         estimate D2E/DX2                !
 ! D10   D(3,2,13,20)          172.6701         estimate D2E/DX2                !
 ! D11   D(2,3,4,5)             97.4103         estimate D2E/DX2                !
 ! D12   D(2,3,4,12)           -78.1155         estimate D2E/DX2                !
 ! D13   D(33,3,4,5)           -22.6885         estimate D2E/DX2                !
 ! D14   D(33,3,4,12)          161.7858         estimate D2E/DX2                !
 ! D15   D(34,3,4,5)          -139.5829         estimate D2E/DX2                !
 ! D16   D(34,3,4,12)           44.8914         estimate D2E/DX2                !
 ! D17   D(3,4,5,6)           -177.3543         estimate D2E/DX2                !
 ! D18   D(12,4,5,6)            -0.9413         estimate D2E/DX2                !
 ! D19   D(3,4,12,7)           176.8194         estimate D2E/DX2                !
 ! D20   D(3,4,12,11)           -4.0003         estimate D2E/DX2                !
 ! D21   D(5,4,12,7)             0.9499         estimate D2E/DX2                !
 ! D22   D(5,4,12,11)         -179.8698         estimate D2E/DX2                !
 ! D23   D(4,5,6,7)              0.5002         estimate D2E/DX2                !
 ! D24   D(5,6,7,8)           -179.7547         estimate D2E/DX2                !
 ! D25   D(5,6,7,12)             0.1039         estimate D2E/DX2                !
 ! D26   D(6,7,8,9)            179.7695         estimate D2E/DX2                !
 ! D27   D(6,7,8,35)            -0.2555         estimate D2E/DX2                !
 ! D28   D(12,7,8,9)            -0.0728         estimate D2E/DX2                !
 ! D29   D(12,7,8,35)          179.9023         estimate D2E/DX2                !
 ! D30   D(6,7,12,4)            -0.6476         estimate D2E/DX2                !
 ! D31   D(6,7,12,11)         -179.9562         estimate D2E/DX2                !
 ! D32   D(8,7,12,4)           179.2266         estimate D2E/DX2                !
 ! D33   D(8,7,12,11)           -0.0821         estimate D2E/DX2                !
 ! D34   D(7,8,9,10)             0.1244         estimate D2E/DX2                !
 ! D35   D(7,8,9,36)           179.945          estimate D2E/DX2                !
 ! D36   D(35,8,9,10)         -179.8502         estimate D2E/DX2                !
 ! D37   D(35,8,9,36)           -0.0296         estimate D2E/DX2                !
 ! D38   D(8,9,10,11)           -0.0245         estimate D2E/DX2                !
 ! D39   D(8,9,10,37)          179.7177         estimate D2E/DX2                !
 ! D40   D(36,9,10,11)        -179.847          estimate D2E/DX2                !
 ! D41   D(36,9,10,37)          -0.1047         estimate D2E/DX2                !
 ! D42   D(9,10,11,12)          -0.1262         estimate D2E/DX2                !
 ! D43   D(9,10,11,38)         179.2817         estimate D2E/DX2                !
 ! D44   D(37,10,11,12)       -179.8673         estimate D2E/DX2                !
 ! D45   D(37,10,11,38)         -0.4594         estimate D2E/DX2                !
 ! D46   D(10,11,12,4)        -178.8882         estimate D2E/DX2                !
 ! D47   D(10,11,12,7)           0.1781         estimate D2E/DX2                !
 ! D48   D(38,11,12,4)           1.7085         estimate D2E/DX2                !
 ! D49   D(38,11,12,7)        -179.2252         estimate D2E/DX2                !
 ! D50   D(2,13,14,15)         -76.8109         estimate D2E/DX2                !
 ! D51   D(2,13,14,39)          46.8779         estimate D2E/DX2                !
 ! D52   D(2,13,14,40)         161.3235         estimate D2E/DX2                !
 ! D53   D(20,13,14,15)        103.0072         estimate D2E/DX2                !
 ! D54   D(20,13,14,39)       -133.3039         estimate D2E/DX2                !
 ! D55   D(20,13,14,40)        -18.8583         estimate D2E/DX2                !
 ! D56   D(2,13,20,21)         -48.7833         estimate D2E/DX2                !
 ! D57   D(2,13,20,25)         133.5542         estimate D2E/DX2                !
 ! D58   D(14,13,20,21)        131.3944         estimate D2E/DX2                !
 ! D59   D(14,13,20,25)        -46.2682         estimate D2E/DX2                !
 ! D60   D(13,14,15,16)        171.9243         estimate D2E/DX2                !
 ! D61   D(13,14,15,19)         -8.4974         estimate D2E/DX2                !
 ! D62   D(39,14,15,16)         47.8579         estimate D2E/DX2                !
 ! D63   D(39,14,15,19)       -132.5638         estimate D2E/DX2                !
 ! D64   D(40,14,15,16)        -67.5111         estimate D2E/DX2                !
 ! D65   D(40,14,15,19)        112.0672         estimate D2E/DX2                !
 ! D66   D(14,15,16,17)        179.5423         estimate D2E/DX2                !
 ! D67   D(14,15,16,41)         -0.4276         estimate D2E/DX2                !
 ! D68   D(19,15,16,17)         -0.0881         estimate D2E/DX2                !
 ! D69   D(19,15,16,41)        179.9419         estimate D2E/DX2                !
 ! D70   D(14,15,19,18)       -179.5231         estimate D2E/DX2                !
 ! D71   D(14,15,19,43)         -0.4392         estimate D2E/DX2                !
 ! D72   D(16,15,19,18)          0.0855         estimate D2E/DX2                !
 ! D73   D(16,15,19,43)        179.1694         estimate D2E/DX2                !
 ! D74   D(15,16,17,18)          0.0477         estimate D2E/DX2                !
 ! D75   D(15,16,17,42)        179.967          estimate D2E/DX2                !
 ! D76   D(41,16,17,18)       -179.9824         estimate D2E/DX2                !
 ! D77   D(41,16,17,42)         -0.0631         estimate D2E/DX2                !
 ! D78   D(16,17,18,19)         -0.0003         estimate D2E/DX2                !
 ! D79   D(42,17,18,19)       -179.9272         estimate D2E/DX2                !
 ! D80   D(17,18,19,15)         -0.0502         estimate D2E/DX2                !
 ! D81   D(17,18,19,43)       -179.221          estimate D2E/DX2                !
 ! D82   D(13,20,21,22)       -178.5878         estimate D2E/DX2                !
 ! D83   D(13,20,21,44)          3.2762         estimate D2E/DX2                !
 ! D84   D(25,20,21,22)         -0.9116         estimate D2E/DX2                !
 ! D85   D(25,20,21,44)       -179.0476         estimate D2E/DX2                !
 ! D86   D(13,20,25,24)        177.3167         estimate D2E/DX2                !
 ! D87   D(13,20,25,47)         -3.0169         estimate D2E/DX2                !
 ! D88   D(21,20,25,24)         -0.3667         estimate D2E/DX2                !
 ! D89   D(21,20,25,47)        179.2998         estimate D2E/DX2                !
 ! D90   D(20,21,22,23)          1.5313         estimate D2E/DX2                !
 ! D91   D(20,21,22,45)       -179.0287         estimate D2E/DX2                !
 ! D92   D(44,21,22,23)        179.6702         estimate D2E/DX2                !
 ! D93   D(44,21,22,45)         -0.8898         estimate D2E/DX2                !
 ! D94   D(21,22,23,24)         -0.8634         estimate D2E/DX2                !
 ! D95   D(21,22,23,26)        178.5892         estimate D2E/DX2                !
 ! D96   D(45,22,23,24)        179.69           estimate D2E/DX2                !
 ! D97   D(45,22,23,26)         -0.8573         estimate D2E/DX2                !
 ! D98   D(22,23,24,25)         -0.4181         estimate D2E/DX2                !
 ! D99   D(22,23,24,46)       -178.4456         estimate D2E/DX2                !
 ! D100  D(26,23,24,25)       -179.8518         estimate D2E/DX2                !
 ! D101  D(26,23,24,46)          2.1206         estimate D2E/DX2                !
 ! D102  D(22,23,26,27)        118.4004         estimate D2E/DX2                !
 ! D103  D(22,23,26,48)        -90.8182         estimate D2E/DX2                !
 ! D104  D(24,23,26,27)        -62.1594         estimate D2E/DX2                !
 ! D105  D(24,23,26,48)         88.622          estimate D2E/DX2                !
 ! D106  D(23,24,25,20)          1.032          estimate D2E/DX2                !
 ! D107  D(23,24,25,47)       -178.6379         estimate D2E/DX2                !
 ! D108  D(46,24,25,20)        179.0488         estimate D2E/DX2                !
 ! D109  D(46,24,25,47)         -0.6212         estimate D2E/DX2                !
 ! D110  D(23,26,27,28)         41.4943         estimate D2E/DX2                !
 ! D111  D(23,26,27,29)        170.1522         estimate D2E/DX2                !
 ! D112  D(23,26,27,30)        -73.6773         estimate D2E/DX2                !
 ! D113  D(48,26,27,28)       -112.1085         estimate D2E/DX2                !
 ! D114  D(48,26,27,29)         16.5495         estimate D2E/DX2                !
 ! D115  D(48,26,27,30)        132.72           estimate D2E/DX2                !
 ! D116  D(26,27,30,31)        155.0033         estimate D2E/DX2                !
 ! D117  D(26,27,30,32)         86.0462         estimate D2E/DX2                !
 ! D118  D(26,27,30,49)        -60.7518         estimate D2E/DX2                !
 ! D119  D(28,27,30,31)         36.971          estimate D2E/DX2                !
 ! D120  D(28,27,30,32)        -31.9861         estimate D2E/DX2                !
 ! D121  D(28,27,30,49)       -178.7841         estimate D2E/DX2                !
 ! D122  D(29,27,30,31)        -94.5997         estimate D2E/DX2                !
 ! D123  D(29,27,30,32)       -163.5568         estimate D2E/DX2                !
 ! D124  D(29,27,30,49)         49.6452         estimate D2E/DX2                !
 ! D125  D(27,30,31,50)         -2.1027         estimate D2E/DX2                !
 ! D126  D(27,30,31,51)        140.1656         estimate D2E/DX2                !
 ! D127  D(49,30,31,50)       -141.7589         estimate D2E/DX2                !
 ! D128  D(49,30,31,51)          0.5094         estimate D2E/DX2                !
 ! D129  D(27,30,32,52)       -142.0316         estimate D2E/DX2                !
 ! D130  D(27,30,32,53)          0.3992         estimate D2E/DX2                !
 ! D131  D(49,30,32,52)          0.3653         estimate D2E/DX2                !
 ! D132  D(49,30,32,53)        142.7961         estimate D2E/DX2                !
 ! D133  D(50,31,32,52)        146.9389         estimate D2E/DX2                !
 ! D134  D(50,31,32,53)          0.2191         estimate D2E/DX2                !
 ! D135  D(51,31,32,52)         -0.041          estimate D2E/DX2                !
 ! D136  D(51,31,32,53)       -146.7608         estimate D2E/DX2                !
 --------------------------------------------------------------------------------
 Trust Radius=3.00D-01 FncErr=1.00D-07 GrdErr=1.00D-06
 Number of steps in this run=    299 maximum allowed number of steps=    318.
 GradGradGradGradGradGradGradGradGradGradGradGradGradGradGradGradGradGrad

 Leave Link  103 at Thu Sep  1 09:12:09 2022, MaxMem=  209715200 cpu:       0.1
 (Enter /opt/gaussian/l202.exe)
 Stoichiometry    C22H21N5O3S2
 Framework group  C1[X(C22H21N5O3S2)]
 Deg. of freedom   153
 Full point group                 C1      NOp   1
 Largest Abelian subgroup         C1      NOp   1
 Largest concise Abelian subgroup C1      NOp   1
                         Standard orientation:                         
 ---------------------------------------------------------------------
 Center     Atomic      Atomic             Coordinates (Angstroms)
 Number     Number       Type             X           Y           Z
 ---------------------------------------------------------------------
      1          8           0        1.231190   -1.237310   -0.593440
      2          6           0        1.566770   -0.125100   -0.968600
      3          6           0        3.037960    0.201010   -1.197150
      4          7           0        3.876350   -0.939730   -1.000120
      5          7           0        4.278870   -1.671620   -2.078350
      6          7           0        4.964030   -2.662530   -1.684940
      7          6           0        5.037790   -2.636570   -0.301050
      8          6           0        5.675250   -3.498360    0.590370
      9          6           0        5.573560   -3.206790    1.928570
     10          6           0        4.848540   -2.079370    2.374960
     11          6           0        4.215510   -1.226110    1.502800
     12          6           0        4.327130   -1.528830    0.143390
     13          7           0        0.660330    0.879070   -1.209970
     14          6           0        1.078150    2.251750   -1.510000
     15          6           0        1.536630    3.057740   -0.316950
     16          6           0        2.139490    4.365750   -0.482600
     17          6           0        2.483240    4.955960    0.671720
     18         16           0        2.088180    3.933300    2.082260
     19          6           0        1.441040    2.688400    0.972700
     20          6           0       -0.745930    0.598981   -1.168480
     21          6           0       -1.266550   -0.493599   -1.855260
     22          6           0       -2.626970   -0.738209   -1.832970
     23          6           0       -3.486620    0.117431   -1.154990
     24          6           0       -2.972250    1.215111   -0.480950
     25          6           0       -1.604570    1.446611   -0.480570
     26          7           0       -4.885170   -0.158869   -1.185550
     27         16           0       -5.813550   -0.499839    0.231830
     28          8           0       -5.389880    0.489501    1.473470
     29          8           0       -7.367180   -0.467659   -0.323400
     30          6           0       -5.320550   -2.180459    0.696320
     31          6           0       -5.470260   -2.579499    2.135800
     32          6           0       -4.104890   -2.367179    1.558890
     33          1           0        3.187170    0.521100   -2.217860
     34          1           0        3.352250    1.002620   -0.543640
     35          1           0        6.217920   -4.349140    0.230840
     36          1           0        6.045880   -3.840280    2.652980
     37          1           0        4.789190   -1.888970    3.429020
     38          1           0        3.659090   -0.380570    1.854210
     39          1           0        1.863620    2.242820   -2.256010
     40          1           0        0.235950    2.744760   -1.974890
     41          1           0        2.296010    4.820470   -1.440500
     42          1           0        2.938690    5.909390    0.816270
     43          1           0        1.029810    1.788250    1.371500
     44          1           0       -0.612960   -1.160809   -2.375260
     45          1           0       -3.032660   -1.586569   -2.346800
     46          1           0       -3.630100    1.861501    0.062750
     47          1           0       -1.216270    2.284781    0.061440
     48          1           0       -5.472900    0.229121   -1.893540
     49          1           0       -5.561810   -2.852399   -0.099070
     50          1           0       -5.828850   -1.838649    2.822030
     51          1           0       -5.823030   -3.574539    2.319510
     52          1           0       -3.483580   -3.210399    1.331730
     53          1           0       -3.576190   -1.490399    1.873640
 ---------------------------------------------------------------------
 Rotational constants (GHZ):      0.1580072      0.0607757      0.0514059
 Leave Link  202 at Thu Sep  1 09:12:09 2022, MaxMem=  209715200 cpu:       0.0
 (Enter /opt/gaussian/l301.exe)
 Standard basis: CC-pVDZ (5D, 7F)
 Ernie: Thresh=  0.10000D-02 Tol=  0.10000D-05 Strict=F.
 Ernie:  80 primitive shells out of 865 were deleted.
 There are   561 symmetry adapted basis functions of A   symmetry.
 Integral buffers will be    131072 words long.
 Raffenetti 2 integral format.
 Two-electron integral symmetry is turned on.
   561 basis functions,  1279 primitive gaussians,   593 cartesian basis functions
   122 alpha electrons      122 beta electrons
       nuclear repulsion energy      3397.6973257295 Hartrees.
 IExCor=  402 DFT=T Ex+Corr=B3LYP ExCW=0 ScaHFX=  0.200000
 ScaDFX=  0.800000  0.720000  1.000000  0.810000 ScalE2=  1.000000  1.000000
 IRadAn=      0 IRanWt=     -1 IRanGd=            0 ICorTp=0
 NAtoms=   53 NActive=   53 NUniq=   53 SFac= 1.00D+00 NAtFMM=   60 NAOKFM=F Big=F
 Leave Link  301 at Thu Sep  1 09:12:09 2022, MaxMem=  209715200 cpu:       0.3
 (Enter /opt/gaussian/l302.exe)
 NPDir=0 NMtPBC=     1 NCelOv=     1 NCel=       1 NClECP=     1 NCelD=      1
         NCelK=      1 NCelE2=     1 NClLst=     1 CellRange=     0.0.
 One-electron integrals computed using PRISM.
 NBasis=   561 RedAO= T  NBF=   561
 NBsUse=   561 1.00D-06 NBFU=   561
 Precomputing XC quadrature grid using
 IXCGrd= 2 IRadAn=           0 IRanWt=          -1 IRanGd=           0 AccXCQ= 0.00D+00.
 NRdTot=    3414 NPtTot=      436104 NUsed=      460704 NTot=      460736
 NSgBfM=   567   568   571   571   571 NAtAll=    53    53.
 Leave Link  302 at Thu Sep  1 09:12:10 2022, MaxMem=  209715200 cpu:       8.9
 (Enter /opt/gaussian/l303.exe)
 DipDrv:  MaxL=1.
 Leave Link  303 at Thu Sep  1 09:12:11 2022, MaxMem=  209715200 cpu:       1.2
 (Enter /opt/gaussian/l401.exe)
 Harris functional with IExCor=  402 diagonalized for initial guess.
 ExpMin= 1.22D-01 ExpMax= 1.11D+05 ExpMxC= 1.07D+03 IAcc=2 IRadAn=         4 AccDes= 0.00D+00
 HarFok:  IExCor=  402 AccDes= 0.00D+00 IRadAn=         4 IDoV= 1
 ScaDFX=  1.000000  1.000000  1.000000  1.000000
 FoFCou: FMM=F IPFlag=           0 FMFlag=      100000 FMFlg1=           0
         NFxFlg=           0 DoJE=T BraDBF=F KetDBF=T FulRan=T
         Omega=  0.000000  0.000000  1.000000  0.000000  0.000000 ICntrl=     500 IOpCl=  0
         NMat0=    1 NMatS0=    1 NMatT0=    0 NMatD0=    1 NMtDS0=    0 NMtDT0=    0
         I1Cent=           4 NGrid=           0.
 Petite list used in FoFCou.
 Harris En= -2146.59692037518    
 Initial guess orbital symmetries:
       Occupied  (A) (A) (A) (A) (A) (A) (A) (A) (A) (A) (A) (A)
                 (A) (A) (A) (A) (A) (A) (A) (A) (A) (A) (A) (A)
                 (A) (A) (A) (A) (A) (A) (A) (A) (A) (A) (A) (A)
                 (A) (A) (A) (A) (A) (A) (A) (A) (A) (A) (A) (A)
                 (A) (A) (A) (A) (A) (A) (A) (A) (A) (A) (A) (A)
                 (A) (A) (A) (A) (A) (A) (A) (A) (A) (A) (A) (A)
                 (A) (A) (A) (A) (A) (A) (A) (A) (A) (A) (A) (A)
                 (A) (A) (A) (A) (A) (A) (A) (A) (A) (A) (A) (A)
                 (A) (A) (A) (A) (A) (A) (A) (A) (A) (A) (A) (A)
                 (A) (A) (A) (A) (A) (A) (A) (A) (A) (A) (A) (A)
                 (A) (A)
       Virtual   (A) (A) (A) (A) (A) (A) (A) (A) (A) (A) (A) (A)
                 (A) (A) (A) (A) (A) (A) (A) (A) (A) (A) (A) (A)
                 (A) (A) (A) (A) (A) (A) (A) (A) (A) (A) (A) (A)
                 (A) (A) (A) (A) (A) (A) (A) (A) (A) (A) (A) (A)
                 (A) (A) (A) (A) (A) (A) (A) (A) (A) (A) (A) (A)
                 (A) (A) (A) (A) (A) (A) (A) (A) (A) (A) (A) (A)
                 (A) (A) (A) (A) (A) (A) (A) (A) (A) (A) (A) (A)
                 (A) (A) (A) (A) (A) (A) (A) (A) (A) (A) (A) (A)
                 (A) (A) (A) (A) (A) (A) (A) (A) (A) (A) (A) (A)
                 (A) (A) (A) (A) (A) (A) (A) (A) (A) (A) (A) (A)
                 (A) (A) (A) (A) (A) (A) (A) (A) (A) (A) (A) (A)
                 (A) (A) (A) (A) (A) (A) (A) (A) (A) (A) (A) (A)
                 (A) (A) (A) (A) (A) (A) (A) (A) (A) (A) (A) (A)
                 (A) (A) (A) (A) (A) (A) (A) (A) (A) (A) (A) (A)
                 (A) (A) (A) (A) (A) (A) (A) (A) (A) (A) (A) (A)
                 (A) (A) (A) (A) (A) (A) (A) (A) (A) (A) (A) (A)
                 (A) (A) (A) (A) (A) (A) (A) (A) (A) (A) (A) (A)
                 (A) (A) (A) (A) (A) (A) (A) (A) (A) (A) (A) (A)
                 (A) (A) (A) (A) (A) (A) (A) (A) (A) (A) (A) (A)
                 (A) (A) (A) (A) (A) (A) (A) (A) (A) (A) (A) (A)
                 (A) (A) (A) (A) (A) (A) (A) (A) (A) (A) (A) (A)
                 (A) (A) (A) (A) (A) (A) (A) (A) (A) (A) (A) (A)
                 (A) (A) (A) (A) (A) (A) (A) (A) (A) (A) (A) (A)
                 (A) (A) (A) (A) (A) (A) (A) (A) (A) (A) (A) (A)
                 (A) (A) (A) (A) (A) (A) (A) (A) (A) (A) (A) (A)
                 (A) (A) (A) (A) (A) (A) (A) (A) (A) (A) (A) (A)
                 (A) (A) (A) (A) (A) (A) (A) (A) (A) (A) (A) (A)
                 (A) (A) (A) (A) (A) (A) (A) (A) (A) (A) (A) (A)
                 (A) (A) (A) (A) (A) (A) (A) (A) (A) (A) (A) (A)
                 (A) (A) (A) (A) (A) (A) (A) (A) (A) (A) (A) (A)
                 (A) (A) (A) (A) (A) (A) (A) (A) (A) (A) (A) (A)
                 (A) (A) (A) (A) (A) (A) (A) (A) (A) (A) (A) (A)
                 (A) (A) (A) (A) (A) (A) (A) (A) (A) (A) (A) (A)
                 (A) (A) (A) (A) (A) (A) (A) (A) (A) (A) (A) (A)
                 (A) (A) (A) (A) (A) (A) (A) (A) (A) (A) (A) (A)
                 (A) (A) (A) (A) (A) (A) (A) (A) (A) (A) (A) (A)
                 (A) (A) (A) (A) (A) (A) (A)
 The electronic state of the initial guess is 1-A.
 Leave Link  401 at Thu Sep  1 09:12:14 2022, MaxMem=  209715200 cpu:      25.8
 (Enter /opt/gaussian/l502.exe)
 Closed shell SCF:
 Requested convergence on RMS density matrix=1.00D-08 within 128 cycles.
 Requested convergence on MAX density matrix=1.00D-06.
 Requested convergence on             energy=1.00D-06.
 No special actions if energy rises.
 Using DIIS extrapolation, IDIIS=  1040.
 Integral symmetry usage will be decided dynamically.
       460214 words used for storage of precomputed grid.
 IEnd=     1542535 IEndB=     1542535 NGot=   209715200 MDV=   208541548
 LenX=   208541548 LenY=   208189306
 Fock matrices will be formed incrementally for  20 cycles.
 Integral accuracy reduced to 1.0D-05 until final iterations.

 Cycle   1  Pass 0  IDiag  1:
 FoFCou: FMM=F IPFlag=           0 FMFlag=      100000 FMFlg1=           0
         NFxFlg=           0 DoJE=F BraDBF=F KetDBF=F FulRan=T
         Omega=  0.000000  0.000000  1.000000  0.000000  0.000000 ICntrl=       0 IOpCl=  0
         NMat0=    1 NMatS0=    1 NMatT0=    0 NMatD0=    1 NMtDS0=    0 NMtDT0=    0
         I1Cent=           0 NGrid=           0.
 Symmetry not used in FoFCou.
 E= -2145.67887943884    
 DIIS: error= 2.47D-02 at cycle   1 NSaved=   1.
 NSaved= 1 IEnMin= 1 EnMin= -2145.67887943884     IErMin= 1 ErrMin= 2.47D-02
 ErrMax= 2.47D-02 EMaxC= 1.00D-01 BMatC= 1.02D+00 BMatP= 1.02D+00
 IDIUse=3 WtCom= 7.53D-01 WtEn= 2.47D-01
 Coeff-Com:  0.100D+01
 Coeff-En:   0.100D+01
 Coeff:      0.100D+01
 Gap=     0.333 Goal=   None    Shift=    0.000
 GapD=    0.333 DampG=1.000 DampE=0.500 DampFc=0.5000 IDamp=-1.
 Damping current iteration by 5.00D-01
 RMSDP=5.21D-03 MaxDP=4.00D-01              OVMax= 3.42D-01

 Cycle   2  Pass 0  IDiag  1:
 RMSU=  1.84D-03    CP:  9.86D-01
 E= -2145.68064609433     Delta-E=       -0.001766655495 Rises=F Damp=T
 DIIS: error= 1.88D-02 at cycle   2 NSaved=   2.
 NSaved= 2 IEnMin= 2 EnMin= -2145.68064609433     IErMin= 2 ErrMin= 1.88D-02
 ErrMax= 1.88D-02 EMaxC= 1.00D-01 BMatC= 3.43D-01 BMatP= 1.02D+00
 IDIUse=3 WtCom= 8.12D-01 WtEn= 1.88D-01
 Coeff-Com:  0.337D+00 0.663D+00
 Coeff-En:   0.499D+00 0.501D+00
 Coeff:      0.368D+00 0.632D+00
 Gap=     0.248 Goal=   None    Shift=    0.000
 RMSDP=1.86D-03 MaxDP=1.21D-01 DE=-1.77D-03 OVMax= 3.33D-01

 Cycle   3  Pass 0  IDiag  1:
 RMSU=  1.10D-03    CP:  9.74D-01  6.12D-01
 E= -2146.52360894499     Delta-E=       -0.842962850662 Rises=F Damp=F
 DIIS: error= 1.31D-02 at cycle   3 NSaved=   3.
 NSaved= 3 IEnMin= 3 EnMin= -2146.52360894499     IErMin= 3 ErrMin= 1.31D-02
 ErrMax= 1.31D-02 EMaxC= 1.00D-01 BMatC= 1.85D-01 BMatP= 3.43D-01
 IDIUse=3 WtCom= 8.69D-01 WtEn= 1.31D-01
 Coeff-Com:  0.163D+00 0.412D+00 0.425D+00
 Coeff-En:   0.000D+00 0.000D+00 0.100D+01
 Coeff:      0.142D+00 0.358D+00 0.500D+00
 Gap=     0.225 Goal=   None    Shift=    0.000
 RMSDP=1.13D-03 MaxDP=6.86D-02 DE=-8.43D-01 OVMax= 1.14D-01

 Cycle   4  Pass 0  IDiag  1:
 RMSU=  5.67D-04    CP:  9.79D-01  6.78D-01  5.06D-01
 E= -2146.66441861107     Delta-E=       -0.140809666080 Rises=F Damp=F
 DIIS: error= 7.10D-03 at cycle   4 NSaved=   4.
 NSaved= 4 IEnMin= 4 EnMin= -2146.66441861107     IErMin= 4 ErrMin= 7.10D-03
 ErrMax= 7.10D-03 EMaxC= 1.00D-01 BMatC= 4.15D-02 BMatP= 1.85D-01
 IDIUse=3 WtCom= 9.29D-01 WtEn= 7.10D-02
 Coeff-Com:  0.426D-01 0.112D+00 0.320D+00 0.526D+00
 Coeff-En:   0.000D+00 0.000D+00 0.209D+00 0.791D+00
 Coeff:      0.396D-01 0.104D+00 0.312D+00 0.545D+00
 Gap=     0.196 Goal=   None    Shift=    0.000
 RMSDP=4.74D-04 MaxDP=3.15D-02 DE=-1.41D-01 OVMax= 5.25D-02

 Cycle   5  Pass 0  IDiag  1:
 RMSU=  1.72D-04    CP:  9.78D-01  6.54D-01  6.39D-01  5.72D-01
 E= -2146.69809765662     Delta-E=       -0.033679045549 Rises=F Damp=F
 DIIS: error= 2.08D-03 at cycle   5 NSaved=   5.
 NSaved= 5 IEnMin= 5 EnMin= -2146.69809765662     IErMin= 5 ErrMin= 2.08D-03
 ErrMax= 2.08D-03 EMaxC= 1.00D-01 BMatC= 5.27D-03 BMatP= 4.15D-02
 IDIUse=3 WtCom= 9.79D-01 WtEn= 2.08D-02
 Coeff-Com:  0.606D-02 0.165D-01 0.141D+00 0.358D+00 0.479D+00
 Coeff-En:   0.000D+00 0.000D+00 0.000D+00 0.102D+00 0.898D+00
 Coeff:      0.593D-02 0.162D-01 0.138D+00 0.352D+00 0.487D+00
 Gap=     0.195 Goal=   None    Shift=    0.000
 RMSDP=1.64D-04 MaxDP=1.16D-02 DE=-3.37D-02 OVMax= 1.69D-02

 Cycle   6  Pass 0  IDiag  1:
 RMSU=  6.71D-05    CP:  9.78D-01  6.52D-01  6.35D-01  6.60D-01  5.36D-01
 E= -2146.70244625857     Delta-E=       -0.004348601942 Rises=F Damp=F
 DIIS: error= 1.03D-03 at cycle   6 NSaved=   6.
 NSaved= 6 IEnMin= 6 EnMin= -2146.70244625857     IErMin= 6 ErrMin= 1.03D-03
 ErrMax= 1.03D-03 EMaxC= 1.00D-01 BMatC= 8.79D-04 BMatP= 5.27D-03
 IDIUse=3 WtCom= 9.90D-01 WtEn= 1.03D-02
 Coeff-Com: -0.917D-03-0.341D-02 0.487D-01 0.159D+00 0.334D+00 0.463D+00
 Coeff-En:   0.000D+00 0.000D+00 0.000D+00 0.000D+00 0.130D+00 0.870D+00
 Coeff:     -0.908D-03-0.338D-02 0.482D-01 0.157D+00 0.332D+00 0.467D+00
 Gap=     0.194 Goal=   None    Shift=    0.000
 RMSDP=6.49D-05 MaxDP=4.56D-03 DE=-4.35D-03 OVMax= 7.21D-03

 Cycle   7  Pass 0  IDiag  1:
 RMSU=  2.52D-05    CP:  9.78D-01  6.53D-01  6.38D-01  6.67D-01  5.89D-01
                    CP:  4.51D-01
 E= -2146.70311462694     Delta-E=       -0.000668368376 Rises=F Damp=F
 DIIS: error= 4.48D-04 at cycle   7 NSaved=   7.
 NSaved= 7 IEnMin= 7 EnMin= -2146.70311462694     IErMin= 7 ErrMin= 4.48D-04
 ErrMax= 4.48D-04 EMaxC= 1.00D-01 BMatC= 1.35D-04 BMatP= 8.79D-04
 IDIUse=3 WtCom= 9.96D-01 WtEn= 4.48D-03
 Coeff-Com: -0.110D-02-0.462D-02 0.143D-01 0.576D-01 0.162D+00 0.323D+00
 Coeff-Com:  0.449D+00
 Coeff-En:   0.000D+00 0.000D+00 0.000D+00 0.000D+00 0.000D+00 0.123D+00
 Coeff-En:   0.877D+00
 Coeff:     -0.109D-02-0.460D-02 0.142D-01 0.574D-01 0.161D+00 0.322D+00
 Coeff:      0.451D+00
 Gap=     0.195 Goal=   None    Shift=    0.000
 RMSDP=2.47D-05 MaxDP=1.81D-03 DE=-6.68D-04 OVMax= 2.58D-03

 Cycle   8  Pass 0  IDiag  1:
 RMSU=  1.02D-05    CP:  9.78D-01  6.53D-01  6.38D-01  6.63D-01  6.01D-01
                    CP:  5.57D-01  5.28D-01
 E= -2146.70322637487     Delta-E=       -0.000111747931 Rises=F Damp=F
 DIIS: error= 1.29D-04 at cycle   8 NSaved=   8.
 NSaved= 8 IEnMin= 8 EnMin= -2146.70322637487     IErMin= 8 ErrMin= 1.29D-04
 ErrMax= 1.29D-04 EMaxC= 1.00D-01 BMatC= 1.54D-05 BMatP= 1.35D-04
 IDIUse=3 WtCom= 9.99D-01 WtEn= 1.29D-03
 Coeff-Com: -0.450D-03-0.266D-02 0.259D-02 0.146D-01 0.583D-01 0.144D+00
 Coeff-Com:  0.298D+00 0.486D+00
 Coeff-En:   0.000D+00 0.000D+00 0.000D+00 0.000D+00 0.000D+00 0.000D+00
 Coeff-En:   0.797D-01 0.920D+00
 Coeff:     -0.449D-03-0.265D-02 0.258D-02 0.146D-01 0.582D-01 0.144D+00
 Coeff:      0.298D+00 0.486D+00
 Gap=     0.195 Goal=   None    Shift=    0.000
 RMSDP=7.97D-06 MaxDP=5.07D-04 DE=-1.12D-04 OVMax= 7.00D-04

 Initial convergence to 1.0D-05 achieved.  Increase integral accuracy.
 Cycle   9  Pass 1  IDiag  1:
 E= -2146.70332152020     Delta-E=       -0.000095145327 Rises=F Damp=F
 DIIS: error= 1.80D-04 at cycle   1 NSaved=   1.
 NSaved= 1 IEnMin= 1 EnMin= -2146.70332152020     IErMin= 1 ErrMin= 1.80D-04
 ErrMax= 1.80D-04 EMaxC= 1.00D-01 BMatC= 1.11D-05 BMatP= 1.11D-05
 IDIUse=3 WtCom= 9.98D-01 WtEn= 1.80D-03
 Coeff-Com:  0.100D+01
 Coeff-En:   0.100D+01
 Coeff:      0.100D+01
 Gap=     0.195 Goal=   None    Shift=    0.000
 RMSDP=7.97D-06 MaxDP=5.07D-04 DE=-9.51D-05 OVMax= 7.59D-04

 Cycle  10  Pass 1  IDiag  1:
 RMSU=  8.02D-05    CP:  1.00D+00
 E= -2146.70332459071     Delta-E=       -0.000003070515 Rises=F Damp=F
 DIIS: error= 8.46D-05 at cycle   2 NSaved=   2.
 NSaved= 2 IEnMin= 2 EnMin= -2146.70332459071     IErMin= 2 ErrMin= 8.46D-05
 ErrMax= 8.46D-05 EMaxC= 1.00D-01 BMatC= 8.94D-06 BMatP= 1.11D-05
 IDIUse=1 WtCom= 1.00D+00 WtEn= 0.00D+00
 Coeff-Com:  0.460D+00 0.540D+00
 Coeff:      0.460D+00 0.540D+00
 Gap=     0.195 Goal=   None    Shift=    0.000
 RMSDP=9.93D-06 MaxDP=7.10D-04 DE=-3.07D-06 OVMax= 1.05D-03

 Cycle  11  Pass 1  IDiag  1:
 RMSU=  7.02D-06    CP:  1.00D+00  1.00D+00
 E= -2146.70332596310     Delta-E=       -0.000001372382 Rises=F Damp=F
 DIIS: error= 8.59D-05 at cycle   3 NSaved=   3.
 NSaved= 3 IEnMin= 3 EnMin= -2146.70332596310     IErMin= 2 ErrMin= 8.46D-05
 ErrMax= 8.59D-05 EMaxC= 1.00D-01 BMatC= 7.58D-06 BMatP= 8.94D-06
 IDIUse=1 WtCom= 1.00D+00 WtEn= 0.00D+00
 Coeff-Com:  0.123D-01 0.476D+00 0.512D+00
 Coeff:      0.123D-01 0.476D+00 0.512D+00
 Gap=     0.195 Goal=   None    Shift=    0.000
 RMSDP=4.97D-06 MaxDP=4.04D-04 DE=-1.37D-06 OVMax= 5.85D-04

 Cycle  12  Pass 1  IDiag  1:
 RMSU=  1.01D-06    CP:  1.00D+00  1.01D+00  5.26D-01
 E= -2146.70333240064     Delta-E=       -0.000006437548 Rises=F Damp=F
 DIIS: error= 1.71D-05 at cycle   4 NSaved=   4.
 NSaved= 4 IEnMin= 4 EnMin= -2146.70333240064     IErMin= 4 ErrMin= 1.71D-05
 ErrMax= 1.71D-05 EMaxC= 1.00D-01 BMatC= 2.75D-07 BMatP= 7.58D-06
 IDIUse=1 WtCom= 1.00D+00 WtEn= 0.00D+00
 Coeff-Com: -0.334D-02 0.305D+00 0.343D+00 0.355D+00
 Coeff:     -0.334D-02 0.305D+00 0.343D+00 0.355D+00
 Gap=     0.195 Goal=   None    Shift=    0.000
 RMSDP=9.89D-07 MaxDP=7.47D-05 DE=-6.44D-06 OVMax= 9.90D-05

 Cycle  13  Pass 1  IDiag  1:
 RMSU=  2.74D-07    CP:  1.00D+00  1.01D+00  5.31D-01  3.64D-01
 E= -2146.70333264308     Delta-E=       -0.000000242440 Rises=F Damp=F
 DIIS: error= 3.96D-06 at cycle   5 NSaved=   5.
 NSaved= 5 IEnMin= 5 EnMin= -2146.70333264308     IErMin= 5 ErrMin= 3.96D-06
 ErrMax= 3.96D-06 EMaxC= 1.00D-01 BMatC= 1.29D-08 BMatP= 2.75D-07
 IDIUse=1 WtCom= 1.00D+00 WtEn= 0.00D+00
 Coeff-Com: -0.279D-02 0.189D+00 0.213D+00 0.246D+00 0.354D+00
 Coeff:     -0.279D-02 0.189D+00 0.213D+00 0.246D+00 0.354D+00
 Gap=     0.195 Goal=   None    Shift=    0.000
 RMSDP=2.16D-07 MaxDP=1.65D-05 DE=-2.42D-07 OVMax= 2.40D-05

 Cycle  14  Pass 1  IDiag  1:
 RMSU=  9.51D-08    CP:  1.00D+00  1.01D+00  5.31D-01  3.96D-01  5.82D-01
 E= -2146.70333265424     Delta-E=       -0.000000011152 Rises=F Damp=F
 DIIS: error= 4.67D-07 at cycle   6 NSaved=   6.
 NSaved= 6 IEnMin= 6 EnMin= -2146.70333265424     IErMin= 6 ErrMin= 4.67D-07
 ErrMax= 4.67D-07 EMaxC= 1.00D-01 BMatC= 5.18D-10 BMatP= 1.29D-08
 IDIUse=1 WtCom= 1.00D+00 WtEn= 0.00D+00
 Coeff-Com: -0.124D-02 0.736D-01 0.834D-01 0.102D+00 0.204D+00 0.538D+00
 Coeff:     -0.124D-02 0.736D-01 0.834D-01 0.102D+00 0.204D+00 0.538D+00
 Gap=     0.195 Goal=   None    Shift=    0.000
 RMSDP=4.93D-08 MaxDP=3.17D-06 DE=-1.12D-08 OVMax= 4.77D-06

 Cycle  15  Pass 1  IDiag  1:
 RMSU=  2.70D-08    CP:  1.00D+00  1.01D+00  5.31D-01  4.02D-01  6.16D-01
                    CP:  7.99D-01
 E= -2146.70333265465     Delta-E=       -0.000000000410 Rises=F Damp=F
 DIIS: error= 1.56D-07 at cycle   7 NSaved=   7.
 NSaved= 7 IEnMin= 7 EnMin= -2146.70333265465     IErMin= 7 ErrMin= 1.56D-07
 ErrMax= 1.56D-07 EMaxC= 1.00D-01 BMatC= 4.85D-11 BMatP= 5.18D-10
 IDIUse=1 WtCom= 1.00D+00 WtEn= 0.00D+00
 Coeff-Com: -0.353D-03 0.187D-01 0.213D-01 0.279D-01 0.700D-01 0.288D+00
 Coeff-Com:  0.575D+00
 Coeff:     -0.353D-03 0.187D-01 0.213D-01 0.279D-01 0.700D-01 0.288D+00
 Coeff:      0.575D+00
 Gap=     0.195 Goal=   None    Shift=    0.000
 RMSDP=1.82D-08 MaxDP=1.11D-06 DE=-4.10D-10 OVMax= 1.77D-06

 Cycle  16  Pass 1  IDiag  1:
 RMSU=  9.53D-09    CP:  1.00D+00  1.01D+00  5.31D-01  4.01D-01  6.20D-01
                    CP:  8.37D-01  7.14D-01
 E= -2146.70333265474     Delta-E=       -0.000000000093 Rises=F Damp=F
 DIIS: error= 9.77D-08 at cycle   8 NSaved=   8.
 NSaved= 8 IEnMin= 8 EnMin= -2146.70333265474     IErMin= 8 ErrMin= 9.77D-08
 ErrMax= 9.77D-08 EMaxC= 1.00D-01 BMatC= 1.11D-11 BMatP= 4.85D-11
 IDIUse=1 WtCom= 1.00D+00 WtEn= 0.00D+00
 Coeff-Com: -0.201D-04-0.278D-03-0.252D-03 0.818D-03 0.104D-01 0.925D-01
 Coeff-Com:  0.363D+00 0.534D+00
 Coeff:     -0.201D-04-0.278D-03-0.252D-03 0.818D-03 0.104D-01 0.925D-01
 Coeff:      0.363D+00 0.534D+00
 Gap=     0.195 Goal=   None    Shift=    0.000
 RMSDP=8.26D-09 MaxDP=4.48D-07 DE=-9.28D-11 OVMax= 7.09D-07

 SCF Done:  E(RB3LYP) =  -2146.70333265     A.U. after   16 cycles
             Convg  =    0.8263D-08             -V/T =  2.0048
 KE= 2.136414717084D+03 PE=-1.182963365351D+04 EE= 4.148818278039D+03
 Leave Link  502 at Thu Sep  1 09:25:16 2022, MaxMem=  209715200 cpu:    6209.5
 (Enter /opt/gaussian/l601.exe)
 Copying SCF densities to generalized density rwf, IOpCl= 0 IROHF=0.

 **********************************************************************

            Population analysis using the SCF density.

 **********************************************************************

 Orbital symmetries:
       Occupied  (A) (A) (A) (A) (A) (A) (A) (A) (A) (A) (A) (A)
                 (A) (A) (A) (A) (A) (A) (A) (A) (A) (A) (A) (A)
                 (A) (A) (A) (A) (A) (A) (A) (A) (A) (A) (A) (A)
                 (A) (A) (A) (A) (A) (A) (A) (A) (A) (A) (A) (A)
                 (A) (A) (A) (A) (A) (A) (A) (A) (A) (A) (A) (A)
                 (A) (A) (A) (A) (A) (A) (A) (A) (A) (A) (A) (A)
                 (A) (A) (A) (A) (A) (A) (A) (A) (A) (A) (A) (A)
                 (A) (A) (A) (A) (A) (A) (A) (A) (A) (A) (A) (A)
                 (A) (A) (A) (A) (A) (A) (A) (A) (A) (A) (A) (A)
                 (A) (A) (A) (A) (A) (A) (A) (A) (A) (A) (A) (A)
                 (A) (A)
       Virtual   (A) (A) (A) (A) (A) (A) (A) (A) (A) (A) (A) (A)
                 (A) (A) (A) (A) (A) (A) (A) (A) (A) (A) (A) (A)
                 (A) (A) (A) (A) (A) (A) (A) (A) (A) (A) (A) (A)
                 (A) (A) (A) (A) (A) (A) (A) (A) (A) (A) (A) (A)
                 (A) (A) (A) (A) (A) (A) (A) (A) (A) (A) (A) (A)
                 (A) (A) (A) (A) (A) (A) (A) (A) (A) (A) (A) (A)
                 (A) (A) (A) (A) (A) (A) (A) (A) (A) (A) (A) (A)
                 (A) (A) (A) (A) (A) (A) (A) (A) (A) (A) (A) (A)
                 (A) (A) (A) (A) (A) (A) (A) (A) (A) (A) (A) (A)
                 (A) (A) (A) (A) (A) (A) (A) (A) (A) (A) (A) (A)
                 (A) (A) (A) (A) (A) (A) (A) (A) (A) (A) (A) (A)
                 (A) (A) (A) (A) (A) (A) (A) (A) (A) (A) (A) (A)
                 (A) (A) (A) (A) (A) (A) (A) (A) (A) (A) (A) (A)
                 (A) (A) (A) (A) (A) (A) (A) (A) (A) (A) (A) (A)
                 (A) (A) (A) (A) (A) (A) (A) (A) (A) (A) (A) (A)
                 (A) (A) (A) (A) (A) (A) (A) (A) (A) (A) (A) (A)
                 (A) (A) (A) (A) (A) (A) (A) (A) (A) (A) (A) (A)
                 (A) (A) (A) (A) (A) (A) (A) (A) (A) (A) (A) (A)
                 (A) (A) (A) (A) (A) (A) (A) (A) (A) (A) (A) (A)
                 (A) (A) (A) (A) (A) (A) (A) (A) (A) (A) (A) (A)
                 (A) (A) (A) (A) (A) (A) (A) (A) (A) (A) (A) (A)
                 (A) (A) (A) (A) (A) (A) (A) (A) (A) (A) (A) (A)
                 (A) (A) (A) (A) (A) (A) (A) (A) (A) (A) (A) (A)
                 (A) (A) (A) (A) (A) (A) (A) (A) (A) (A) (A) (A)
                 (A) (A) (A) (A) (A) (A) (A) (A) (A) (A) (A) (A)
                 (A) (A) (A) (A) (A) (A) (A) (A) (A) (A) (A) (A)
                 (A) (A) (A) (A) (A) (A) (A) (A) (A) (A) (A) (A)
                 (A) (A) (A) (A) (A) (A) (A) (A) (A) (A) (A) (A)
                 (A) (A) (A) (A) (A) (A) (A) (A) (A) (A) (A) (A)
                 (A) (A) (A) (A) (A) (A) (A) (A) (A) (A) (A) (A)
                 (A) (A) (A) (A) (A) (A) (A) (A) (A) (A) (A) (A)
                 (A) (A) (A) (A) (A) (A) (A) (A) (A) (A) (A) (A)
                 (A) (A) (A) (A) (A) (A) (A) (A) (A) (A) (A) (A)
                 (A) (A) (A) (A) (A) (A) (A) (A) (A) (A) (A) (A)
                 (A) (A) (A) (A) (A) (A) (A) (A) (A) (A) (A) (A)
                 (A) (A) (A) (A) (A) (A) (A) (A) (A) (A) (A) (A)
                 (A) (A) (A) (A) (A) (A) (A)
 The electronic state is 1-A.
 Alpha  occ. eigenvalues --  -89.10142 -88.92540 -19.13284 -19.12928 -19.12739
 Alpha  occ. eigenvalues --  -14.41050 -14.39085 -14.39008 -14.37426 -14.34750
 Alpha  occ. eigenvalues --  -10.30912 -10.26192 -10.25649 -10.25049 -10.24985
 Alpha  occ. eigenvalues --  -10.24378 -10.23622 -10.23381 -10.23033 -10.22409
 Alpha  occ. eigenvalues --  -10.21824 -10.21765 -10.21340 -10.20872 -10.20774
 Alpha  occ. eigenvalues --  -10.20770 -10.20603 -10.20548 -10.20208 -10.19816
 Alpha  occ. eigenvalues --  -10.19616 -10.19193  -8.13374  -7.98607  -6.09754
 Alpha  occ. eigenvalues --   -6.09587  -6.09521  -5.94957  -5.94590  -5.94203
 Alpha  occ. eigenvalues --   -1.10423  -1.06245  -1.02845  -0.97432  -0.93420
 Alpha  occ. eigenvalues --   -0.93198  -0.92547  -0.89742  -0.89702  -0.87308
 Alpha  occ. eigenvalues --   -0.86770  -0.79445  -0.78920  -0.77739  -0.77426
 Alpha  occ. eigenvalues --   -0.76297  -0.75337  -0.74691  -0.71712  -0.70935
 Alpha  occ. eigenvalues --   -0.65797  -0.65314  -0.63934  -0.63297  -0.62956
 Alpha  occ. eigenvalues --   -0.61199  -0.60060  -0.59799  -0.57941  -0.56656
 Alpha  occ. eigenvalues --   -0.55717  -0.54533  -0.53976  -0.53492  -0.53106
 Alpha  occ. eigenvalues --   -0.52450  -0.51789  -0.51138  -0.49010  -0.48833
 Alpha  occ. eigenvalues --   -0.47552  -0.47400  -0.47185  -0.46314  -0.45333
 Alpha  occ. eigenvalues --   -0.45247  -0.44586  -0.44440  -0.44174  -0.42892
 Alpha  occ. eigenvalues --   -0.42720  -0.42058  -0.41816  -0.40791  -0.40141
 Alpha  occ. eigenvalues --   -0.39736  -0.39285  -0.38820  -0.38643  -0.38073
 Alpha  occ. eigenvalues --   -0.37447  -0.37057  -0.36227  -0.36109  -0.34360
 Alpha  occ. eigenvalues --   -0.34242  -0.33573  -0.31751  -0.31411  -0.30007
 Alpha  occ. eigenvalues --   -0.29035  -0.28227  -0.27733  -0.27629  -0.27120
 Alpha  occ. eigenvalues --   -0.26978  -0.26617  -0.26293  -0.26233  -0.25408
 Alpha  occ. eigenvalues --   -0.24631  -0.23811
 Alpha virt. eigenvalues --   -0.04348  -0.04040  -0.03845  -0.02761  -0.00201
 Alpha virt. eigenvalues --    0.00320   0.00654   0.00919   0.01813   0.02113
 Alpha virt. eigenvalues --    0.03553   0.03587   0.04675   0.05777   0.06007
 Alpha virt. eigenvalues --    0.06714   0.06967   0.07033   0.07349   0.07934
 Alpha virt. eigenvalues --    0.08298   0.08747   0.09551   0.10240   0.10376
 Alpha virt. eigenvalues --    0.10670   0.11018   0.11260   0.12067   0.13176
 Alpha virt. eigenvalues --    0.13287   0.13623   0.14367   0.15040   0.15648
 Alpha virt. eigenvalues --    0.15960   0.16453   0.16710   0.17331   0.17879
 Alpha virt. eigenvalues --    0.20140   0.20477   0.20827   0.21214   0.22296
 Alpha virt. eigenvalues --    0.22636   0.24268   0.24573   0.25199   0.25442
 Alpha virt. eigenvalues --    0.26953   0.27989   0.28696   0.29398   0.30171
 Alpha virt. eigenvalues --    0.30276   0.30827   0.31487   0.33158   0.33995
 Alpha virt. eigenvalues --    0.34641   0.34958   0.36705   0.37978   0.38629
 Alpha virt. eigenvalues --    0.40247   0.40677   0.41601   0.42314   0.42490
 Alpha virt. eigenvalues --    0.43274   0.43563   0.43947   0.44159   0.44596
 Alpha virt. eigenvalues --    0.45165   0.45546   0.45911   0.46160   0.46400
 Alpha virt. eigenvalues --    0.46656   0.46726   0.47073   0.47160   0.47349
 Alpha virt. eigenvalues --    0.47728   0.48383   0.48745   0.49120   0.49521
 Alpha virt. eigenvalues --    0.49908   0.50172   0.50251   0.50533   0.50575
 Alpha virt. eigenvalues --    0.51147   0.51457   0.51839   0.52218   0.52668
 Alpha virt. eigenvalues --    0.52874   0.53022   0.53561   0.54168   0.54897
 Alpha virt. eigenvalues --    0.55321   0.55551   0.55682   0.56086   0.56581
 Alpha virt. eigenvalues --    0.56878   0.57928   0.58433   0.58882   0.59172
 Alpha virt. eigenvalues --    0.59906   0.59994   0.60281   0.60733   0.61551
 Alpha virt. eigenvalues --    0.61761   0.62267   0.62831   0.63185   0.63830
 Alpha virt. eigenvalues --    0.64255   0.64539   0.64849   0.65021   0.65388
 Alpha virt. eigenvalues --    0.65559   0.66144   0.66480   0.66796   0.67410
 Alpha virt. eigenvalues --    0.67547   0.68265   0.68613   0.68840   0.69667
 Alpha virt. eigenvalues --    0.70252   0.70582   0.71427   0.72373   0.72435
 Alpha virt. eigenvalues --    0.73261   0.73831   0.74355   0.75307   0.75979
 Alpha virt. eigenvalues --    0.76717   0.77131   0.78222   0.78356   0.79267
 Alpha virt. eigenvalues --    0.80207   0.80510   0.81679   0.82658   0.82933
 Alpha virt. eigenvalues --    0.83706   0.84424   0.84671   0.85269   0.85580
 Alpha virt. eigenvalues --    0.85639   0.87697   0.88177   0.88720   0.89284
 Alpha virt. eigenvalues --    0.89602   0.90178   0.91181   0.91431   0.92525
 Alpha virt. eigenvalues --    0.92907   0.93205   0.93581   0.94091   0.94606
 Alpha virt. eigenvalues --    0.94884   0.95149   0.96866   0.97352   0.98337
 Alpha virt. eigenvalues --    0.98923   0.99264   0.99750   1.00430   1.00920
 Alpha virt. eigenvalues --    1.01268   1.01483   1.02146   1.02650   1.03480
 Alpha virt. eigenvalues --    1.03941   1.04256   1.04611   1.05153   1.05750
 Alpha virt. eigenvalues --    1.06517   1.07078   1.07327   1.07606   1.08186
 Alpha virt. eigenvalues --    1.09690   1.11003   1.11613   1.11982   1.12844
 Alpha virt. eigenvalues --    1.13163   1.13420   1.14168   1.15334   1.15854
 Alpha virt. eigenvalues --    1.17272   1.17764   1.18086   1.18642   1.19287
 Alpha virt. eigenvalues --    1.19727   1.19955   1.22313   1.23276   1.23630
 Alpha virt. eigenvalues --    1.24570   1.25831   1.26668   1.27194   1.28595
 Alpha virt. eigenvalues --    1.29088   1.30312   1.30837   1.32078   1.32503
 Alpha virt. eigenvalues --    1.33484   1.33668   1.34341   1.35182   1.35907
 Alpha virt. eigenvalues --    1.36462   1.38514   1.38806   1.41085   1.42290
 Alpha virt. eigenvalues --    1.44010   1.44948   1.45694   1.46037   1.46347
 Alpha virt. eigenvalues --    1.47162   1.48420   1.48560   1.49194   1.49694
 Alpha virt. eigenvalues --    1.49860   1.51101   1.51457   1.52041   1.53307
 Alpha virt. eigenvalues --    1.54380   1.55517   1.56010   1.56719   1.57043
 Alpha virt. eigenvalues --    1.57272   1.57382   1.57897   1.58516   1.59306
 Alpha virt. eigenvalues --    1.59418   1.59705   1.60434   1.61434   1.62323
 Alpha virt. eigenvalues --    1.62899   1.63058   1.63185   1.64499   1.64592
 Alpha virt. eigenvalues --    1.64713   1.65650   1.66400   1.67399   1.67515
 Alpha virt. eigenvalues --    1.68097   1.68529   1.68983   1.69288   1.69678
 Alpha virt. eigenvalues --    1.70283   1.70550   1.71712   1.72483   1.73310
 Alpha virt. eigenvalues --    1.73803   1.74603   1.74801   1.75138   1.76267
 Alpha virt. eigenvalues --    1.76713   1.77282   1.77377   1.77936   1.78764
 Alpha virt. eigenvalues --    1.78967   1.79722   1.80098   1.80494   1.81365
 Alpha virt. eigenvalues --    1.81973   1.82334   1.82882   1.84125   1.84387
 Alpha virt. eigenvalues --    1.84770   1.85158   1.85490   1.86279   1.86758
 Alpha virt. eigenvalues --    1.87161   1.88531   1.88983   1.89041   1.89814
 Alpha virt. eigenvalues --    1.89950   1.91691   1.92617   1.93046   1.93848
 Alpha virt. eigenvalues --    1.94726   1.94849   1.96524   1.96837   1.98146
 Alpha virt. eigenvalues --    1.99142   1.99473   1.99816   2.00410   2.01234
 Alpha virt. eigenvalues --    2.02209   2.03526   2.03958   2.04813   2.05243
 Alpha virt. eigenvalues --    2.05336   2.06109   2.07339   2.08011   2.08399
 Alpha virt. eigenvalues --    2.09262   2.09710   2.10088   2.11848   2.12675
 Alpha virt. eigenvalues --    2.13180   2.13845   2.15436   2.15820   2.17719
 Alpha virt. eigenvalues --    2.17823   2.19517   2.19947   2.20332   2.22661
 Alpha virt. eigenvalues --    2.24143   2.25363   2.25529   2.28073   2.29313
 Alpha virt. eigenvalues --    2.29962   2.31931   2.32375   2.33095   2.36204
 Alpha virt. eigenvalues --    2.37824   2.39225   2.41173   2.42763   2.43231
 Alpha virt. eigenvalues --    2.43309   2.43986   2.45003   2.46121   2.46461
 Alpha virt. eigenvalues --    2.47445   2.48185   2.49726   2.50171   2.51457
 Alpha virt. eigenvalues --    2.52123   2.53331   2.54099   2.54565   2.56137
 Alpha virt. eigenvalues --    2.58442   2.60848   2.61033   2.63799   2.63975
 Alpha virt. eigenvalues --    2.64674   2.64980   2.65274   2.65697   2.67132
 Alpha virt. eigenvalues --    2.67484   2.69027   2.70098   2.70309   2.71963
 Alpha virt. eigenvalues --    2.72684   2.73500   2.74121   2.74445   2.75744
 Alpha virt. eigenvalues --    2.77792   2.78258   2.79618   2.80032   2.80514
 Alpha virt. eigenvalues --    2.81649   2.84215   2.85265   2.89738   2.93436
 Alpha virt. eigenvalues --    2.96887   2.97637   2.98671   3.00752   3.06849
 Alpha virt. eigenvalues --    3.07421   3.08484   3.12900   3.15174   3.16103
 Alpha virt. eigenvalues --    3.41193   3.48253   3.57833   3.60251
          Condensed to atoms (all electrons):
 Mulliken atomic charges:
              1
     1  O   -0.244686
     2  C    0.108549
     3  C    0.155162
     4  N   -0.230105
     5  N   -0.055726
     6  N   -0.179677
     7  C   -0.001875
     8  C    0.064127
     9  C    0.049827
    10  C    0.052135
    11  C    0.042633
    12  C    0.210532
    13  N   -0.278635
    14  C    0.168695
    15  C   -0.028774
    16  C    0.072240
    17  C   -0.082108
    18  S    0.133316
    19  C   -0.143174
    20  C    0.087479
    21  C    0.100961
    22  C    0.091624
    23  C    0.033143
    24  C    0.123288
    25  C    0.048046
    26  N   -0.349212
    27  S    0.911928
    28  O   -0.490371
    29  O   -0.496742
    30  C   -0.189084
    31  C    0.041374
    32  C    0.038416
    33  H    0.051786
    34  H    0.050817
    35  H   -0.033061
    36  H   -0.037537
    37  H   -0.036059
    38  H   -0.043116
    39  H    0.035874
    40  H    0.043823
    41  H   -0.036189
    42  H    0.011128
    43  H    0.015570
    44  H   -0.026161
    45  H   -0.043343
    46  H   -0.027421
    47  H   -0.030848
    48  H    0.129032
    49  H    0.036031
    50  H    0.052939
    51  H    0.036221
    52  H    0.036424
    53  H    0.050787
 Sum of Mulliken atomic charges =   0.00000
 Mulliken charges with hydrogens summed into heavy atoms:
              1
     1  O   -0.244686
     2  C    0.108549
     3  C    0.257764
     4  N   -0.230105
     5  N   -0.055726
     6  N   -0.179677
     7  C   -0.001875
     8  C    0.031066
     9  C    0.012290
    10  C    0.016076
    11  C   -0.000483
    12  C    0.210532
    13  N   -0.278635
    14  C    0.248391
    15  C   -0.028774
    16  C    0.036051
    17  C   -0.070979
    18  S    0.133316
    19  C   -0.127604
    20  C    0.087479
    21  C    0.074799
    22  C    0.048281
    23  C    0.033143
    24  C    0.095867
    25  C    0.017198
    26  N   -0.220180
    27  S    0.911928
    28  O   -0.490371
    29  O   -0.496742
    30  C   -0.153053
    31  C    0.130535
    32  C    0.125626
 Sum of Mulliken charges with hydrogens summed into heavy atoms =   0.00000
 Electronic spatial extent (au):  <R**2>=          20523.4789
 Charge=              0.0000 electrons
 Dipole moment (field-independent basis, Debye):
    X=              2.8052    Y=              2.7709    Z=             -0.0285  Tot=              3.9431
 Quadrupole moment (field-independent basis, Debye-Ang):
   XX=           -247.1715   YY=           -180.4090   ZZ=           -193.3361
   XY=             29.4864   XZ=             18.6618   YZ=            -17.4636
 Traceless Quadrupole moment (field-independent basis, Debye-Ang):
   XX=            -40.1993   YY=             26.5632   ZZ=             13.6361
   XY=             29.4864   XZ=             18.6618   YZ=            -17.4636
 Octapole moment (field-independent basis, Debye-Ang**2):
  XXX=            272.5518  YYY=             38.5573  ZZZ=             13.8312  XYY=            -27.4238
  XXY=            -39.3696  XXZ=             44.6171  XZZ=            -42.0822  YZZ=              7.0460
  YYZ=             19.9666  XYZ=            -24.3168
 Hexadecapole moment (field-independent basis, Debye-Ang**3):
 XXXX=         -22473.2089 YYYY=          -5799.7031 ZZZZ=          -2369.8301 XXXY=            353.2371
 XXXZ=            393.7075 YYYX=            384.9474 YYYZ=            -76.0522 ZZZX=            115.3244
 ZZZY=            -72.6806 XXYY=          -3756.2691 XXZZ=          -3508.1680 YYZZ=          -1440.0445
 XXYZ=           -426.9211 YYXZ=             85.8050 ZZXY=            127.3738
 N-N= 3.397697325729D+03 E-N=-1.182963364614D+04  KE= 2.136414717084D+03
 No NMR shielding tensors so no spin-rotation constants.
 Leave Link  601 at Thu Sep  1 09:25:16 2022, MaxMem=  209715200 cpu:       4.3
 (Enter /opt/gaussian/l701.exe)
 Compute integral first derivatives.
 ... and contract with generalized density number  0.
 Leave Link  701 at Thu Sep  1 09:25:17 2022, MaxMem=  209715200 cpu:       3.6
 (Enter /opt/gaussian/l702.exe)
 L702 exits ... SP integral derivatives will be done elsewhere.
 Leave Link  702 at Thu Sep  1 09:25:17 2022, MaxMem=  209715200 cpu:       0.2
 (Enter /opt/gaussian/l703.exe)
 Compute integral first derivatives, UseDBF=F ICtDFT=           0.
 Integral derivatives from FoFDir, PRISM(SPDF).
 Calling FoFJK, ICntrl=      2127 FMM=F ISym2X=0 I1Cent= 0 IOpClX= 0 NMat=1 NMatS=1 NMatT=0.
 FoFCou: FMM=F IPFlag=           0 FMFlag=      100000 FMFlg1=         800
         NFxFlg=           0 DoJE=F BraDBF=F KetDBF=F FulRan=T
         Omega=  0.000000  0.000000  1.000000  0.000000  0.000000 ICntrl=    2127 IOpCl=  0
         NMat0=    1 NMatS0=    1 NMatT0=    0 NMatD0=    1 NMtDS0=    0 NMtDT0=    0
         I1Cent=           0 NGrid=           0.
 Symmetry not used in FoFCou.
 Leave Link  703 at Thu Sep  1 09:29:33 2022, MaxMem=  209715200 cpu:    2036.2
 (Enter /opt/gaussian/l716.exe)
 Dipole        = 1.10365300D+00 1.09015304D+00-1.12028415D-02
 ***** Axes restored to original set *****
 -------------------------------------------------------------------
 Center     Atomic                   Forces (Hartrees/Bohr)
 Number     Number              X              Y              Z
 -------------------------------------------------------------------
      1        8           0.000710069    0.001019928   -0.001443664
      2        6          -0.004507772   -0.014638926    0.005805372
      3        6          -0.001640593   -0.004941750    0.002612352
      4        7           0.000578942    0.000191860   -0.000004030
      5        7          -0.008987897    0.012688986   -0.009758933
      6        7           0.012973376   -0.019052380    0.002428112
      7        6           0.002692739   -0.005691629   -0.015078050
      8        6          -0.001270896    0.001938342   -0.001602797
      9        6          -0.004171542    0.006451776    0.001967858
     10        6           0.004089431   -0.006068883   -0.001871454
     11        6          -0.000082861    0.000047025   -0.004868762
     12        6          -0.007198514    0.009901345    0.005503736
     13        7          -0.004069449    0.007378336   -0.003424593
     14        6           0.000519494   -0.005684312    0.013190775
     15        6           0.004613871    0.011984015   -0.019767169
     16        6          -0.008704970   -0.017988412   -0.005366666
     17        6          -0.005021027   -0.014156994    0.029726285
     18       16          -0.002527754   -0.002192360   -0.024994758
     19        6           0.009940385    0.018425958    0.025912358
     20        6           0.009555963    0.001245164   -0.000605220
     21        6          -0.002115784    0.000590444    0.002496117
     22        6           0.003075024    0.002431390    0.000879899
     23        6          -0.010337913    0.000485982    0.000817567
     24        6           0.004293560    0.000118520   -0.000587869
     25        6          -0.003335868   -0.001887002   -0.001316011
     26        7           0.000396767   -0.020198982    0.024046523
     27       16          -0.065141075    0.065620984    0.026962908
     28        8          -0.020973410   -0.059929641   -0.070789120
     29        8           0.097475759   -0.005382259    0.032683501
     30        6          -0.001315861    0.019263878    0.003705711
     31        6           0.004453857    0.002100326   -0.005176055
     32        6          -0.006399487   -0.000737210    0.000162265
     33        1           0.002618025    0.004130429   -0.012636180
     34        1           0.004088497    0.010632092    0.007680031
     35        1           0.007281482   -0.011390654   -0.005034952
     36        1           0.006321659   -0.008491949    0.009739336
     37        1          -0.000863620    0.002615880    0.013963122
     38        1          -0.007388648    0.011244900    0.004644715
     39        1           0.009108886   -0.000441721   -0.008914243
     40        1          -0.009990789    0.005751609   -0.005946552
     41        1           0.002069061    0.005953412   -0.013088147
     42        1           0.007010667    0.014386797    0.003290880
     43        1          -0.005591782   -0.013248858    0.006762493
     44        1           0.009109996   -0.008824950   -0.007339033
[...]
 6,-0.00000164,0.00000515,-0.00003686,0.00001507,0.00000016,0.00000112,
 0.00000692,0.00000310,0.00000013,0.00000143,-0.00000081,-0.00000030,0.
 00000011,-0.00000225,-0.00000163,-0.00000153,0.00000096,0.00000028,-0.
 00000053,0.00000016,-0.00000203,0.00000161,0.00000166,0.00002046,0.000
 01406,0.00000423,-0.00003074,0.00002279,0.00000431,-0.00002942,-0.0000
 9116,-0.00007532,0.00014295,-0.00004911,0.00000971,-0.00003129,-0.0000
 1716,0.00000220,0.00002167,0.00001631,-0.00000105,-0.00001656,0.000115
 73,0.00063451,-0.00214552,-0.00288653,-0.00302014,0.00045944,-0.000941
 10,0.00208007,-0.00009995,0.00067406,0.00027581,0.00067057,-0.00941087
 ,-0.01659991,0.00073890,-0.13854303,-0.24209677,0.00047704,0.00031217,
 -0.00412194,-0.00000032,-0.00000025,-0.00000070,-0.00000082,0.00000047
 ,0.00000026,-0.00000014,0.00000003,-0.00000001,-0.00000042,0.00000020,
 -0.00000006,-0.00000043,-0.00000026,-0.00000063,-0.00000007,-0.0000004
 4,0.00000102,-0.00000209,-0.00000197,0.00000062,0.00000022,0.00000036,
 -0.00000162,0.00000043,-0.00000011,-0.00000004,0.00000030,-0.00000024,
 0.00000005,0.00000206,-0.00000098,0.00000148,-0.00000582,-0.00000095,-
 0.00000019,-0.00001741,0.00002289,0.00006851,0.00000174,0.00002585,-0.
 00000463,-0.00000234,-0.00000123,-0.00000054,-0.00008846,-0.00001015,0
 .00001116,0.00236941,0.00098159,-0.00187665,-0.00204304,0.14592667,0.2
 5947942,-0.00002810,-0.00003462,0.00001829,0.00001191,0.00005551,-0.00
 001641,0.00000227,-0.00000955,0.00000330,-0.00000481,0.00000445,0.0000
 0177,0.00000418,-0.00000566,-0.00000701,-0.00000410,0.00000605,-0.0000
 0194,-0.00000027,0.00000022,0.00000192,0.00000034,0.00000004,-0.000000
 05,0.00000051,0.00000027,0.00000073,0.00000047,-0.00000139,0.00000173,
 -0.00000018,-0.00000153,-0.00000248,0.00000175,-0.00000021,0.00000471,
 0.00002820,-0.00002244,0.00000215,0.00000214,0.00000387,-0.00000670,-0
 .00000073,-0.00000153,-0.00000079,-0.00000045,-0.00000091,-0.00000150,
 -0.00000173,-0.00000300,0.00000057,0.00000031,0.00000051,0.00000092,0.
 00000027,0.00000283,0.00000136,0.00002572,-0.00001518,-0.00002360,0.00
 011433,-0.00001763,0.00003388,-0.00000133,0.00003865,0.00009849,-0.000
 37317,0.00009177,0.00001990,0.00013780,0.00004239,-0.00001354,-0.00003
 391,-0.00001750,0.00002101,-0.00016112,0.00125124,-0.00066505,0.001366
 26,-0.00069754,-0.00213101,0.00038104,0.00034353,0.00033317,-0.0003550
 2,-0.00002727,0.00013704,0.00528118,0.01314360,0.00183973,-0.12338294,
 -0.13755322,0.00864120,-0.01315549,-0.02355390,-0.00236629,-0.00000128
 ,0.00000014,-0.00000060,-0.00000163,0.00000069,0.,-0.00000073,0.000000
 13,0.00000044,-0.00000113,0.00000047,-0.00000067,0.00000056,-0.0000008
 1,0.,0.00000098,0.00000223,0.00000083,-0.00000137,0.00000009,0.0000000
 6,0.00000037,0.00000013,-0.00000156,-0.00000008,-0.00000019,0.00000037
 ,-0.00000013,-0.00000035,0.00000037,0.00000307,0.00000204,-0.00000022,
 0.00001550,0.00000227,-0.00000838,-0.00002816,-0.00004075,-0.00009954,
 -0.00000676,-0.00002205,-0.00001234,0.00001049,0.00000275,-0.00000124,
 0.00029030,0.00024398,-0.00024468,-0.00012042,-0.00079600,0.00121747,0
 .00062103,0.00231107,0.00010311,0.12949070,-0.00002040,0.00004689,-0.0
 0002097,0.00006308,-0.00009306,0.00001607,0.00001009,-0.00001292,0.000
 00549,-0.00001508,0.00001177,0.00000481,0.00000839,-0.00001243,-0.0000
 1802,-0.00000989,0.00001374,-0.00000462,-0.00000205,0.00000214,0.00000
 380,0.00000087,-0.00000135,-0.00000007,-0.00000081,0.00000090,-0.00000
 019,0.00000072,-0.00000172,0.00000173,0.00000006,-0.00000030,-0.000004
 42,0.00000527,-0.00000356,0.00001703,-0.00012168,0.00002018,-0.0000022
 2,0.00000409,0.00003388,0.00000452,0.00000083,0.00000324,0.00000001,-0
 .00000056,-0.00000007,-0.00000839,-0.00000471,-0.00000637,0.00000145,0
 .00000005,-0.00000200,-0.00000176,-0.00000583,0.00000303,0.00000745,0.
 00006993,0.00003086,0.00000366,-0.00005271,-0.00002234,-0.00000747,-0.
 00000936,0.00000097,-0.00002877,0.00034495,-0.00004357,-0.00003569,-0.
 00011143,-0.00001357,0.00000733,0.00000690,0.00000914,-0.00001268,0.00
 024999,-0.00081209,0.00054308,-0.00214002,0.00192351,0.00083823,0.0000
 2650,-0.00068687,0.00033548,0.00053289,-0.00005344,-0.00002975,-0.0074
 2638,-0.01231012,-0.00123867,-0.13789629,-0.25482633,0.00390859,0.0063
 7588,0.00926884,0.00120968,-0.00000147,-0.00000022,-0.00000217,-0.0000
 0369,0.00000221,0.00000005,-0.00000039,0.00000069,0.00000033,-0.000000
 58,0.00000090,-0.00000083,0.00000037,-0.00000039,-0.00000080,0.0000004
 9,0.00000082,0.00000225,-0.00000840,-0.00000710,0.00000174,0.00000176,
 0.00000150,-0.00000628,0.00000106,0.00000043,0.00000075,0.00000016,-0.
 00000087,0.00000011,0.00000512,-0.00000198,0.00000407,-0.00000792,-0.0
 0000122,0.00000777,0.00002395,0.00000299,-0.00000657,0.00000680,0.0000
 2271,0.00000421,-0.00000839,-0.00000690,0.00000210,-0.00029968,-0.0001
 9040,0.00008914,0.00070289,0.00139190,-0.00098185,-0.00667886,-0.00903
 481,0.00346494,0.14515511,0.26432117,0.00002190,-0.00004348,0.00002086
 ,-0.00005845,0.00008525,-0.00001614,-0.00000877,0.00001193,-0.00000551
 ,0.00001385,-0.00001052,-0.00000442,-0.00000787,0.00001087,0.00001611,
 0.00000788,-0.00001235,0.00000409,0.00000196,-0.00000177,-0.00000328,-
 0.00000096,0.00000103,0.00000023,0.00000086,-0.00000167,0.00000076,-0.
 00000103,0.00000148,-0.00000137,0.00000010,-0.00000058,0.00000352,-0.0
 0000513,0.00000395,-0.00001589,0.00011169,-0.00001436,0.00000395,-0.00
 000263,-0.00003300,-0.00000499,-0.00000190,-0.00000401,-0.00000187,0.0
 0000023,-0.00000041,0.00000952,0.00000398,0.00000713,-0.00000222,0.000
 00170,0.00000312,0.00000287,0.00000449,-0.00000208,-0.00000633,-0.0000
 7085,-0.00004183,-0.00000120,0.00003025,0.00004328,-0.00001001,0.00000
 104,-0.00004102,0.00002516,-0.00033398,0.00001762,-0.00000474,0.000116
 31,0.00000106,0.00000002,0.00000357,0.00000976,0.00002419,-0.00046662,
 0.00131420,-0.00033885,0.00237321,-0.00368900,-0.00414074,0.00006145,-
 0.00011348,0.00186678,-0.00017695,0.00010995,0.00027178,0.01352393,0.0
 2084394,-0.00405733,0.00548754,0.00012903,-0.04476432,0.00317103,0.006
 11182,-0.00376453,0.00000168,0.00000044,0.00000208,0.00000387,-0.00000
 205,-0.00000034,0.00000064,-0.00000042,0.00000001,0.00000052,-0.000000
 45,0.00000069,0.00000042,0.00000002,0.00000100,-0.00000001,-0.00000005
 ,-0.00000248,0.00000797,0.00000721,-0.00000111,-0.00000176,-0.00000103
 ,0.00000633,-0.00000083,-0.00000056,-0.00000029,-0.00000014,0.00000039
 ,0.00000031,-0.00000281,0.00000165,-0.00000641,0.00000745,0.00000268,-
 0.00000486,-0.00000939,0.00004601,0.00001178,-0.00000678,-0.00000398,-
 0.00001105,0.00000790,0.00000782,-0.00000500,0.00033164,0.00027756,-0.
 00019148,-0.00152359,0.00035767,0.00173104,-0.01331232,-0.01832462,0.0
 0482949,-0.00962118,-0.00770237,0.04805092,0.00001896,0.00004985,-0.00
 000479,-0.00000207,-0.00005357,0.00001527,0.,0.00000311,-0.00000407,0.
 00000243,-0.00000131,0.,0.00000013,0.00000288,0.00000349,0.00000242,-0
 .00000038,0.00000145,-0.00000025,-0.00000071,-0.00000003,-0.00000084,0
 .00000255,0.00000019,0.00000069,0.00000173,-0.00000027,0.00000087,0.00
 000122,-0.00000226,0.00000367,-0.00000173,-0.00000016,-0.00000325,0.00
 000020,-0.00000356,-0.00000016,0.00002291,-0.00000516,-0.00000530,-0.0
 0001371,0.00000036,-0.00000196,-0.00000101,-0.00000278,-0.00000036,-0.
 00000055,0.00000524,0.00000080,0.00000185,-0.00000125,0.00000135,0.000
 00208,0.00000240,0.00000059,0.00000208,-0.00000302,-0.00001060,-0.0000
 2085,-0.00001364,0.00004869,-0.00001549,-0.00001128,-0.00000640,0.0000
 2007,0.00000799,-0.00011070,-0.00000954,-0.00003157,0.00004996,0.00004
 825,0.00001046,-0.00001061,0.00001577,0.00001571,0.00020203,0.00012270
 ,-0.00006751,-0.00367472,-0.00370625,0.00056831,0.00156140,-0.00023012
 ,0.00043494,0.00019889,0.00114499,-0.00031635,-0.00835882,0.01434475,0
 .00871149,-0.00573048,0.01396234,0.00643244,-0.06438894,0.05679817,0.0
 3532964,0.00000155,-0.00000049,-0.00000007,0.00000257,-0.00000024,0.00
 000022,-0.00000093,-0.00000051,-0.00000009,-0.00000066,-0.00000068,0.0
 0000015,-0.00000036,-0.00000086,0.00000044,-0.00000064,-0.00000081,-0.
 00000131,0.00000172,0.00000183,0.00000059,-0.00000010,0.00000234,0.000
 00110,-0.00000028,-0.00000063,0.00000015,-0.00000002,0.00000005,0.0000
 0053,0.00000298,0.00000082,-0.00000391,-0.00001532,-0.00001253,0.00001
 511,0.00005663,-0.00000482,-0.00000158,-0.00000457,-0.00000597,-0.0000
 0305,0.00000131,0.00000431,-0.00000059,0.00001019,0.00000327,0.0000401
 4,0.00155891,0.00059510,-0.00083622,-0.00234508,0.00082917,-0.00073084
 ,0.00169618,-0.00031299,0.00080152,0.06998814,0.00004534,0.00009081,-0
 .00000934,-0.00000511,-0.00012107,0.00002464,0.00000015,0.00000682,-0.
 00000807,0.00000358,-0.00000216,0.00000022,0.00000235,0.00000294,0.000
 00653,0.00000246,0.00000062,0.00000106,-0.00000057,-0.00000105,-0.0000
 0063,-0.00000106,0.00000272,-0.00000071,0.00000025,0.00000181,0.000000
 58,0.00000125,0.00000119,-0.00000200,0.00000395,-0.00000104,-0.0000003
 7,-0.00000516,0.00000083,-0.00000503,-0.00004475,0.00006736,0.00000307
 ,-0.00000371,-0.00001907,0.00000788,-0.00000298,-0.00000016,-0.0000042
 5,-0.00000047,0.00000098,0.00000813,0.00000129,0.00000647,-0.00000240,
 0.00000313,0.00000253,0.00000433,-0.00000233,0.00000084,-0.00000443,-0
 .00000501,-0.00006257,-0.00001803,-0.00001465,0.00012677,0.00002064,-0
 .00021967,-0.00028203,-0.00020957,0.00048853,-0.00002391,-0.00002070,-
 0.00006589,0.00004882,0.00006282,-0.00001290,0.00007721,0.00001614,-0.
 00043924,-0.00005719,0.00035058,0.00176806,0.00196249,-0.00151406,0.00
 024745,-0.00075829,0.00017682,0.00056374,-0.00118396,0.00033776,0.0012
 4912,-0.01176761,-0.00749127,-0.00168760,0.00982721,0.00678318,0.06038
 316,-0.24630850,-0.12716788,0.00000189,-0.00000159,-0.00000030,0.00000
 394,-0.00000076,0.00000063,-0.00000081,-0.00000059,-0.00000037,-0.0000
 0019,-0.00000100,0.00000058,-0.00000055,-0.00000078,0.00000081,-0.0000
 0131,-0.00000165,-0.00000165,0.00000078,0.00000156,0.00000141,-0.00000
 016,0.00000270,0.00000151,0.00000034,-0.00000126,-0.00000012,0.0000007
 3,-0.00000037,0.00000043,0.00000338,-0.00000096,-0.00000491,-0.0000487
 2,-0.00002047,0.00001418,0.00006527,-0.00002443,0.00023558,0.00001090,
 0.00005112,0.00000819,-0.00001076,0.00000476,-0.00000308,-0.00004438,-
 0.00000868,-0.00002038,-0.00111642,0.00132483,0.00029759,-0.00213037,0
 .00077603,0.00087322,0.00123603,0.00022618,0.00013220,-0.06654376,0.25
 521355,-0.00001755,0.00001326,-0.00001791,0.00002683,-0.00001839,0.000
 01120,0.00000618,-0.00000951,0.00000457,-0.00000688,0.00000702,0.00000
 086,0.00000117,-0.00000242,-0.00001278,-0.00000325,0.00000540,-0.00000
 073,-0.00000133,0.00000136,0.00000220,0.00000103,0.00000021,0.00000274
 ,0.00000170,0.00000212,-0.00000253,0.00000128,0.00000165,-0.00000085,0
 .00000326,-0.00000022,-0.00000152,0.00000323,-0.00000410,0.00001105,-0
 .00001698,-0.00000290,-0.00001062,-0.00000096,0.00000417,-0.00000273,-
 0.00000062,0.00000070,0.00000032,-0.00000032,-0.00000026,-0.00000183,-
 0.00000165,-0.00000174,0.00000045,0.00000017,-0.00000079,-0.00000080,-
 0.00000253,0.00000205,0.00000123,0.00002885,0.00001461,-0.00000714,0.0
 0004447,-0.00006803,-0.00000512,0.00008763,0.00010965,0.00010838,-0.00
 030006,0.00002252,-0.00007700,0.00006614,0.00000797,-0.00001457,-0.000
 01634,-0.00003237,0.00000506,0.00047203,-0.00004209,-0.00016925,-0.004
 23449,-0.00192632,0.00038822,0.00089130,0.00028973,0.00071106,-0.00092
 987,0.00214767,-0.00028145,-0.00341590,0.01909370,0.00960356,0.0013659
 8,-0.01929987,-0.01173134,0.03804691,-0.12784122,-0.11163018,-0.000000
 05,0.00000038,-0.00000120,-0.00000111,0.00000106,0.00000027,-0.0000013
 2,-0.00000031,0.00000052,-0.00000238,-0.00000015,-0.00000092,-0.000001
 45,-0.00000205,-0.00000166,-0.00000075,-0.00000134,0.00000095,-0.00000
 086,-0.00000067,0.00000073,0.00000004,0.00000187,-0.00000205,0.0000004
 3,0.,0.00000020,0.00000012,-0.00000033,0.00000007,0.00000348,-0.000000
 81,0.00000088,0.00001984,0.00000579,0.00000962,0.00000715,0.00004230,-
 0.00009032,-0.00000855,-0.00002476,-0.00000491,0.00000720,-0.00000085,
 0.00000083,-0.00000053,-0.00000020,0.00004737,0.00187581,-0.00056129,-
 0.00000944,0.00474593,-0.00074705,-0.00011614,-0.00221839,0.00114122,0
 .00117307,-0.04026580,0.13243066,0.11574373,0.00004038,0.00010685,-0.0
 0008499,0.00002267,-0.00017633,0.00006399,0.00000534,0.00000789,0.0000
 0219,-0.00000255,0.00000250,-0.00000162,-0.00000371,0.00000525,-0.0000
 0523,0.00000163,-0.00000158,0.00000111,-0.00000186,0.00000204,-0.00000
 094,0.00000107,-0.00000101,0.00000292,0.00000066,0.00000152,-0.0000042
 1,0.00000047,0.00000427,-0.00000324,0.00000317,0.00000442,0.00000212,0
 .00000165,-0.00000562,0.00000897,-0.00009675,0.00005381,-0.00001515,-0
 .00000706,0.00000025,0.00001045,0.00000175,0.00000645,0.00000169,0.000
 00041,0.00000236,-0.00000226,-0.00000013,0.00000309,0.00000006,-0.0000
 0032,-0.00000287,-0.00000306,-0.00000914,-0.00000279,0.00000172,0.0000
 1989,-0.00014808,-0.00008411,0.00010322,0.00007086,0.00003494,-0.00002
 961,-0.00007125,0.00014921,-0.00004297,-0.00006198,0.00005942,0.000184
 20,0.00010181,0.00006900,-0.00013755,0.00002430,0.00002631,-0.00013638
 ,0.00064631,-0.00006512,-0.00191846,-0.00256231,-0.00371805,0.00165315
 ,-0.00081977,0.00150928,0.00070430,0.00015733,0.00044112,-0.01188679,-
 0.00691254,-0.00260487,-0.01207471,-0.00640656,-0.00448102,-0.20631209
 ,-0.12654784,-0.07081081,0.00000197,-0.00000068,-0.00000106,0.00000192
 ,0.00000019,0.00000055,0.00000008,-0.00000045,-0.00000035,-0.00000023,
 -0.00000095,0.00000035,-0.00000279,-0.00000051,-0.00000217,-0.00000336
 ,-0.00000693,0.00000019,-0.00000313,-0.00000137,0.00000003,0.00000085,
 0.00000525,-0.00000552,0.00000121,0.00000024,-0.00000052,0.00000081,-0
 .00000026,-0.00000080,0.00000149,-0.00000869,0.00000423,-0.00000675,0.
 00000047,0.00003183,-0.00001325,-0.00003630,-0.00002104,0.00000065,0.0
 0001281,-0.00001207,-0.00000236,-0.00000016,-0.00000280,0.00009770,0.0
 0009380,-0.00012256,-0.00162387,0.00035224,0.00147156,0.00135446,-0.00
 102628,0.00026114,-0.00182280,0.00154134,-0.00048664,0.00926044,0.0063
 2137,0.00374172,0.22267349,0.00000482,-0.00014180,0.00005713,-0.000090
 85,0.00021880,-0.00005274,-0.00001699,0.00001750,-0.00000454,0.0000191
 0,-0.00001745,-0.00000444,-0.00000812,0.00000849,0.00002856,0.00000887
 ,-0.00001641,0.00000315,0.00000403,-0.00000311,-0.00000498,-0.00000131
 ,-0.00000071,-0.00000355,-0.00000133,-0.00000556,0.00000520,-0.0000027
 3,-0.00000358,-0.00000018,-0.00000832,0.00000047,0.00000509,-0.0000060
 7,0.00000940,-0.00002746,0.00016936,-0.00007223,0.00001435,0.00000381,
 -0.00002192,-0.00000834,0.00000191,-0.00000481,0.00000279,0.00000130,-
 0.00000003,0.00000443,0.00000661,0.00000531,-0.00000047,-0.00000229,0.
 00000122,-0.00000161,0.00000978,-0.00000835,-0.00000344,-0.00012720,-0
 .00002530,0.00002457,0.00001357,0.00001513,0.00000104,-0.00000080,0.00
 001436,0.00018148,-0.00028128,-0.00017348,0.00025985,0.00000587,-0.000
 03458,0.00002547,-0.00000900,-0.00003736,-0.00003490,0.00043138,-0.000
 61069,-0.00013508,0.00143617,0.00168369,0.00334641,-0.00107533,-0.0008
 3873,-0.00101430,-0.00059364,0.00020208,-0.00053569,0.01415679,0.01051
 784,0.00635717,-0.00277011,-0.00533278,-0.00226985,-0.13266858,-0.1485
 2401,-0.06405740,0.00000005,0.00000106,0.00000397,0.00000154,-0.000002
 67,-0.00000136,0.00000204,0.00000041,-0.00000010,0.00000362,0.00000015
 ,0.00000102,0.00000382,0.00000342,0.00000380,0.00000225,0.00000509,-0.
 00000323,0.00000864,0.00000694,-0.00000342,-0.00000208,-0.00000566,0.0
 0000756,-0.00000174,0.00000073,-0.00000071,-0.00000124,0.00000079,-0.0
 0000059,-0.00001395,0.00000494,-0.00000342,0.00001889,0.00000883,-0.00
 002813,-0.00003010,-0.00004355,-0.00008049,0.00000177,-0.00002985,0.00
 001133,-0.00000113,0.00000365,-0.00000339,-0.00007243,-0.00009297,0.00
 012652,0.00290352,-0.00120450,-0.00055811,0.00145679,0.00089670,-0.000
 50317,-0.00111884,0.00080538,0.00050600,-0.01704483,-0.00917804,-0.004
 75703,0.13527419,0.15199781,-0.00010737,0.00003414,-0.00004065,0.00015
 799,-0.00011158,0.00002115,0.00002518,-0.00004414,0.00002320,-0.000039
 80,0.00003119,0.00000862,0.00001681,-0.00002702,-0.00005501,-0.0000221
 4,0.00003194,-0.00001060,-0.00000572,0.00000626,0.00000870,0.00000374,
 -0.00000460,0.00000326,-0.00000057,0.00000439,-0.00000629,0.00000206,-
 0.00000146,0.00000721,-0.00000036,0.00000325,-0.00000940,0.00002024,-0
 .00001524,0.00005325,-0.00023027,-0.00000654,-0.00001576,0.00001017,0.
 00009222,0.00000466,0.00000701,0.00001124,0.00000729,-0.00000045,0.000
 00060,-0.00003104,-0.00001256,-0.00002305,0.00000848,-0.00000621,-0.00
 001071,-0.00000967,-0.00001254,0.00000666,0.00001823,0.00026524,0.0000
 8305,-0.00002669,0.00024794,-0.00008822,0.00010039,-0.00002245,-0.0001
 2681,0.00011953,-0.00032193,0.00025796,0.00003357,0.00008799,0.0000909
 6,-0.00000300,-0.00009034,-0.00005732,-0.00003944,-0.00027091,0.000245
 65,-0.00025781,0.00029704,-0.00179852,0.00107259,0.00036430,-0.0000272
 7,-0.00068864,0.00057578,-0.00027029,-0.00019160,-0.01208684,-0.010191
 63,-0.00965876,0.01955492,0.01688560,0.00863994,-0.07214799,-0.0637770
 6,-0.06843317,-0.00000666,-0.00000026,-0.00000584,-0.00001380,0.000005
 80,0.00000119,-0.00000136,0.00000099,0.00000028,-0.00000331,0.00000188
 ,-0.00000210,-0.00000348,-0.00000142,-0.00000595,-0.00000009,-0.000001
 76,0.00000967,-0.00002136,-0.00001839,0.00000148,0.00000385,0.00000230
 ,-0.00001908,0.00000219,0.00000191,0.00000040,0.00000033,-0.00000096,-
 0.00000110,0.00000872,-0.00000482,0.00002316,0.00002903,0.00000647,-0.
 00002544,-0.00009441,-0.00008786,-0.00025804,0.00000355,-0.00003780,-0
 .00000570,0.00000688,-0.00001677,0.00000867,0.00003724,-0.00000600,-0.
 00008118,-0.00330551,0.00157518,0.00071436,-0.00241611,0.00107709,0.00
 051000,0.00496059,-0.00151255,-0.00068982,-0.01008820,-0.00531185,-0.0
 0363418,0.07464394,0.06312515,0.07280671\\0.00000142,-0.00000044,0.000
 00115,0.00000035,-0.00000206,0.,0.00000023,-0.00000235,0.00000122,-0.0
 0000005,0.00000028,0.00000669,0.00000379,-0.00000417,-0.00000262,-0.00
 000311,-0.00000018,0.00000186,0.00000017,-0.00000188,0.00000248,-0.000
 00112,-0.00000149,0.00000208,-0.00000100,-0.00000071,0.00000228,-0.000
 00088,0.00000017,0.00000095,-0.00000041,-0.00000124,0.00000162,-0.0000
 0128,0.00000038,-0.00000223,0.00000201,0.00000182,-0.00000397,-0.00000
 005,-0.00000297,-0.00000074,0.00000035,-0.00000073,0.00000029,0.000000
 65,0.00000020,-0.00000138,0.00000137,-0.00000044,-0.00000235,0.0000011
 2,-0.00000014,-0.00000017,0.00000145,0.00000018,-0.00000169,-0.0000040
 1,0.00000193,0.00000341,0.00000012,-0.00000146,-0.00000044,-0.00000004
 ,-0.00000096,-0.00000225,0.00000122,0.00000359,0.00000102,-0.00000272,
 -0.00000038,-0.00000059,0.00000479,-0.00000167,-0.00000273,0.00000072,
 0.00000286,-0.00000280,-0.00000107,0.00000202,0.00000153,0.00000117,0.
 00000236,-0.00000089,-0.00000140,0.00000167,-0.00000189,0.00000217,-0.
 00000213,-0.00000012,-0.00000178,0.00000336,0.00000153,-0.00000211,-0.
 00000081,-0.00000130,0.00000006,-0.00000207,0.00000034,0.00000077,-0.0
 0000062,-0.00000046,-0.00000070,-0.00000145,0.00000223,-0.00000128,-0.
 00000068,0.00000235,-0.00000128,0.00000011,0.00000157,-0.00000002,0.,0
 .00000094,0.00000116,-0.00000115,0.00000064,0.00000071,-0.00000047,-0.
 00000136,0.00000138,-0.00000126,-0.00000167,0.00000141,-0.00000028,-0.
 00000129,-0.00000019,0.00000044,-0.00000005,-0.00000078,-0.00000004,-0
 .00000082,-0.00000013,-0.00000015,0.00000091,0.00000084,0.00000083,-0.
 00000160,0.00000035,0.00000058,-0.00000107,0.00000067,0.00000043,-0.00
 000154,-0.00000137,0.00000258,-0.00000077,-0.00000085,0.00000251,-0.00
 000001,-0.00000119,0.00000191,0.00000020,-0.00000074,0.00000166,0.0000
 0095,-0.00000089,0.00000251,0.00000053\\\@


 NATURE REVEALS EVERY SECRET ONCE.
                    - RALPH WALDO EMERSON
 Job cpu time:  0 days 21 hours  9 minutes 35.1 seconds.
 File lengths (MBytes):  RWF=   1915 Int=      0 D2E=      0 Chk=     26 Scr=      1
 Normal termination of Gaussian 09 at Fri Sep  2 04:33:35 2022.
