 Entering Gaussian System, Link 0=g09
 Input=Mol10.gjf
 Output=Mol10.log
 Initial command:
 /opt/gaussian/l1.exe /home/scr/lqcapf-6/Gau-55462.inp -scrdir=/home/scr/lqcapf-6/
 Entering Link 1 = /opt/gaussian/l1.exe PID=     55464.
  
 Copyright (c) 1988,1990,1992,1993,1995,1998,2003,2009,2011,
            Gaussian, Inc.  All Rights Reserved.
  
 This is part of the Gaussian(R) 09 program.  It is based on
 the Gaussian(R) 03 system (copyright 2003, Gaussian, Inc.),
 the Gaussian(R) 98 system (copyright 1998, Gaussian, Inc.),
 the Gaussian(R) 94 system (copyright 1995, Gaussian, Inc.),
 the Gaussian 92(TM) system (copyright 1992, Gaussian, Inc.),
 the Gaussian 90(TM) system (copyright 1990, Gaussian, Inc.),
 the Gaussian 88(TM) system (copyright 1988, Gaussian, Inc.),
 the Gaussian 86(TM) system (copyright 1986, Carnegie Mellon
 University), and the Gaussian 82(TM) system (copyright 1983,
 Carnegie Mellon University). Gaussian is a federally registered
 trademark of Gaussian, Inc.
  
 This software contains proprietary and confidential information,
 including trade secrets, belonging to Gaussian, Inc.
  
 This software is provided under written license and may be
 used, copied, transmitted, or stored only in accord with that
 written license.
  
 The following legend is applicable only to US Government
 contracts under FAR:
  
                    RESTRICTED RIGHTS LEGEND
  
 Use, reproduction and disclosure by the US Government is
 subject to restrictions as set forth in subparagraphs (a)
 and (c) of the Commercial Computer Software - Restricted
 Rights clause in FAR 52.227-19.
  
 Gaussian, Inc.
 340 Quinnipiac St., Bldg. 40, Wallingford CT 06492
  
  
 ---------------------------------------------------------------
 Warning -- This program may not be used in any manner that
 competes with the business of Gaussian, Inc. or will provide
 assistance to any competitor of Gaussian, Inc.  The licensee
 of this program is prohibited from giving any competitor of
 Gaussian, Inc. access to this program.  By using this program,
 the user acknowledges that Gaussian, Inc. is engaged in the
 business of creating and licensing software in the field of
 computational chemistry and represents and warrants to the
 licensee that it is not a competitor of Gaussian, Inc. and that
 it will not use this program in any manner prohibited above.
 ---------------------------------------------------------------
  

 Cite this work as:
 Gaussian 09, Revision C.01,
 M. J. Frisch, G. W. Trucks, H. B. Schlegel, G. E. Scuseria, 
 M. A. Robb, J. R. Cheeseman, G. Scalmani, V. Barone, B. Mennucci, 
 G. A. Petersson, H. Nakatsuji, M. Caricato, X. Li, H. P. Hratchian, 
 A. F. Izmaylov, J. Bloino, G. Zheng, J. L. Sonnenberg, M. Hada, 
 M. Ehara, K. Toyota, R. Fukuda, J. Hasegawa, M. Ishida, T. Nakajima, 
 Y. Honda, O. Kitao, H. Nakai, T. Vreven, J. A. Montgomery, Jr., 
 J. E. Peralta, F. Ogliaro, M. Bearpark, J. J. Heyd, E. Brothers, 
 K. N. Kudin, V. N. Staroverov, T. Keith, R. Kobayashi, J. Normand, 
 K. Raghavachari, A. Rendell, J. C. Burant, S. S. Iyengar, J. Tomasi, 
 M. Cossi, N. Rega, J. M. Millam, M. Klene, J. E. Knox, J. B. Cross, 
 V. Bakken, C. Adamo, J. Jaramillo, R. Gomperts, R. E. Stratmann, 
 O. Yazyev, A. J. Austin, R. Cammi, C. Pomelli, J. W. Ochterski, 
 R. L. Martin, K. Morokuma, V. G. Zakrzewski, G. A. Voth, 
 P. Salvador, J. J. Dannenberg, S. Dapprich, A. D. Daniels, 
 O. Farkas, J. B. Foresman, J. V. Ortiz, J. Cioslowski, 
 and D. J. Fox, Gaussian, Inc., Wallingford CT, 2010.
 
 ******************************************
 Gaussian 09:  EM64L-G09RevC.01 23-Sep-2011
                31-Aug-2022 
 ******************************************
 %nprocshared=8
 Will use up to    8 processors via shared memory.
 %mem=1600MB
 -------------------------
 #p opt freq b3lyp/cc-pvdz
 -------------------------
 1/14=-1,18=20,19=15,26=3,38=1/1,3;
 2/9=110,12=2,17=6,18=5,40=1/2;
 3/5=16,11=2,16=1,25=1,30=1,71=1,74=-5/1,2,3;
 4//1;
 5/5=2,38=5/2;
 6/7=2,8=2,9=2,10=2,28=1/1;
 7//1,2,3,16;
 1/14=-1,18=20,19=15/3(2);
 2/9=110/2;
 99//99;
 2/9=110/2;
 3/5=16,11=2,16=1,25=1,30=1,71=1,74=-5/1,2,3;
 4/5=5,16=3/1;
 5/5=2,38=5/2;
 7//1,2,3,16;
 1/14=-1,18=20,19=15/3(-5);
 2/9=110/2;
 6/7=2,8=2,9=2,10=2,19=2,28=1/1;
 99/9=1/99;
 Leave Link    1 at Wed Aug 31 14:08:15 2022, MaxMem=  209715200 cpu:       0.2
 (Enter /opt/gaussian/l101.exe)
 ---------
 Mol10.log
 ---------
 Charge =  0 Multiplicity = 1
 Symbolic Z-Matrix:
 N                     6.83492  -1.10049   0.76393 
 C                     5.78487  -1.93714   0.57846 
 O                     5.92098  -3.15489   0.67844 
 C                     4.46807  -1.33364   0.23234 
 C                     3.50798  -2.15499  -0.35068 
 C                     2.26789  -1.65933  -0.70442 
 C                     1.9549   -0.3256   -0.45761 
 C                     2.90018   0.49459   0.1464 
 C                     4.14749  -0.00647   0.48317 
 N                     0.69367   0.22098  -0.86529 
 C                     0.69799   1.52055  -1.54315 
 C                     0.29457   2.69441  -0.68148 
 C                     0.09074   4.01082  -1.25392 
 C                    -0.25471   4.94628  -0.35702 
 S                    -0.36175   4.27297   1.29464 
 C                     0.09341   2.66814   0.64793 
 C                    -0.47239  -0.46677  -0.61955 
 O                    -0.50676  -1.48411   0.05255 
 C                    -1.75036   0.09902  -1.22788 
 N                    -2.87812  -0.74804  -0.99516 
 N                    -3.30904  -1.57786  -1.98889 
 N                    -4.28675  -2.26669  -1.57021 
 C                    -4.54599  -1.92439  -0.25242 
 C                    -5.51407  -2.39493   0.63374 
 C                    -5.52789  -1.85323   1.89551 
 C                    -4.59335  -0.86307   2.27286 
 C                    -3.63431  -0.39601   1.4062 
 C                    -3.63036  -0.94969   0.12347 
 H                     6.80127  -0.13183   0.57077 
 H                     7.70652  -1.50236   1.01553 
 H                     3.74865  -3.18362  -0.52541 
 H                     1.54235  -2.30753  -1.14618 
 H                     2.66563   1.51544   0.3698 
 H                     4.8427    0.64605   0.97447 
 H                     1.69811   1.67848  -1.92165 
 H                     0.05646   1.48297  -2.41481 
 H                     0.20485   4.21777  -2.29941 
 H                    -0.45999   5.97921  -0.52522 
 H                     0.18535   1.83768   1.31154 
 H                    -1.94656   1.08719  -0.83509 
 H                    -1.64439   0.17762  -2.29961 
 H                    -6.21063  -3.14926   0.32823 
 H                    -6.25223  -2.18377   2.6133 
 H                    -4.63326  -0.4702    3.27027 
 H                    -2.9211    0.34389   1.70882 
 
 NAtoms=     45 NQM=        0 NQMF=       0 NMMI=     45 NMMIF=      0
                NMic=       0 NMicF=      0.
                    Isotopes and Nuclear Properties:
 (Nuclear quadrupole moments (NQMom) in fm**2, nuclear magnetic moments (NMagM)
  in nuclear magnetons)

  Atom         1           2           3           4           5           6           7           8           9          10
 IAtWgt=          14          12          16          12          12          12          12          12          12          14
 AtmWgt=  14.0030740  12.0000000  15.9949146  12.0000000  12.0000000  12.0000000  12.0000000  12.0000000  12.0000000  14.0030740
 NucSpn=           2           0           0           0           0           0           0           0           0           2
 AtZEff=   0.0000000   0.0000000   0.0000000   0.0000000   0.0000000   0.0000000   0.0000000   0.0000000   0.0000000   0.0000000
 NQMom=    2.0440000   0.0000000   0.0000000   0.0000000   0.0000000   0.0000000   0.0000000   0.0000000   0.0000000   2.0440000
 NMagM=    0.4037610   0.0000000   0.0000000   0.0000000   0.0000000   0.0000000   0.0000000   0.0000000   0.0000000   0.4037610

  Atom        11          12          13          14          15          16          17          18          19          20
 IAtWgt=          12          12          12          12          32          12          12          16          12          14
 AtmWgt=  12.0000000  12.0000000  12.0000000  12.0000000  31.9720718  12.0000000  12.0000000  15.9949146  12.0000000  14.0030740
 NucSpn=           0           0           0           0           0           0           0           0           0           2
 AtZEff=   0.0000000   0.0000000   0.0000000   0.0000000   0.0000000   0.0000000   0.0000000   0.0000000   0.0000000   0.0000000
 NQMom=    0.0000000   0.0000000   0.0000000   0.0000000   0.0000000   0.0000000   0.0000000   0.0000000   0.0000000   2.0440000
 NMagM=    0.0000000   0.0000000   0.0000000   0.0000000   0.0000000   0.0000000   0.0000000   0.0000000   0.0000000   0.4037610

  Atom        21          22          23          24          25          26          27          28          29          30
 IAtWgt=          14          14          12          12          12          12          12          12           1           1
 AtmWgt=  14.0030740  14.0030740  12.0000000  12.0000000  12.0000000  12.0000000  12.0000000  12.0000000   1.0078250   1.0078250
 NucSpn=           2           2           0           0           0           0           0           0           1           1
 AtZEff=   0.0000000   0.0000000   0.0000000   0.0000000   0.0000000   0.0000000   0.0000000   0.0000000   0.0000000   0.0000000
 NQMom=    2.0440000   2.0440000   0.0000000   0.0000000   0.0000000   0.0000000   0.0000000   0.0000000   0.0000000   0.0000000
 NMagM=    0.4037610   0.4037610   0.0000000   0.0000000   0.0000000   0.0000000   0.0000000   0.0000000   2.7928460   2.7928460

  Atom        31          32          33          34          35          36          37          38          39          40
 IAtWgt=           1           1           1           1           1           1           1           1           1           1
 AtmWgt=   1.0078250   1.0078250   1.0078250   1.0078250   1.0078250   1.0078250   1.0078250   1.0078250   1.0078250   1.0078250
 NucSpn=           1           1           1           1           1           1           1           1           1           1
 AtZEff=   0.0000000   0.0000000   0.0000000   0.0000000   0.0000000   0.0000000   0.0000000   0.0000000   0.0000000   0.0000000
 NQMom=    0.0000000   0.0000000   0.0000000   0.0000000   0.0000000   0.0000000   0.0000000   0.0000000   0.0000000   0.0000000
 NMagM=    2.7928460   2.7928460   2.7928460   2.7928460   2.7928460   2.7928460   2.7928460   2.7928460   2.7928460   2.7928460

  Atom        41          42          43          44          45
 IAtWgt=           1           1           1           1           1
 AtmWgt=   1.0078250   1.0078250   1.0078250   1.0078250   1.0078250
 NucSpn=           1           1           1           1           1
 AtZEff=   0.0000000   0.0000000   0.0000000   0.0000000   0.0000000
 NQMom=    0.0000000   0.0000000   0.0000000   0.0000000   0.0000000
 NMagM=    2.7928460   2.7928460   2.7928460   2.7928460   2.7928460
 Leave Link  101 at Wed Aug 31 14:08:16 2022, MaxMem=  209715200 cpu:       0.9
 (Enter /opt/gaussian/l103.exe)

 GradGradGradGradGradGradGradGradGradGradGradGradGradGradGradGradGradGrad
 Berny optimization.
 Initialization pass.
                           ----------------------------
                           !    Initial Parameters    !
                           ! (Angstroms and Degrees)  !
 --------------------------                            --------------------------
 ! Name  Definition              Value          Derivative Info.                !
 --------------------------------------------------------------------------------
 ! R1    R(1,2)                  1.3554         estimate D2E/DX2                !
 ! R2    R(1,29)                 0.9883         estimate D2E/DX2                !
 ! R3    R(1,30)                 0.9922         estimate D2E/DX2                !
 ! R4    R(2,3)                  1.2294         estimate D2E/DX2                !
 ! R5    R(2,4)                  1.4893         estimate D2E/DX2                !
 ! R6    R(4,5)                  1.3915         estimate D2E/DX2                !
 ! R7    R(4,9)                  1.3882         estimate D2E/DX2                !
 ! R8    R(5,6)                  1.3815         estimate D2E/DX2                !
 ! R9    R(5,31)                 1.0708         estimate D2E/DX2                !
 ! R10   R(6,7)                  1.392          estimate D2E/DX2                !
 ! R11   R(6,32)                 1.0685         estimate D2E/DX2                !
 ! R12   R(7,8)                  1.3896         estimate D2E/DX2                !
 ! R13   R(7,10)                 1.4338         estimate D2E/DX2                !
 ! R14   R(8,9)                  1.3857         estimate D2E/DX2                !
 ! R15   R(8,33)                 1.071          estimate D2E/DX2                !
 ! R16   R(9,34)                 1.0726         estimate D2E/DX2                !
 ! R17   R(10,11)                1.4657         estimate D2E/DX2                !
 ! R18   R(10,17)                1.3759         estimate D2E/DX2                !
 ! R19   R(11,12)                1.511          estimate D2E/DX2                !
 ! R20   R(11,35)                1.0809         estimate D2E/DX2                !
 ! R21   R(11,36)                1.0829         estimate D2E/DX2                !
 ! R22   R(12,13)                1.4499         estimate D2E/DX2                !
 ! R23   R(12,16)                1.3448         estimate D2E/DX2                !
 ! R24   R(13,14)                1.3412         estimate D2E/DX2                !
 ! R25   R(13,37)                1.0719         estimate D2E/DX2                !
 ! R26   R(14,15)                1.7868         estimate D2E/DX2                !
 ! R27   R(14,38)                1.0665         estimate D2E/DX2                !
 ! R28   R(15,16)                1.7891         estimate D2E/DX2                !
 ! R29   R(16,39)                1.067          estimate D2E/DX2                !
 ! R30   R(17,18)                1.2198         estimate D2E/DX2                !
 ! R31   R(17,19)                1.5243         estimate D2E/DX2                !
 ! R32   R(19,20)                1.4295         estimate D2E/DX2                !
 ! R33   R(19,40)                1.0813         estimate D2E/DX2                !
 ! R34   R(19,41)                1.0798         estimate D2E/DX2                !
 ! R35   R(20,21)                1.3645         estimate D2E/DX2                !
 ! R36   R(20,28)                1.363          estimate D2E/DX2                !
 ! R37   R(21,22)                1.2672         estimate D2E/DX2                !
 ! R38   R(22,23)                1.386          estimate D2E/DX2                !
 ! R39   R(23,24)                1.3942         estimate D2E/DX2                !
 ! R40   R(23,28)                1.3891         estimate D2E/DX2                !
 ! R41   R(24,25)                1.3732         estimate D2E/DX2                !
 ! R42   R(24,42)                1.0712         estimate D2E/DX2                !
 ! R43   R(25,26)                1.4129         estimate D2E/DX2                !
 ! R44   R(25,43)                1.072          estimate D2E/DX2                !
 ! R45   R(26,27)                1.3744         estimate D2E/DX2                !
 ! R46   R(26,44)                1.0727         estimate D2E/DX2                !
 ! R47   R(27,28)                1.3971         estimate D2E/DX2                !
 ! R48   R(27,45)                1.0713         estimate D2E/DX2                !
 ! A1    A(2,1,29)             123.4974         estimate D2E/DX2                !
 ! A2    A(2,1,30)             117.7261         estimate D2E/DX2                !
 ! A3    A(29,1,30)            118.4533         estimate D2E/DX2                !
 ! A4    A(1,2,3)              120.9666         estimate D2E/DX2                !
 ! A5    A(1,2,4)              117.8185         estimate D2E/DX2                !
 ! A6    A(3,2,4)              121.21           estimate D2E/DX2                !
 ! A7    A(2,4,5)              117.92           estimate D2E/DX2                !
 ! A8    A(2,4,9)              123.3403         estimate D2E/DX2                !
 ! A9    A(5,4,9)              118.73           estimate D2E/DX2                !
 ! A10   A(4,5,6)              120.9863         estimate D2E/DX2                !
 ! A11   A(4,5,31)             118.7066         estimate D2E/DX2                !
 ! A12   A(6,5,31)             120.3067         estimate D2E/DX2                !
 ! A13   A(5,6,7)              120.0119         estimate D2E/DX2                !
 ! A14   A(5,6,32)             119.8487         estimate D2E/DX2                !
 ! A15   A(7,6,32)             120.1234         estimate D2E/DX2                !
 ! A16   A(6,7,8)              119.3157         estimate D2E/DX2                !
 ! A17   A(6,7,10)             120.8395         estimate D2E/DX2                !
 ! A18   A(8,7,10)             119.7996         estimate D2E/DX2                !
 ! A19   A(7,8,9)              120.2984         estimate D2E/DX2                !
 ! A20   A(7,8,33)             120.2829         estimate D2E/DX2                !
 ! A21   A(9,8,33)             119.4117         estimate D2E/DX2                !
 ! A22   A(4,9,8)              120.6402         estimate D2E/DX2                !
 ! A23   A(4,9,34)             120.9771         estimate D2E/DX2                !
 ! A24   A(8,9,34)             118.3433         estimate D2E/DX2                !
 ! A25   A(7,10,11)            117.834          estimate D2E/DX2                !
 ! A26   A(7,10,17)            120.2764         estimate D2E/DX2                !
 ! A27   A(11,10,17)           121.8896         estimate D2E/DX2                !
 ! A28   A(10,11,12)           115.1051         estimate D2E/DX2                !
 ! A29   A(10,11,35)           107.1098         estimate D2E/DX2                !
 ! A30   A(10,11,36)           109.8603         estimate D2E/DX2                !
 ! A31   A(12,11,35)           109.4631         estimate D2E/DX2                !
 ! A32   A(12,11,36)           109.1352         estimate D2E/DX2                !
 ! A33   A(35,11,36)           105.7434         estimate D2E/DX2                !
 ! A34   A(11,12,13)           121.1805         estimate D2E/DX2                !
 ! A35   A(11,12,16)           126.0502         estimate D2E/DX2                !
 ! A36   A(13,12,16)           112.7683         estimate D2E/DX2                !
 ! A37   A(12,13,14)           113.9193         estimate D2E/DX2                !
 ! A38   A(12,13,37)           123.0544         estimate D2E/DX2                !
 ! A39   A(14,13,37)           123.0262         estimate D2E/DX2                !
 ! A40   A(13,14,15)           111.7615         estimate D2E/DX2                !
 ! A41   A(13,14,38)           128.29           estimate D2E/DX2                !
 ! A42   A(15,14,38)           119.9482         estimate D2E/DX2                !
 ! A43   A(14,15,16)            89.3491         estimate D2E/DX2                !
 ! A44   A(12,16,15)           112.2017         estimate D2E/DX2                !
 ! A45   A(12,16,39)           128.1073         estimate D2E/DX2                !
 ! A46   A(15,16,39)           119.6866         estimate D2E/DX2                !
 ! A47   A(10,17,18)           122.6283         estimate D2E/DX2                !
 ! A48   A(10,17,19)           116.9833         estimate D2E/DX2                !
 ! A49   A(18,17,19)           120.3884         estimate D2E/DX2                !
 ! A50   A(17,19,20)           112.1181         estimate D2E/DX2                !
 ! A51   A(17,19,40)           110.2652         estimate D2E/DX2                !
 ! A52   A(17,19,41)           109.9284         estimate D2E/DX2                !
 ! A53   A(20,19,40)           109.8297         estimate D2E/DX2                !
 ! A54   A(20,19,41)           106.3873         estimate D2E/DX2                !
 ! A55   A(40,19,41)           108.1686         estimate D2E/DX2                !
 ! A56   A(19,20,21)           119.4032         estimate D2E/DX2                !
 ! A57   A(19,20,28)           131.0455         estimate D2E/DX2                !
 ! A58   A(21,20,28)           109.4773         estimate D2E/DX2                !
 ! A59   A(20,21,22)           109.4898         estimate D2E/DX2                !
 ! A60   A(21,22,23)           108.9181         estimate D2E/DX2                !
 ! A61   A(22,23,24)           130.6052         estimate D2E/DX2                !
 ! A62   A(22,23,28)           107.8955         estimate D2E/DX2                !
 ! A63   A(24,23,28)           121.4992         estimate D2E/DX2                !
 ! A64   A(23,24,25)           117.2497         estimate D2E/DX2                !
 ! A65   A(23,24,42)           120.5225         estimate D2E/DX2                !
 ! A66   A(25,24,42)           122.2277         estimate D2E/DX2                !
 ! A67   A(24,25,26)           121.0115         estimate D2E/DX2                !
 ! A68   A(24,25,43)           120.0277         estimate D2E/DX2                !
 ! A69   A(26,25,43)           118.9602         estimate D2E/DX2                !
 ! A70   A(25,26,27)           122.0929         estimate D2E/DX2                !
 ! A71   A(25,26,44)           118.7103         estimate D2E/DX2                !
 ! A72   A(27,26,44)           119.1958         estimate D2E/DX2                !
 ! A73   A(26,27,28)           116.5025         estimate D2E/DX2                !
 ! A74   A(26,27,45)           121.4075         estimate D2E/DX2                !
 ! A75   A(28,27,45)           122.0845         estimate D2E/DX2                !
 ! A76   A(20,28,23)           104.2114         estimate D2E/DX2                !
 ! A77   A(20,28,27)           134.1407         estimate D2E/DX2                !
 ! A78   A(23,28,27)           121.6438         estimate D2E/DX2                !
 ! D1    D(29,1,2,3)           171.1415         estimate D2E/DX2                !
 ! D2    D(29,1,2,4)            -8.0571         estimate D2E/DX2                !
 ! D3    D(30,1,2,3)            -2.2178         estimate D2E/DX2                !
 ! D4    D(30,1,2,4)           178.5835         estimate D2E/DX2                !
 ! D5    D(1,2,4,5)            160.7354         estimate D2E/DX2                !
 ! D6    D(1,2,4,9)            -20.4164         estimate D2E/DX2                !
 ! D7    D(3,2,4,5)            -18.4613         estimate D2E/DX2                !
 ! D8    D(3,2,4,9)            160.387          estimate D2E/DX2                !
 ! D9    D(2,4,5,6)           -179.6169         estimate D2E/DX2                !
 ! D10   D(2,4,5,31)             0.1519         estimate D2E/DX2                !
 ! D11   D(9,4,5,6)              1.4803         estimate D2E/DX2                !
 ! D12   D(9,4,5,31)          -178.7508         estimate D2E/DX2                !
 ! D13   D(2,4,9,8)           -179.5188         estimate D2E/DX2                !
 ! D14   D(2,4,9,34)            -1.8414         estimate D2E/DX2                !
 ! D15   D(5,4,9,8)             -0.6794         estimate D2E/DX2                !
 ! D16   D(5,4,9,34)           176.9981         estimate D2E/DX2                !
 ! D17   D(4,5,6,7)             -1.1222         estimate D2E/DX2                !
 ! D18   D(4,5,6,32)          -179.6701         estimate D2E/DX2                !
 ! D19   D(31,5,6,7)           179.1126         estimate D2E/DX2                !
 ! D20   D(31,5,6,32)            0.5647         estimate D2E/DX2                !
 ! D21   D(5,6,7,8)             -0.0522         estimate D2E/DX2                !
 ! D22   D(5,6,7,10)           177.4975         estimate D2E/DX2                !
 ! D23   D(32,6,7,8)           178.4918         estimate D2E/DX2                !
 ! D24   D(32,6,7,10)           -3.9586         estimate D2E/DX2                !
 ! D25   D(6,7,8,9)              0.8422         estimate D2E/DX2                !
 ! D26   D(6,7,8,33)          -178.1885         estimate D2E/DX2                !
 ! D27   D(10,7,8,9)          -176.7334         estimate D2E/DX2                !
 ! D28   D(10,7,8,33)            4.2359         estimate D2E/DX2                !
 ! D29   D(6,7,10,11)         -134.0059         estimate D2E/DX2                !
 ! D30   D(6,7,10,17)           45.9922         estimate D2E/DX2                !
 ! D31   D(8,7,10,11)           43.532          estimate D2E/DX2                !
 ! D32   D(8,7,10,17)         -136.4699         estimate D2E/DX2                !
 ! D33   D(7,8,9,4)             -0.4731         estimate D2E/DX2                !
 ! D34   D(7,8,9,34)          -178.2106         estimate D2E/DX2                !
 ! D35   D(33,8,9,4)           178.566          estimate D2E/DX2                !
 ! D36   D(33,8,9,34)            0.8285         estimate D2E/DX2                !
 ! D37   D(7,10,11,12)        -102.3132         estimate D2E/DX2                !
 ! D38   D(7,10,11,35)          19.6402         estimate D2E/DX2                !
 ! D39   D(7,10,11,36)         134.0359         estimate D2E/DX2                !
 ! D40   D(17,10,11,12)         77.6887         estimate D2E/DX2                !
 ! D41   D(17,10,11,35)       -160.3579         estimate D2E/DX2                !
 ! D42   D(17,10,11,36)        -45.9621         estimate D2E/DX2                !
 ! D43   D(7,10,17,18)           7.1369         estimate D2E/DX2                !
 ! D44   D(7,10,17,19)        -172.9406         estimate D2E/DX2                !
 ! D45   D(11,10,17,18)       -172.8651         estimate D2E/DX2                !
 ! D46   D(11,10,17,19)          7.0574         estimate D2E/DX2                !
 ! D47   D(10,11,12,13)       -172.1827         estimate D2E/DX2                !
 ! D48   D(10,11,12,16)          8.2078         estimate D2E/DX2                !
 ! D49   D(35,11,12,13)         67.1423         estimate D2E/DX2                !
 ! D50   D(35,11,12,16)       -112.4672         estimate D2E/DX2                !
 ! D51   D(36,11,12,13)        -48.1489         estimate D2E/DX2                !
 ! D52   D(36,11,12,16)        132.2415         estimate D2E/DX2                !
 ! D53   D(11,12,13,14)       -179.5496         estimate D2E/DX2                !
 ! D54   D(11,12,13,37)          0.5042         estimate D2E/DX2                !
 ! D55   D(16,12,13,14)          0.108          estimate D2E/DX2                !
 ! D56   D(16,12,13,37)       -179.8381         estimate D2E/DX2                !
 ! D57   D(11,12,16,15)        179.5477         estimate D2E/DX2                !
 ! D58   D(11,12,16,39)          0.3262         estimate D2E/DX2                !
 ! D59   D(13,12,16,15)         -0.09           estimate D2E/DX2                !
 ! D60   D(13,12,16,39)       -179.3115         estimate D2E/DX2                !
 ! D61   D(12,13,14,15)         -0.0732         estimate D2E/DX2                !
 ! D62   D(12,13,14,38)       -179.8606         estimate D2E/DX2                !
 ! D63   D(37,13,14,15)        179.873          estimate D2E/DX2                !
 ! D64   D(37,13,14,38)          0.0856         estimate D2E/DX2                !
 ! D65   D(13,14,15,16)          0.0194         estimate D2E/DX2                !
 ! D66   D(38,14,15,16)        179.8268         estimate D2E/DX2                !
 ! D67   D(14,15,16,12)          0.0423         estimate D2E/DX2                !
 ! D68   D(14,15,16,39)        179.3372         estimate D2E/DX2                !
 ! D69   D(10,17,19,20)        175.5098         estimate D2E/DX2                !
 ! D70   D(10,17,19,40)        -61.7798         estimate D2E/DX2                !
 ! D71   D(10,17,19,41)         57.3917         estimate D2E/DX2                !
 ! D72   D(18,17,19,20)         -4.5659         estimate D2E/DX2                !
 ! D73   D(18,17,19,40)        118.1446         estimate D2E/DX2                !
 ! D74   D(18,17,19,41)       -122.684          estimate D2E/DX2                !
 ! D75   D(17,19,20,21)       -100.339          estimate D2E/DX2                !
 ! D76   D(17,19,20,28)         76.1729         estimate D2E/DX2                !
 ! D77   D(40,19,20,21)        136.7043         estimate D2E/DX2                !
 ! D78   D(40,19,20,28)        -46.7839         estimate D2E/DX2                !
 ! D79   D(41,19,20,21)         19.8611         estimate D2E/DX2                !
 ! D80   D(41,19,20,28)       -163.6271         estimate D2E/DX2                !
 ! D81   D(19,20,21,22)        178.0736         estimate D2E/DX2                !
 ! D82   D(28,20,21,22)          0.8634         estimate D2E/DX2                !
 ! D83   D(19,20,28,23)       -177.6735         estimate D2E/DX2                !
 ! D84   D(19,20,28,27)          3.0925         estimate D2E/DX2                !
 ! D85   D(21,20,28,23)         -0.8965         estimate D2E/DX2                !
 ! D86   D(21,20,28,27)        179.8695         estimate D2E/DX2                !
 ! D87   D(20,21,22,23)         -0.4329         estimate D2E/DX2                !
 ! D88   D(21,22,23,24)        179.7555         estimate D2E/DX2                !
 ! D89   D(21,22,23,28)         -0.1374         estimate D2E/DX2                !
 ! D90   D(22,23,24,25)       -179.765          estimate D2E/DX2                !
 ! D91   D(22,23,24,42)          0.3096         estimate D2E/DX2                !
 ! D92   D(28,23,24,25)          0.1155         estimate D2E/DX2                !
 ! D93   D(28,23,24,42)       -179.8099         estimate D2E/DX2                !
 ! D94   D(22,23,28,20)          0.6342         estimate D2E/DX2                !
 ! D95   D(22,23,28,27)        179.9885         estimate D2E/DX2                !
 ! D96   D(24,23,28,20)       -179.2705         estimate D2E/DX2                !
 ! D97   D(24,23,28,27)          0.0838         estimate D2E/DX2                !
 ! D98   D(23,24,25,26)         -0.1793         estimate D2E/DX2                !
 ! D99   D(23,24,25,43)       -179.8901         estimate D2E/DX2                !
 ! D100  D(42,24,25,26)        179.7448         estimate D2E/DX2                !
 ! D101  D(42,24,25,43)          0.034          estimate D2E/DX2                !
 ! D102  D(24,25,26,27)          0.0484         estimate D2E/DX2                !
 ! D103  D(24,25,26,44)       -179.5765         estimate D2E/DX2                !
 ! D104  D(43,25,26,27)        179.7622         estimate D2E/DX2                !
 ! D105  D(43,25,26,44)          0.1373         estimate D2E/DX2                !
 ! D106  D(25,26,27,28)          0.1474         estimate D2E/DX2                !
 ! D107  D(25,26,27,45)       -179.0105         estimate D2E/DX2                !
 ! D108  D(44,26,27,28)        179.7705         estimate D2E/DX2                !
 ! D109  D(44,26,27,45)          0.6127         estimate D2E/DX2                !
 ! D110  D(26,27,28,20)        178.9162         estimate D2E/DX2                !
 ! D111  D(26,27,28,23)         -0.2116         estimate D2E/DX2                !
 ! D112  D(45,27,28,20)         -1.9322         estimate D2E/DX2                !
 ! D113  D(45,27,28,23)        178.9401         estimate D2E/DX2                !
 --------------------------------------------------------------------------------
 Trust Radius=3.00D-01 FncErr=1.00D-07 GrdErr=1.00D-06
 Number of steps in this run=    249 maximum allowed number of steps=    270.
 GradGradGradGradGradGradGradGradGradGradGradGradGradGradGradGradGradGrad

 Leave Link  103 at Wed Aug 31 14:08:16 2022, MaxMem=  209715200 cpu:       0.1
 (Enter /opt/gaussian/l202.exe)
                          Input orientation:                          
 ---------------------------------------------------------------------
 Center     Atomic      Atomic             Coordinates (Angstroms)
 Number     Number       Type             X           Y           Z
 ---------------------------------------------------------------------
      1          7           0        6.834920   -1.100490    0.763930
      2          6           0        5.784870   -1.937140    0.578460
      3          8           0        5.920980   -3.154890    0.678440
      4          6           0        4.468070   -1.333640    0.232340
      5          6           0        3.507980   -2.154990   -0.350680
      6          6           0        2.267890   -1.659330   -0.704420
      7          6           0        1.954900   -0.325600   -0.457610
      8          6           0        2.900180    0.494590    0.146400
      9          6           0        4.147490   -0.006470    0.483170
     10          7           0        0.693670    0.220980   -0.865290
     11          6           0        0.697990    1.520550   -1.543150
     12          6           0        0.294570    2.694410   -0.681480
     13          6           0        0.090740    4.010820   -1.253920
     14          6           0       -0.254710    4.946280   -0.357020
     15         16           0       -0.361750    4.272970    1.294640
     16          6           0        0.093410    2.668140    0.647930
     17          6           0       -0.472390   -0.466770   -0.619550
     18          8           0       -0.506760   -1.484110    0.052550
     19          6           0       -1.750360    0.099020   -1.227880
     20          7           0       -2.878120   -0.748040   -0.995160
     21          7           0       -3.309040   -1.577860   -1.988890
     22          7           0       -4.286750   -2.266690   -1.570210
     23          6           0       -4.545990   -1.924390   -0.252420
     24          6           0       -5.514070   -2.394930    0.633740
     25          6           0       -5.527890   -1.853230    1.895510
     26          6           0       -4.593350   -0.863070    2.272860
     27          6           0       -3.634310   -0.396010    1.406200
     28          6           0       -3.630360   -0.949690    0.123470
     29          1           0        6.801270   -0.131830    0.570770
     30          1           0        7.706520   -1.502360    1.015530
     31          1           0        3.748650   -3.183620   -0.525410
     32          1           0        1.542350   -2.307530   -1.146180
     33          1           0        2.665630    1.515440    0.369800
     34          1           0        4.842700    0.646050    0.974470
     35          1           0        1.698110    1.678480   -1.921650
     36          1           0        0.056460    1.482970   -2.414810
     37          1           0        0.204850    4.217770   -2.299410
     38          1           0       -0.459990    5.979210   -0.525220
     39          1           0        0.185350    1.837680    1.311540
     40          1           0       -1.946560    1.087190   -0.835090
     41          1           0       -1.644390    0.177620   -2.299610
     42          1           0       -6.210630   -3.149260    0.328230
     43          1           0       -6.252230   -2.183770    2.613300
     44          1           0       -4.633260   -0.470200    3.270270
     45          1           0       -2.921100    0.343890    1.708820
 ---------------------------------------------------------------------
                    Distance matrix (angstroms):
                    1          2          3          4          5
     1  N    0.000000
     2  C    1.355355   0.000000
     3  O    2.250145   1.229405   0.000000
     4  C    2.436991   1.489286   2.372110   0.000000
     5  C    3.663722   2.468803   2.807393   1.391510   0.000000
     6  C    4.829712   3.753946   4.182591   2.413376   1.381533
     7  C    5.089913   4.282426   5.002528   2.794315   2.402116
     8  C    4.290431   3.797555   4.767285   2.409998   2.763473
     9  C    2.915131   2.533294   3.618832   1.388189   2.391739
    10  N    6.489653   5.715086   6.411269   4.227024   3.718924
    11  C    7.060763   6.506397   7.353559   5.050967   4.777826
    12  C    7.698484   7.292606   8.229227   5.871827   5.826844
    13  C    8.699493   8.435577   9.437855   7.066346   7.107080
    14  C    9.385244   9.205059  10.239154   7.879682   8.036536
    15  S    8.997099   8.766945   9.748103   7.475943   7.681182
    16  C    7.724247   7.321622   8.238275   5.943451   5.993254
    17  C    7.464074   6.538388   7.055916   5.087762   4.331942
    18  O    7.386034   6.329805   6.670763   4.980351   4.090331
    19  C    8.894558   8.011773   8.548184   6.546268   5.787934
    20  N    9.877336   8.884685   9.274590   7.471023   6.570931
    21  N   10.521684   9.456192   9.736269   8.091783   7.034811
    22  N   11.423650  10.303539  10.490142   8.987026   7.890345
    23  C   11.455867  10.364227  10.580080   9.046395   8.057870
    24  C   12.417330  11.308345  11.460362  10.046421   9.078769
    25  C   12.437289  11.389478  11.586725  10.146690   9.315760
    26  C   11.529900  10.570339  10.878683   9.300241   8.612988
    27  C   10.512544   9.580250   9.972192   8.240489   7.562602
    28  C   10.485944   9.477797   9.818299   8.108257   7.254892
    29  H    0.988304   2.071780   3.150460   2.646262   3.973412
    30  H    0.992214   2.018119   2.456143   3.336077   4.463204
    31  H    3.940418   2.630291   2.483767   2.124659   1.070762
    32  H    5.754717   4.594622   4.818678   3.377664   2.125980
    33  H    4.937753   4.657629   5.701276   3.374158   3.834149
    34  H    2.657756   2.778017   3.962003   2.147156   3.373918
    35  H    6.428206   6.002072   6.924923   4.624415   4.520959
    36  H    7.919986   7.312421   8.091387   5.865407   5.422949
    37  H    9.034698   8.792137   9.792745   7.443316   7.437761
    38  H   10.246940  10.143224  11.207023   8.850844   9.052097
    39  H    7.290370   6.792739   7.630467   5.437245   5.453830
    40  H    9.190060   8.421384   9.065550   6.938826   6.363835
    41  H    9.105907   8.243143   8.786878   6.786519   5.982166
    42  H   13.212633  12.059182  12.136665  10.832373   9.792899
    43  H   13.261492  12.210372  12.364214  11.014378  10.200378
    44  H   11.755771  10.859797  11.194513   9.633730   9.068053
    45  H    9.907521   9.070542   9.564806   7.719711   7.198542
                    6          7          8          9         10
     6  C    0.000000
     7  C    1.392018   0.000000
     8  C    2.400637   1.389638   0.000000
     9  C    2.770417   2.407148   1.385734   0.000000
    10  N    2.457563   1.433755   2.442758   3.714694   0.000000
    11  C    3.644131   2.483242   2.959191   4.282151   1.465740
    12  C    4.780122   3.453589   3.509102   4.847283   2.512155
    13  C    6.098568   4.786830   4.713568   5.967690   3.857129
    14  C    7.079427   5.717098   5.479444   6.679447   4.846259
    15  S    6.789951   5.439126   5.121992   6.269397   4.711458
    16  C    5.028341   3.694569   3.585221   4.859655   2.939173
    17  C    2.989739   2.436779   3.589585   4.771914   1.375894
    18  O    2.881387   2.768064   3.940977   4.902132   2.278331
    19  C    4.417255   3.808224   4.865454   6.141942   2.473788
    20  N    5.234157   4.881137   6.019638   7.217658   3.703181
    21  N    5.723517   5.623348   6.885414   8.011254   4.529900
    22  N    6.639411   6.630528   7.888180   8.970026   5.611595
    23  C    6.833997   6.697746   7.839386   8.932867   5.694933
    24  C    7.930364   7.826793   8.909906   9.953550   6.901167
    25  C    8.220184   7.991431   8.922108   9.950789   7.115629
    26  C    7.521625   7.115049   7.906837   8.963205   6.243055
    27  C    6.394268   5.892199   6.714151   7.846027   4.926637
    28  C    5.998195   5.649980   6.688380   7.843086   4.587521
    29  H    4.950848   4.958066   3.973789   2.658183   6.284069
    30  H    5.706274   6.052771   5.276751   3.897151   7.462402
    31  H    2.132640   3.374969   3.834118   3.357170   4.586908
    32  H    1.068515   2.138311   3.371401   3.838804   2.681887
    33  H    3.375102   2.139900   1.071007   2.127198   2.662649
    34  H    3.842277   3.366652   2.117079   1.072602   4.558492
    35  H    3.598232   2.495133   2.668970   3.823830   2.061335
    36  H    4.205937   3.271946   3.952649   5.230033   2.097538
    37  H    6.429653   5.205489   5.206617   6.413374   4.274339
    38  H    8.112998   6.751807   6.467061   7.620636   5.882499
    39  H    4.542042   3.307715   3.245265   4.448105   2.758749
    40  H    5.032101   4.166516   4.980501   6.330193   2.778857
    41  H    4.607055   4.074443   5.170740   6.428346   2.743297
    42  H    8.670153   8.675626   9.814151  10.825515   7.775112
    43  H    9.158316   8.957693   9.850168  10.836617   8.131970
    44  H    8.052209   7.571120   8.212314   9.224128   6.779142
    45  H    6.063187   5.377454   6.029193   7.182613   4.439337
                   11         12         13         14         15
    11  C    0.000000
    12  C    1.511016   0.000000
    13  C    2.579506   1.449886   0.000000
    14  C    3.748355   2.340492   1.341212   0.000000
    15  S    4.092911   2.612979   2.601659   1.786836   0.000000
    16  C    2.546235   1.344800   2.328053   2.514167   1.789101
    17  C    2.484405   3.253478   4.557231   5.423783   5.112876
    18  O    3.609108   4.317518   5.679624   6.448348   5.891331
    19  C    2.848607   3.349081   4.323483   5.146970   5.070819
    20  N    4.270288   4.691995   5.614965   6.301967   6.065133
    21  N    5.084793   5.740001   6.582707   7.386226   7.328049
    22  N    6.260316   6.811083   7.659608   8.352012   8.147401
    23  C    6.405694   6.704359   7.597959   8.101366   7.636002
    24  C    7.658951   7.833995   8.718417   9.084924   8.452460
    25  C    7.871998   7.824509   8.710625   8.894586   8.036191
    26  C    6.945636   6.728711   7.624545   7.712886   6.726237
    27  C    5.580384   5.417121   6.353927   6.562827   5.702760
    28  C    5.254933   5.415947   6.352200   6.810899   6.271493
    29  H    6.667012   7.203673   8.094582   8.742703   8.440089
    30  H    8.050113   8.685029   9.671901  10.336829   9.926194
    31  H    5.698380   6.819550   8.103765   9.063692   8.706819
    32  H    3.940143   5.176128   6.483851   7.514650   7.272288
    33  H    2.744269   2.849050   3.936172   4.563695   4.198134
    34  H    4.927655   5.255800   6.234463   6.800620   6.351642
    35  H    1.080946   2.130742   2.910208   4.115834   4.617242
    36  H    1.082942   2.128078   2.781882   4.040525   4.660367
    37  H    2.844312   2.224044   1.071867   2.124806   3.638857
    38  H    4.717706   3.373972   2.169992   1.066478   2.496557
    39  H    2.917641   2.172106   3.363491   3.555438   2.496045
    40  H    2.771785   2.762140   3.587983   4.240694   4.146874
    41  H    2.804004   3.565409   4.335616   5.333384   5.597829
    42  H    8.546240   8.802592   9.668361  10.073744   9.499097
    43  H    8.905258   8.804136   9.672725   9.779093   8.838898
    44  H    7.453477   7.065026   7.928683   7.852846   6.681809
    45  H    5.005762   4.645322   5.594228   5.706078   4.707386
                   16         17         18         19         20
    16  C    0.000000
    17  C    3.428454   0.000000
    18  O    4.237436   1.219787   0.000000
    19  C    3.676755   1.524267   2.385863   0.000000
    20  N    4.816640   2.451068   2.694966   1.429515   0.000000
    21  N    6.046321   3.340089   3.468291   2.412581   1.364475
    22  N    6.961214   4.323518   4.187375   3.485262   2.149702
    23  C    6.589840   4.342080   4.074584   3.586260   2.171924
    24  C    7.555045   5.541396   5.122551   4.883741   3.509102
    25  C    7.321083   5.814282   5.361390   5.276038   4.074150
    26  C    6.088970   5.050287   4.692087   4.611224   3.692587
    27  C    4.884658   3.755850   3.577415   3.276080   2.542101
    28  C    5.218258   3.279949   3.169781   2.541720   1.363034
    29  H    7.269193   7.378020   7.450135   8.741785   9.824584
    30  H    8.688363   8.404790   8.269561   9.850375  10.800300
    31  H    6.998614   5.020689   4.618537   6.442694   7.075789
    32  H    5.484118   2.779373   2.512733   4.079227   4.689922
    33  H    2.832382   3.841242   4.377443   4.905078   6.141630
    34  H    5.172159   5.659457   5.831315   6.972663   8.089128
    35  H    3.187041   3.317926   4.331385   3.855899   5.261964
    36  H    3.284261   2.702615   3.899826   2.566850   3.950262
    37  H    3.331754   5.022499   6.208828   4.683495   5.988743
    38  H    3.556082   6.446682   7.485797   6.060975   7.164083
    39  H    1.067003   3.077697   3.619166   3.635735   4.625112
    40  H    2.976614   2.152772   3.077745   1.081323   2.064339
    41  H    4.232095   2.147423   3.096483   1.079821   2.020031
    42  H    8.584013   6.404798   5.948349   5.732958   4.315419
    43  H    8.226230   6.841488   6.329091   6.342919   5.144601
    44  H    6.250380   5.695924   5.330079   5.372939   4.620780
    45  H    3.951569   3.474861   3.451645   3.170931   2.916448
                   21         22         23         24         25
    21  N    0.000000
    22  N    1.267161   0.000000
    23  C    2.159967   1.385982   0.000000
    24  C    3.522492   2.525897   1.394226   0.000000
    25  C    4.481929   3.704402   2.362794   1.373206   0.000000
    26  C    4.508092   4.102845   2.739650   2.425084   1.412861
    27  C    3.609599   3.575491   2.432720   2.850592   2.438967
    28  C    2.227085   2.243633   1.389141   2.428468   2.749024
    29  H   10.529066  11.492850  11.517431  12.521709  12.519039
    30  H   11.418179  12.292631  12.325170  13.256185  13.268274
    31  H    7.384526   8.154754   8.394119   9.368225   9.679100
    32  H    4.977807   5.844645   6.165508   7.277968   7.710160
    33  H    7.129418   8.148849   8.014178   9.070179   8.989410
    34  H    8.954225   9.914954   9.811214  10.799368  10.707187
    35  H    5.973259   7.176798   7.399715   8.668231   8.902739
    36  H    4.569100   5.799722   6.121158   7.440603   7.803464
    37  H    6.784775   7.921769   8.030366   9.221563   9.344448
    38  H    8.207845   9.150462   8.901500   9.849525   9.637980
    39  H    5.896568   6.719376   6.243774   7.131465   6.826782
    40  H    3.207818   4.155166   4.020716   5.197090   5.378491
    41  H    2.439122   3.672702   4.126586   5.495178   6.066709
    42  H    4.032067   2.843294   2.146739   1.071236   2.145273
    43  H    5.496330   4.622958   3.345278   2.123235   1.071983
    44  H    5.535272   5.174717   3.812037   3.381080   2.145484
    45  H    4.185293   4.408193   3.410546   3.921789   3.414315
                   26         27         28         29         30
    26  C    0.000000
    27  C    1.374410   0.000000
    28  C    2.356847   1.397130   0.000000
    29  H   11.544227  10.472300  10.473198   0.000000
    30  H   12.380484  11.401362  11.385344   1.701658   0.000000
    31  H    9.099683   8.124653   7.737007   4.453484   4.567917
    32  H    7.170991   6.079997   5.496605   5.944563   6.581662
    33  H    7.872213   6.664609   6.765873   4.456165   5.910555
    34  H    9.643770   8.551724   8.663910   2.145709   3.580337
    35  H    7.977209   6.619124   6.283501   5.960841   7.405792
    36  H    7.007060   5.634933   5.094442   7.550744   8.899598
    37  H    8.351246   7.053911   6.876178   8.406528   9.999188
    38  H    8.469399   7.379033   7.647333   9.553633  11.182115
    39  H    5.572626   4.425848   4.872431   6.942486   8.234773
    40  H    4.524198   3.173604   2.811210   8.943544  10.164277
    41  H    5.539574   4.245216   3.329598   8.925470  10.062405
    42  H    3.409376   3.921713   3.396738  13.359388  14.031098
    43  H    2.147564   3.392150   3.820525  13.370724  14.066410
    44  H    1.072738   2.116167   3.337375  11.753734  12.586476
    45  H    2.138063   1.071307   2.165579   9.800303  10.809052
                   31         32         33         34         35
    31  H    0.000000
    32  H    2.453701   0.000000
    33  H    4.904640   4.263221   0.000000
    34  H    4.255932   4.910509   2.420971   0.000000
    35  H    5.458408   4.063729   2.492673   4.397939   0.000000
    36  H    6.243329   4.264409   3.816134   5.924166   1.725238
    37  H    8.395604   6.760058   4.525783   6.707095   2.969936
    38  H   10.083159   8.547808   5.522301   7.668780   5.010358
    39  H    6.425336   5.006456   2.672546   4.819181   3.573137
    40  H    7.125387   4.877847   4.786173   7.040111   3.848877
    41  H    6.597772   4.202581   5.243261   7.281577   3.683441
    42  H    9.995856   7.936693  10.027420  11.704619   9.535051
    43  H   10.529425   8.654738   9.911896  11.566811   9.934317
    44  H    9.593031   7.811464   8.101191   9.813793   8.465170
    45  H    7.868969   5.924816   5.863195   7.804304   6.024827
                   36         37         38         39         40
    36  H    0.000000
    37  H    2.741253   0.000000
    38  H    4.904431   2.586974   0.000000
    39  H    3.745413   4.324832   4.576289   0.000000
    40  H    2.581520   4.071035   5.122282   3.117097   0.000000
    41  H    2.147114   4.443253   6.181400   4.375403   1.750269
    42  H    8.261855  10.116126  10.822532   8.169763   6.122346
    43  H    8.861515  10.334811  10.489738   7.701239   6.413218
    44  H    7.624204   8.741036   8.568361   5.690513   5.147602
    45  H    5.212264   6.390964   6.542540   3.469765   2.823774
                   41         42         43         44         45
    41  H    0.000000
    42  H    6.230909   0.000000
    43  H    7.137579   2.481017   0.000000
    44  H    6.354257   4.280310   2.447242   0.000000
    45  H    4.210124   4.992908   4.278268   2.456086   0.000000
 Stoichiometry    C20H17N5O2S
 Framework group  C1[X(C20H17N5O2S)]
 Deg. of freedom   129
 Full point group                 C1      NOp   1
 Largest Abelian subgroup         C1      NOp   1
 Largest concise Abelian subgroup C1      NOp   1
                         Standard orientation:                         
 ---------------------------------------------------------------------
 Center     Atomic      Atomic             Coordinates (Angstroms)
 Number     Number       Type             X           Y           Z
 ---------------------------------------------------------------------
      1          7           0        6.834919   -1.100488    0.763931
      2          6           0        5.784869   -1.937138    0.578461
      3          8           0        5.920979   -3.154888    0.678441
      4          6           0        4.468069   -1.333639    0.232341
      5          6           0        3.507979   -2.154989   -0.350679
      6          6           0        2.267889   -1.659329   -0.704419
      7          6           0        1.954899   -0.325599   -0.457609
      8          6           0        2.900179    0.494591    0.146401
      9          6           0        4.147489   -0.006469    0.483171
     10          7           0        0.693669    0.220981   -0.865289
     11          6           0        0.697989    1.520551   -1.543149
     12          6           0        0.294569    2.694411   -0.681479
     13          6           0        0.090738    4.010821   -1.253919
     14          6           0       -0.254712    4.946281   -0.357019
     15         16           0       -0.361752    4.272971    1.294641
     16          6           0        0.093409    2.668141    0.647931
     17          6           0       -0.472391   -0.466769   -0.619549
     18          8           0       -0.506761   -1.484109    0.052551
     19          6           0       -1.750361    0.099021   -1.227879
     20          7           0       -2.878121   -0.748040   -0.995159
     21          7           0       -3.309041   -1.577860   -1.988889
     22          7           0       -4.286751   -2.266690   -1.570209
     23          6           0       -4.545991   -1.924390   -0.252419
     24          6           0       -5.514071   -2.394930    0.633741
     25          6           0       -5.527891   -1.853230    1.895511
     26          6           0       -4.593351   -0.863070    2.272861
     27          6           0       -3.634311   -0.396010    1.406201
     28          6           0       -3.630361   -0.949690    0.123471
     29          1           0        6.801269   -0.131828    0.570771
     30          1           0        7.706519   -1.502358    1.015531
     31          1           0        3.748649   -3.183619   -0.525409
     32          1           0        1.542349   -2.307529   -1.146179
     33          1           0        2.665629    1.515441    0.369801
     34          1           0        4.842699    0.646051    0.974471
     35          1           0        1.698109    1.678481   -1.921649
     36          1           0        0.056459    1.482971   -2.414809
     37          1           0        0.204848    4.217771   -2.299409
     38          1           0       -0.459992    5.979211   -0.525219
     39          1           0        0.185349    1.837681    1.311541
     40          1           0       -1.946561    1.087190   -0.835089
     41          1           0       -1.644391    0.177621   -2.299609
     42          1           0       -6.210631   -3.149260    0.328231
     43          1           0       -6.252231   -2.183770    2.613301
     44          1           0       -4.633261   -0.470200    3.270271
     45          1           0       -2.921101    0.343890    1.708821
 ---------------------------------------------------------------------
 Rotational constants (GHZ):      0.2021144      0.0954533      0.0736235
 Leave Link  202 at Wed Aug 31 14:08:16 2022, MaxMem=  209715200 cpu:       0.0
 (Enter /opt/gaussian/l301.exe)
 Standard basis: CC-pVDZ (5D, 7F)
 Ernie: Thresh=  0.10000D-02 Tol=  0.10000D-05 Strict=F.
 Ernie:  64 primitive shells out of 729 were deleted.
 There are   481 symmetry adapted basis functions of A   symmetry.
 Integral buffers will be    131072 words long.
 Raffenetti 2 integral format.
 Two-electron integral symmetry is turned on.
   481 basis functions,  1081 primitive gaussians,   509 cartesian basis functions
   102 alpha electrons      102 beta electrons
       nuclear repulsion energy      2571.5714836031 Hartrees.
 IExCor=  402 DFT=T Ex+Corr=B3LYP ExCW=0 ScaHFX=  0.200000
 ScaDFX=  0.800000  0.720000  1.000000  0.810000 ScalE2=  1.000000  1.000000
 IRadAn=      0 IRanWt=     -1 IRanGd=            0 ICorTp=0
 NAtoms=   45 NActive=   45 NUniq=   45 SFac= 1.00D+00 NAtFMM=   60 NAOKFM=F Big=F
 Leave Link  301 at Wed Aug 31 14:08:16 2022, MaxMem=  209715200 cpu:       0.3
 (Enter /opt/gaussian/l302.exe)
 NPDir=0 NMtPBC=     1 NCelOv=     1 NCel=       1 NClECP=     1 NCelD=      1
         NCelK=      1 NCelE2=     1 NClLst=     1 CellRange=     0.0.
 One-electron integrals computed using PRISM.
 NBasis=   481 RedAO= T  NBF=   481
 NBsUse=   481 1.00D-06 NBFU=   481
 Precomputing XC quadrature grid using
 IXCGrd= 2 IRadAn=           0 IRanWt=          -1 IRanGd=           0 AccXCQ= 0.00D+00.
 NRdTot=    2893 NPtTot=      369448 NUsed=      390297 NTot=      390329
 NSgBfM=   497   497   498   498   498 NAtAll=    45    45.
 Leave Link  302 at Wed Aug 31 14:08:16 2022, MaxMem=  209715200 cpu:       6.2
 (Enter /opt/gaussian/l303.exe)
 DipDrv:  MaxL=1.
 Leave Link  303 at Wed Aug 31 14:08:17 2022, MaxMem=  209715200 cpu:       1.0
 (Enter /opt/gaussian/l401.exe)
 Harris functional with IExCor=  402 diagonalized for initial guess.
 ExpMin= 1.22D-01 ExpMax= 1.11D+05 ExpMxC= 1.07D+03 IAcc=2 IRadAn=         4 AccDes= 0.00D+00
 HarFok:  IExCor=  402 AccDes= 0.00D+00 IRadAn=         4 IDoV= 1
 ScaDFX=  1.000000  1.000000  1.000000  1.000000
 FoFCou: FMM=F IPFlag=           0 FMFlag=      100000 FMFlg1=           0
         NFxFlg=           0 DoJE=T BraDBF=F KetDBF=T FulRan=T
         Omega=  0.000000  0.000000  1.000000  0.000000  0.000000 ICntrl=     500 IOpCl=  0
         NMat0=    1 NMatS0=    1 NMatT0=    0 NMatD0=    1 NMtDS0=    0 NMtDT0=    0
         I1Cent=           4 NGrid=           0.
 Petite list used in FoFCou.
 Harris En= -1594.66710628530    
 Initial guess orbital symmetries:
       Occupied  (A) (A) (A) (A) (A) (A) (A) (A) (A) (A) (A) (A)
                 (A) (A) (A) (A) (A) (A) (A) (A) (A) (A) (A) (A)
                 (A) (A) (A) (A) (A) (A) (A) (A) (A) (A) (A) (A)
                 (A) (A) (A) (A) (A) (A) (A) (A) (A) (A) (A) (A)
                 (A) (A) (A) (A) (A) (A) (A) (A) (A) (A) (A) (A)
                 (A) (A) (A) (A) (A) (A) (A) (A) (A) (A) (A) (A)
                 (A) (A) (A) (A) (A) (A) (A) (A) (A) (A) (A) (A)
                 (A) (A) (A) (A) (A) (A) (A) (A) (A) (A) (A) (A)
                 (A) (A) (A) (A) (A) (A)
       Virtual   (A) (A) (A) (A) (A) (A) (A) (A) (A) (A) (A) (A)
                 (A) (A) (A) (A) (A) (A) (A) (A) (A) (A) (A) (A)
                 (A) (A) (A) (A) (A) (A) (A) (A) (A) (A) (A) (A)
                 (A) (A) (A) (A) (A) (A) (A) (A) (A) (A) (A) (A)
                 (A) (A) (A) (A) (A) (A) (A) (A) (A) (A) (A) (A)
                 (A) (A) (A) (A) (A) (A) (A) (A) (A) (A) (A) (A)
                 (A) (A) (A) (A) (A) (A) (A) (A) (A) (A) (A) (A)
                 (A) (A) (A) (A) (A) (A) (A) (A) (A) (A) (A) (A)
                 (A) (A) (A) (A) (A) (A) (A) (A) (A) (A) (A) (A)
                 (A) (A) (A) (A) (A) (A) (A) (A) (A) (A) (A) (A)
                 (A) (A) (A) (A) (A) (A) (A) (A) (A) (A) (A) (A)
                 (A) (A) (A) (A) (A) (A) (A) (A) (A) (A) (A) (A)
                 (A) (A) (A) (A) (A) (A) (A) (A) (A) (A) (A) (A)
                 (A) (A) (A) (A) (A) (A) (A) (A) (A) (A) (A) (A)
                 (A) (A) (A) (A) (A) (A) (A) (A) (A) (A) (A) (A)
                 (A) (A) (A) (A) (A) (A) (A) (A) (A) (A) (A) (A)
                 (A) (A) (A) (A) (A) (A) (A) (A) (A) (A) (A) (A)
                 (A) (A) (A) (A) (A) (A) (A) (A) (A) (A) (A) (A)
                 (A) (A) (A) (A) (A) (A) (A) (A) (A) (A) (A) (A)
                 (A) (A) (A) (A) (A) (A) (A) (A) (A) (A) (A) (A)
                 (A) (A) (A) (A) (A) (A) (A) (A) (A) (A) (A) (A)
                 (A) (A) (A) (A) (A) (A) (A) (A) (A) (A) (A) (A)
                 (A) (A) (A) (A) (A) (A) (A) (A) (A) (A) (A) (A)
                 (A) (A) (A) (A) (A) (A) (A) (A) (A) (A) (A) (A)
                 (A) (A) (A) (A) (A) (A) (A) (A) (A) (A) (A) (A)
                 (A) (A) (A) (A) (A) (A) (A) (A) (A) (A) (A) (A)
                 (A) (A) (A) (A) (A) (A) (A) (A) (A) (A) (A) (A)
                 (A) (A) (A) (A) (A) (A) (A) (A) (A) (A) (A) (A)
                 (A) (A) (A) (A) (A) (A) (A) (A) (A) (A) (A) (A)
                 (A) (A) (A) (A) (A) (A) (A) (A) (A) (A) (A) (A)
                 (A) (A) (A) (A) (A) (A) (A) (A) (A) (A) (A) (A)
                 (A) (A) (A) (A) (A) (A) (A)
 The electronic state of the initial guess is 1-A.
 Leave Link  401 at Wed Aug 31 14:08:19 2022, MaxMem=  209715200 cpu:      20.0
 (Enter /opt/gaussian/l502.exe)
 Closed shell SCF:
 Requested convergence on RMS density matrix=1.00D-08 within 128 cycles.
 Requested convergence on MAX density matrix=1.00D-06.
 Requested convergence on             energy=1.00D-06.
 No special actions if energy rises.
 Using DIIS extrapolation, IDIIS=  1040.
 Integral symmetry usage will be decided dynamically.
       389879 words used for storage of precomputed grid.
 IEnd=     1193186 IEndB=     1193186 NGot=   209715200 MDV=   208798245
 LenX=   208798245 LenY=   208538655
 Fock matrices will be formed incrementally for  20 cycles.
 Integral accuracy reduced to 1.0D-05 until final iterations.

 Cycle   1  Pass 0  IDiag  1:
 FoFCou: FMM=F IPFlag=           0 FMFlag=      100000 FMFlg1=           0
         NFxFlg=           0 DoJE=F BraDBF=F KetDBF=F FulRan=T
         Omega=  0.000000  0.000000  1.000000  0.000000  0.000000 ICntrl=       0 IOpCl=  0
         NMat0=    1 NMatS0=    1 NMatT0=    0 NMatD0=    1 NMtDS0=    0 NMtDT0=    0
         I1Cent=           0 NGrid=           0.
 Symmetry not used in FoFCou.
 E= -1594.12983556447    
 DIIS: error= 2.00D-02 at cycle   1 NSaved=   1.
 NSaved= 1 IEnMin= 1 EnMin= -1594.12983556447     IErMin= 1 ErrMin= 2.00D-02
 ErrMax= 2.00D-02 EMaxC= 1.00D-01 BMatC= 6.65D-01 BMatP= 6.65D-01
 IDIUse=3 WtCom= 8.00D-01 WtEn= 2.00D-01
 Coeff-Com:  0.100D+01
 Coeff-En:   0.100D+01
 Coeff:      0.100D+01
 Gap=     0.311 Goal=   None    Shift=    0.000
 GapD=    0.311 DampG=1.000 DampE=0.500 DampFc=0.5000 IDamp=-1.
 Damping current iteration by 5.00D-01
 RMSDP=5.19D-03 MaxDP=2.10D-01              OVMax= 3.06D-01

 Cycle   2  Pass 0  IDiag  1:
 RMSU=  1.83D-03    CP:  9.83D-01
 E= -1594.27603860255     Delta-E=       -0.146203038074 Rises=F Damp=T
 DIIS: error= 1.13D-02 at cycle   2 NSaved=   2.
 NSaved= 2 IEnMin= 2 EnMin= -1594.27603860255     IErMin= 2 ErrMin= 1.13D-02
 ErrMax= 1.13D-02 EMaxC= 1.00D-01 BMatC= 1.37D-01 BMatP= 6.65D-01
 IDIUse=3 WtCom= 8.87D-01 WtEn= 1.13D-01
 Coeff-Com:  0.261D+00 0.739D+00
 Coeff-En:   0.394D+00 0.606D+00
 Coeff:      0.276D+00 0.724D+00
 Gap=     0.258 Goal=   None    Shift=    0.000
 RMSDP=1.70D-03 MaxDP=8.51D-02 DE=-1.46D-01 OVMax= 2.83D-01

 Cycle   3  Pass 0  IDiag  1:
 RMSU=  1.05D-03    CP:  9.68D-01  6.94D-01
 E= -1594.73710442712     Delta-E=       -0.461065824577 Rises=F Damp=F
 DIIS: error= 1.22D-02 at cycle   3 NSaved=   3.
 NSaved= 3 IEnMin= 3 EnMin= -1594.73710442712     IErMin= 2 ErrMin= 1.13D-02
 ErrMax= 1.22D-02 EMaxC= 1.00D-01 BMatC= 9.31D-02 BMatP= 1.37D-01
 IDIUse=3 WtCom= 8.78D-01 WtEn= 1.22D-01
 Coeff-Com:  0.986D-01 0.444D+00 0.457D+00
 Coeff-En:   0.000D+00 0.000D+00 0.100D+01
 Coeff:      0.865D-01 0.390D+00 0.523D+00
 Gap=     0.199 Goal=   None    Shift=    0.000
 RMSDP=8.70D-04 MaxDP=4.90D-02 DE=-4.61D-01 OVMax= 8.65D-02

 Cycle   4  Pass 0  IDiag  1:
 RMSU=  4.63D-04    CP:  9.73D-01  7.95D-01  6.59D-01
 E= -1594.80097416608     Delta-E=       -0.063869738960 Rises=F Damp=F
 DIIS: error= 6.02D-03 at cycle   4 NSaved=   4.
 NSaved= 4 IEnMin= 4 EnMin= -1594.80097416608     IErMin= 4 ErrMin= 6.02D-03
 ErrMax= 6.02D-03 EMaxC= 1.00D-01 BMatC= 2.38D-02 BMatP= 9.31D-02
 IDIUse=3 WtCom= 9.40D-01 WtEn= 6.02D-02
 Coeff-Com:  0.271D-01 0.123D+00 0.340D+00 0.509D+00
 Coeff-En:   0.000D+00 0.000D+00 0.234D+00 0.766D+00
 Coeff:      0.254D-01 0.116D+00 0.334D+00 0.525D+00
 Gap=     0.187 Goal=   None    Shift=    0.000
 RMSDP=4.01D-04 MaxDP=2.20D-02 DE=-6.39D-02 OVMax= 4.35D-02

 Cycle   5  Pass 0  IDiag  1:
 RMSU=  1.61D-04    CP:  9.71D-01  7.54D-01  7.32D-01  5.53D-01
 E= -1594.82004139246     Delta-E=       -0.019067226375 Rises=F Damp=F
 DIIS: error= 2.57D-03 at cycle   5 NSaved=   5.
 NSaved= 5 IEnMin= 5 EnMin= -1594.82004139246     IErMin= 5 ErrMin= 2.57D-03
 ErrMax= 2.57D-03 EMaxC= 1.00D-01 BMatC= 2.07D-03 BMatP= 2.38D-02
 IDIUse=3 WtCom= 9.74D-01 WtEn= 2.57D-02
 Coeff-Com:  0.575D-02 0.180D-01 0.149D+00 0.331D+00 0.496D+00
 Coeff-En:   0.000D+00 0.000D+00 0.000D+00 0.628D-01 0.937D+00
 Coeff:      0.560D-02 0.175D-01 0.145D+00 0.324D+00 0.507D+00
 Gap=     0.187 Goal=   None    Shift=    0.000
 RMSDP=1.36D-04 MaxDP=7.70D-03 DE=-1.91D-02 OVMax= 1.51D-02

 Cycle   6  Pass 0  IDiag  1:
 RMSU=  4.07D-05    CP:  9.71D-01  7.55D-01  7.47D-01  6.46D-01  5.39D-01
 E= -1594.82216194585     Delta-E=       -0.002120553394 Rises=F Damp=F
 DIIS: error= 8.13D-04 at cycle   6 NSaved=   6.
 NSaved= 6 IEnMin= 6 EnMin= -1594.82216194585     IErMin= 6 ErrMin= 8.13D-04
 ErrMax= 8.13D-04 EMaxC= 1.00D-01 BMatC= 2.01D-04 BMatP= 2.07D-03
 IDIUse=3 WtCom= 9.92D-01 WtEn= 8.13D-03
 Coeff-Com:  0.586D-03-0.503D-02 0.465D-01 0.130D+00 0.301D+00 0.527D+00
 Coeff-En:   0.000D+00 0.000D+00 0.000D+00 0.000D+00 0.424D-01 0.958D+00
 Coeff:      0.582D-03-0.499D-02 0.461D-01 0.129D+00 0.299D+00 0.531D+00
 Gap=     0.187 Goal=   None    Shift=    0.000
 RMSDP=3.45D-05 MaxDP=2.48D-03 DE=-2.12D-03 OVMax= 4.21D-03

 Cycle   7  Pass 0  IDiag  1:
 RMSU=  1.58D-05    CP:  9.71D-01  7.56D-01  7.48D-01  6.37D-01  5.93D-01
                    CP:  6.14D-01
 E= -1594.82235541479     Delta-E=       -0.000193468936 Rises=F Damp=F
 DIIS: error= 1.94D-04 at cycle   7 NSaved=   7.
 NSaved= 7 IEnMin= 7 EnMin= -1594.82235541479     IErMin= 7 ErrMin= 1.94D-04
 ErrMax= 1.94D-04 EMaxC= 1.00D-01 BMatC= 2.08D-05 BMatP= 2.01D-04
 IDIUse=3 WtCom= 9.98D-01 WtEn= 1.94D-03
 Coeff-Com:  0.337D-04-0.434D-02 0.132D-01 0.422D-01 0.123D+00 0.312D+00
 Coeff-Com:  0.514D+00
 Coeff-En:   0.000D+00 0.000D+00 0.000D+00 0.000D+00 0.000D+00 0.338D-01
 Coeff-En:   0.966D+00
 Coeff:      0.337D-04-0.433D-02 0.131D-01 0.422D-01 0.122D+00 0.312D+00
 Coeff:      0.515D+00
 Gap=     0.187 Goal=   None    Shift=    0.000
 RMSDP=1.17D-05 MaxDP=7.87D-04 DE=-1.93D-04 OVMax= 1.09D-03

 Cycle   8  Pass 0  IDiag  1:
 RMSU=  4.76D-06    CP:  9.71D-01  7.55D-01  7.48D-01  6.39D-01  5.99D-01
                    CP:  6.67D-01  6.18D-01
 E= -1594.82237467609     Delta-E=       -0.000019261302 Rises=F Damp=F
 DIIS: error= 7.16D-05 at cycle   8 NSaved=   8.
 NSaved= 8 IEnMin= 8 EnMin= -1594.82237467609     IErMin= 8 ErrMin= 7.16D-05
 ErrMax= 7.16D-05 EMaxC= 1.00D-01 BMatC= 2.46D-06 BMatP= 2.08D-05
 IDIUse=1 WtCom= 1.00D+00 WtEn= 0.00D+00
 Coeff-Com:  0.347D-04-0.251D-02 0.467D-02 0.159D-01 0.528D-01 0.154D+00
 Coeff-Com:  0.321D+00 0.454D+00
 Coeff:      0.347D-04-0.251D-02 0.467D-02 0.159D-01 0.528D-01 0.154D+00
 Coeff:      0.321D+00 0.454D+00
 Gap=     0.187 Goal=   None    Shift=    0.000
 RMSDP=3.90D-06 MaxDP=3.07D-04 DE=-1.93D-05 OVMax= 3.67D-04

 Initial convergence to 1.0D-05 achieved.  Increase integral accuracy.
 Cycle   9  Pass 1  IDiag  1:
 E= -1594.82240413666     Delta-E=       -0.000029460572 Rises=F Damp=F
 DIIS: error= 1.74D-04 at cycle   1 NSaved=   1.
 NSaved= 1 IEnMin= 1 EnMin= -1594.82240413666     IErMin= 1 ErrMin= 1.74D-04
 ErrMax= 1.74D-04 EMaxC= 1.00D-01 BMatC= 8.69D-06 BMatP= 8.69D-06
 IDIUse=3 WtCom= 9.98D-01 WtEn= 1.74D-03
 Coeff-Com:  0.100D+01
 Coeff-En:   0.100D+01
 Coeff:      0.100D+01
 Gap=     0.187 Goal=   None    Shift=    0.000
 RMSDP=3.90D-06 MaxDP=3.07D-04 DE=-2.95D-05 OVMax= 4.74D-04

 Cycle  10  Pass 1  IDiag  1:
 RMSU=  9.09D-05    CP:  1.00D+00
 E= -1594.82241193010     Delta-E=       -0.000007793434 Rises=F Damp=F
 DIIS: error= 7.81D-05 at cycle   2 NSaved=   2.
 NSaved= 2 IEnMin= 2 EnMin= -1594.82241193010     IErMin= 2 ErrMin= 7.81D-05
 ErrMax= 7.81D-05 EMaxC= 1.00D-01 BMatC= 1.31D-06 BMatP= 8.69D-06
 IDIUse=1 WtCom= 1.00D+00 WtEn= 0.00D+00
 Coeff-Com:  0.165D+00 0.835D+00
 Coeff:      0.165D+00 0.835D+00
 Gap=     0.187 Goal=   None    Shift=    0.000
 RMSDP=6.59D-06 MaxDP=6.24D-04 DE=-7.79D-06 OVMax= 7.99D-04

 Cycle  11  Pass 1  IDiag  1:
 RMSU=  4.59D-06    CP:  1.00D+00  1.01D+00
 E= -1594.82240971838     Delta-E=        0.000002211715 Rises=F Damp=F
 DIIS: error= 1.42D-04 at cycle   3 NSaved=   3.
 NSaved= 3 IEnMin= 2 EnMin= -1594.82241193010     IErMin= 2 ErrMin= 7.81D-05
 ErrMax= 1.42D-04 EMaxC= 1.00D-01 BMatC= 4.00D-06 BMatP= 1.31D-06
 IDIUse=3 WtCom= 4.56D-01 WtEn= 5.44D-01
 Coeff-Com: -0.439D-02 0.639D+00 0.366D+00
 Coeff-En:   0.000D+00 0.694D+00 0.306D+00
 Coeff:     -0.200D-02 0.669D+00 0.333D+00
 Gap=     0.187 Goal=   None    Shift=    0.000
 RMSDP=3.75D-06 MaxDP=3.65D-04 DE= 2.21D-06 OVMax= 4.75D-04

 Cycle  12  Pass 1  IDiag  1:
 RMSU=  3.66D-07    CP:  1.00D+00  1.01D+00  4.31D-01
 E= -1594.82241298116     Delta-E=       -0.000003262776 Rises=F Damp=F
 DIIS: error= 1.21D-05 at cycle   4 NSaved=   4.
 NSaved= 4 IEnMin= 4 EnMin= -1594.82241298116     IErMin= 4 ErrMin= 1.21D-05
 ErrMax= 1.21D-05 EMaxC= 1.00D-01 BMatC= 5.62D-08 BMatP= 1.31D-06
 IDIUse=1 WtCom= 1.00D+00 WtEn= 0.00D+00
 Coeff-Com: -0.397D-02 0.376D+00 0.167D+00 0.461D+00
 Coeff:     -0.397D-02 0.376D+00 0.167D+00 0.461D+00
 Gap=     0.187 Goal=   None    Shift=    0.000
 RMSDP=4.84D-07 MaxDP=3.51D-05 DE=-3.26D-06 OVMax= 4.19D-05

 Cycle  13  Pass 1  IDiag  1:
 RMSU=  1.33D-07    CP:  1.00D+00  1.01D+00  3.67D-01  7.04D-01
 E= -1594.82241303133     Delta-E=       -0.000000050175 Rises=F Damp=F
 DIIS: error= 1.33D-06 at cycle   5 NSaved=   5.
 NSaved= 5 IEnMin= 5 EnMin= -1594.82241303133     IErMin= 5 ErrMin= 1.33D-06
 ErrMax= 1.33D-06 EMaxC= 1.00D-01 BMatC= 4.60D-10 BMatP= 5.62D-08
 IDIUse=1 WtCom= 1.00D+00 WtEn= 0.00D+00
 Coeff-Com: -0.173D-02 0.153D+00 0.630D-01 0.232D+00 0.554D+00
 Coeff:     -0.173D-02 0.153D+00 0.630D-01 0.232D+00 0.554D+00
 Gap=     0.187 Goal=   None    Shift=    0.000
 RMSDP=6.23D-08 MaxDP=4.24D-06 DE=-5.02D-08 OVMax= 7.68D-06

 Cycle  14  Pass 1  IDiag  1:
 RMSU=  4.00D-08    CP:  1.00D+00  1.01D+00  3.67D-01  7.16D-01  8.65D-01
 E= -1594.82241303175     Delta-E=       -0.000000000417 Rises=F Damp=F
 DIIS: error= 5.06D-07 at cycle   6 NSaved=   6.
 NSaved= 6 IEnMin= 6 EnMin= -1594.82241303175     IErMin= 6 ErrMin= 5.06D-07
 ErrMax= 5.06D-07 EMaxC= 1.00D-01 BMatC= 8.12D-11 BMatP= 4.60D-10
 IDIUse=1 WtCom= 1.00D+00 WtEn= 0.00D+00
 Coeff-Com: -0.532D-03 0.436D-01 0.165D-01 0.789D-01 0.326D+00 0.536D+00
 Coeff:     -0.532D-03 0.436D-01 0.165D-01 0.789D-01 0.326D+00 0.536D+00
 Gap=     0.187 Goal=   None    Shift=    0.000
 RMSDP=2.75D-08 MaxDP=1.57D-06 DE=-4.17D-10 OVMax= 3.49D-06

 Cycle  15  Pass 1  IDiag  1:
 RMSU=  1.22D-08    CP:  1.00D+00  1.01D+00  3.67D-01  7.25D-01  8.99D-01
                    CP:  6.52D-01
 E= -1594.82241303178     Delta-E=       -0.000000000026 Rises=F Damp=F
 DIIS: error= 1.59D-07 at cycle   7 NSaved=   7.
 NSaved= 7 IEnMin= 7 EnMin= -1594.82241303178     IErMin= 7 ErrMin= 1.59D-07
 ErrMax= 1.59D-07 EMaxC= 1.00D-01 BMatC= 1.66D-11 BMatP= 8.12D-11
 IDIUse=1 WtCom= 1.00D+00 WtEn= 0.00D+00
 Coeff-Com: -0.355D-04 0.105D-02-0.530D-03 0.961D-02 0.114D+00 0.351D+00
 Coeff-Com:  0.525D+00
 Coeff:     -0.355D-04 0.105D-02-0.530D-03 0.961D-02 0.114D+00 0.351D+00
 Coeff:      0.525D+00
 Gap=     0.187 Goal=   None    Shift=    0.000
 RMSDP=1.03D-08 MaxDP=6.24D-07 DE=-2.64D-11 OVMax= 9.65D-07

 Cycle  16  Pass 1  IDiag  1:
 RMSU=  4.26D-09    CP:  1.00D+00  1.01D+00  3.67D-01  7.28D-01  9.03D-01
                    CP:  7.26D-01  5.92D-01
 E= -1594.82241303179     Delta-E=       -0.000000000011 Rises=F Damp=F
 DIIS: error= 4.12D-08 at cycle   8 NSaved=   8.
 NSaved= 8 IEnMin= 8 EnMin= -1594.82241303179     IErMin= 8 ErrMin= 4.12D-08
 ErrMax= 4.12D-08 EMaxC= 1.00D-01 BMatC= 1.60D-12 BMatP= 1.66D-11
 IDIUse=1 WtCom= 1.00D+00 WtEn= 0.00D+00
 Coeff-Com:  0.357D-04-0.413D-02-0.212D-02-0.289D-02 0.343D-01 0.154D+00
 Coeff-Com:  0.316D+00 0.505D+00
 Coeff:      0.357D-04-0.413D-02-0.212D-02-0.289D-02 0.343D-01 0.154D+00
 Coeff:      0.316D+00 0.505D+00
 Gap=     0.187 Goal=   None    Shift=    0.000
 RMSDP=3.38D-09 MaxDP=2.22D-07 DE=-1.09D-11 OVMax= 3.17D-07

 SCF Done:  E(RB3LYP) =  -1594.82241303     A.U. after   16 cycles
             Convg  =    0.3383D-08             -V/T =  2.0048
 KE= 1.587139851771D+03 PE=-8.874347123412D+03 EE= 3.120813375006D+03
 Leave Link  502 at Wed Aug 31 14:17:22 2022, MaxMem=  209715200 cpu:    4334.3
 (Enter /opt/gaussian/l601.exe)
 Copying SCF densities to generalized density rwf, IOpCl= 0 IROHF=0.

 **********************************************************************

            Population analysis using the SCF density.

 **********************************************************************

 Orbital symmetries:
       Occupied  (A) (A) (A) (A) (A) (A) (A) (A) (A) (A) (A) (A)
                 (A) (A) (A) (A) (A) (A) (A) (A) (A) (A) (A) (A)
                 (A) (A) (A) (A) (A) (A) (A) (A) (A) (A) (A) (A)
                 (A) (A) (A) (A) (A) (A) (A) (A) (A) (A) (A) (A)
                 (A) (A) (A) (A) (A) (A) (A) (A) (A) (A) (A) (A)
                 (A) (A) (A) (A) (A) (A) (A) (A) (A) (A) (A) (A)
                 (A) (A) (A) (A) (A) (A) (A) (A) (A) (A) (A) (A)
                 (A) (A) (A) (A) (A) (A) (A) (A) (A) (A) (A) (A)
                 (A) (A) (A) (A) (A) (A)
       Virtual   (A) (A) (A) (A) (A) (A) (A) (A) (A) (A) (A) (A)
                 (A) (A) (A) (A) (A) (A) (A) (A) (A) (A) (A) (A)
                 (A) (A) (A) (A) (A) (A) (A) (A) (A) (A) (A) (A)
                 (A) (A) (A) (A) (A) (A) (A) (A) (A) (A) (A) (A)
                 (A) (A) (A) (A) (A) (A) (A) (A) (A) (A) (A) (A)
                 (A) (A) (A) (A) (A) (A) (A) (A) (A) (A) (A) (A)
                 (A) (A) (A) (A) (A) (A) (A) (A) (A) (A) (A) (A)
                 (A) (A) (A) (A) (A) (A) (A) (A) (A) (A) (A) (A)
                 (A) (A) (A) (A) (A) (A) (A) (A) (A) (A) (A) (A)
                 (A) (A) (A) (A) (A) (A) (A) (A) (A) (A) (A) (A)
                 (A) (A) (A) (A) (A) (A) (A) (A) (A) (A) (A) (A)
                 (A) (A) (A) (A) (A) (A) (A) (A) (A) (A) (A) (A)
                 (A) (A) (A) (A) (A) (A) (A) (A) (A) (A) (A) (A)
                 (A) (A) (A) (A) (A) (A) (A) (A) (A) (A) (A) (A)
                 (A) (A) (A) (A) (A) (A) (A) (A) (A) (A) (A) (A)
                 (A) (A) (A) (A) (A) (A) (A) (A) (A) (A) (A) (A)
                 (A) (A) (A) (A) (A) (A) (A) (A) (A) (A) (A) (A)
                 (A) (A) (A) (A) (A) (A) (A) (A) (A) (A) (A) (A)
                 (A) (A) (A) (A) (A) (A) (A) (A) (A) (A) (A) (A)
                 (A) (A) (A) (A) (A) (A) (A) (A) (A) (A) (A) (A)
                 (A) (A) (A) (A) (A) (A) (A) (A) (A) (A) (A) (A)
                 (A) (A) (A) (A) (A) (A) (A) (A) (A) (A) (A) (A)
                 (A) (A) (A) (A) (A) (A) (A) (A) (A) (A) (A) (A)
                 (A) (A) (A) (A) (A) (A) (A) (A) (A) (A) (A) (A)
                 (A) (A) (A) (A) (A) (A) (A) (A) (A) (A) (A) (A)
                 (A) (A) (A) (A) (A) (A) (A) (A) (A) (A) (A) (A)
                 (A) (A) (A) (A) (A) (A) (A) (A) (A) (A) (A) (A)
                 (A) (A) (A) (A) (A) (A) (A) (A) (A) (A) (A) (A)
                 (A) (A) (A) (A) (A) (A) (A) (A) (A) (A) (A) (A)
                 (A) (A) (A) (A) (A) (A) (A) (A) (A) (A) (A) (A)
                 (A) (A) (A) (A) (A) (A) (A) (A) (A) (A) (A) (A)
                 (A) (A) (A) (A) (A) (A) (A)
 The electronic state is 1-A.
 Alpha  occ. eigenvalues --  -88.92535 -19.12506 -19.10005 -14.40780 -14.38902
 Alpha  occ. eigenvalues --  -14.38744 -14.35267 -14.34475 -10.30673 -10.28834
 Alpha  occ. eigenvalues --  -10.26037 -10.25406 -10.24724 -10.23628 -10.23349
 Alpha  occ. eigenvalues --  -10.22745 -10.22364 -10.21338 -10.20852 -10.20587
 Alpha  occ. eigenvalues --  -10.20473 -10.20411 -10.19910 -10.19818 -10.19682
 Alpha  occ. eigenvalues --  -10.19524 -10.19325 -10.18906  -7.98602  -5.94953
 Alpha  occ. eigenvalues --   -5.94586  -5.94199  -1.10143  -1.06030  -1.03132
 Alpha  occ. eigenvalues --   -0.97216  -0.92932  -0.91207  -0.89689  -0.87459
 Alpha  occ. eigenvalues --   -0.86999  -0.79702  -0.78735  -0.77537  -0.76859
 Alpha  occ. eigenvalues --   -0.76388  -0.75324  -0.74550  -0.70951  -0.67070
 Alpha  occ. eigenvalues --   -0.65051  -0.63412  -0.62725  -0.61589  -0.59968
 Alpha  occ. eigenvalues --   -0.59093  -0.57603  -0.56632  -0.56127  -0.54505
 Alpha  occ. eigenvalues --   -0.53244  -0.52832  -0.52528  -0.51859  -0.49830
 Alpha  occ. eigenvalues --   -0.48230  -0.47195  -0.46965  -0.46738  -0.45925
 Alpha  occ. eigenvalues --   -0.45158  -0.44890  -0.44237  -0.44029  -0.43743
 Alpha  occ. eigenvalues --   -0.42623  -0.42400  -0.41778  -0.40958  -0.40286
 Alpha  occ. eigenvalues --   -0.39468  -0.38900  -0.38339  -0.37872  -0.37406
 Alpha  occ. eigenvalues --   -0.36769  -0.36262  -0.36033  -0.35881  -0.33298
 Alpha  occ. eigenvalues --   -0.31196  -0.29999  -0.27893  -0.27102  -0.26984
 Alpha  occ. eigenvalues --   -0.26561  -0.26503  -0.26019  -0.25342  -0.25106
 Alpha  occ. eigenvalues --   -0.24203  -0.23504
 Alpha virt. eigenvalues --   -0.04765  -0.03831  -0.03743  -0.02191   0.00348
 Alpha virt. eigenvalues --    0.00384   0.01128   0.02200   0.03841   0.04230
 Alpha virt. eigenvalues --    0.04885   0.06023   0.06272   0.06911   0.07149
 Alpha virt. eigenvalues --    0.07953   0.08374   0.08985   0.10014   0.10540
 Alpha virt. eigenvalues --    0.11096   0.11231   0.11990   0.13511   0.13832
 Alpha virt. eigenvalues --    0.14570   0.15210   0.16066   0.16615   0.16793
 Alpha virt. eigenvalues --    0.17198   0.18227   0.20568   0.20961   0.21570
 Alpha virt. eigenvalues --    0.23620   0.24475   0.24934   0.25476   0.25729
 Alpha virt. eigenvalues --    0.27100   0.27187   0.27998   0.28714   0.29724
 Alpha virt. eigenvalues --    0.30500   0.30770   0.31495   0.32580   0.34504
 Alpha virt. eigenvalues --    0.34650   0.35996   0.36989   0.37685   0.39165
 Alpha virt. eigenvalues --    0.40690   0.41332   0.41597   0.43158   0.43952
 Alpha virt. eigenvalues --    0.44274   0.44587   0.44804   0.45374   0.45850
 Alpha virt. eigenvalues --    0.45970   0.46384   0.46717   0.46832   0.47190
 Alpha virt. eigenvalues --    0.47420   0.47609   0.48227   0.49253   0.49521
 Alpha virt. eigenvalues --    0.49611   0.49937   0.50344   0.50428   0.50949
 Alpha virt. eigenvalues --    0.51355   0.51493   0.51961   0.52062   0.52431
 Alpha virt. eigenvalues --    0.52898   0.53296   0.54130   0.54892   0.55060
 Alpha virt. eigenvalues --    0.55659   0.55896   0.56536   0.57400   0.58401
 Alpha virt. eigenvalues --    0.58501   0.59045   0.59667   0.59821   0.60405
 Alpha virt. eigenvalues --    0.60845   0.61285   0.62138   0.62558   0.63783
 Alpha virt. eigenvalues --    0.64170   0.64916   0.65138   0.65337   0.65801
 Alpha virt. eigenvalues --    0.66257   0.66432   0.66861   0.67104   0.67919
 Alpha virt. eigenvalues --    0.68133   0.68538   0.69067   0.70092   0.70974
 Alpha virt. eigenvalues --    0.71284   0.72056   0.72816   0.73041   0.73546
 Alpha virt. eigenvalues --    0.74023   0.74719   0.74890   0.76114   0.77547
 Alpha virt. eigenvalues --    0.77959   0.78553   0.80182   0.80822   0.81565
 Alpha virt. eigenvalues --    0.82510   0.83968   0.84189   0.84925   0.85637
 Alpha virt. eigenvalues --    0.86405   0.87859   0.88296   0.89097   0.89221
 Alpha virt. eigenvalues --    0.90110   0.90904   0.91317   0.91910   0.92716
 Alpha virt. eigenvalues --    0.93208   0.93697   0.93859   0.94689   0.94905
 Alpha virt. eigenvalues --    0.95383   0.96661   0.97375   0.98566   0.99413
 Alpha virt. eigenvalues --    0.99626   1.00575   1.00812   1.01298   1.01525
 Alpha virt. eigenvalues --    1.02005   1.02410   1.02911   1.04252   1.04432
 Alpha virt. eigenvalues --    1.04960   1.06008   1.06375   1.06835   1.07489
 Alpha virt. eigenvalues --    1.07781   1.08454   1.10515   1.11503   1.11765
 Alpha virt. eigenvalues --    1.12383   1.13603   1.14019   1.15465   1.17120
 Alpha virt. eigenvalues --    1.17578   1.18242   1.18587   1.19192   1.20767
 Alpha virt. eigenvalues --    1.21033   1.22935   1.23773   1.24341   1.24789
 Alpha virt. eigenvalues --    1.26972   1.27439   1.29106   1.30832   1.30913
 Alpha virt. eigenvalues --    1.31943   1.33593   1.34097   1.34831   1.35951
 Alpha virt. eigenvalues --    1.36685   1.37993   1.38777   1.39685   1.42134
 Alpha virt. eigenvalues --    1.43442   1.44247   1.45928   1.46411   1.46834
 Alpha virt. eigenvalues --    1.48528   1.48997   1.49484   1.50023   1.50807
 Alpha virt. eigenvalues --    1.50974   1.51987   1.52799   1.53413   1.55570
 Alpha virt. eigenvalues --    1.56179   1.56633   1.57274   1.58066   1.58441
 Alpha virt. eigenvalues --    1.59165   1.59369   1.59864   1.60293   1.61063
 Alpha virt. eigenvalues --    1.61704   1.62976   1.63700   1.64131   1.64724
 Alpha virt. eigenvalues --    1.65026   1.65431   1.66028   1.66485   1.67115
 Alpha virt. eigenvalues --    1.67856   1.68293   1.68851   1.69771   1.70200
 Alpha virt. eigenvalues --    1.70529   1.71200   1.71366   1.72435   1.73419
 Alpha virt. eigenvalues --    1.74057   1.74389   1.75091   1.75675   1.76107
 Alpha virt. eigenvalues --    1.76801   1.77550   1.77939   1.78647   1.79725
 Alpha virt. eigenvalues --    1.80441   1.80933   1.81395   1.82289   1.82390
[...]
 0307,-0.00000181,0.00000284,-0.00009076,0.00000385,-0.00001269,-0.0000
 0029,0.00000134,0.00000440,-0.00000490,0.00000323,-0.00000243,-0.00000
 178,0.00000003,-0.00000622,-0.00000166,-0.00000413,0.00000203,0.000002
 19,-0.00000060,-0.00000084,-0.00001006,-0.00000247,0.00000748,0.000174
 20,-0.00001491,0.00003197,-0.00007477,0.00004251,-0.00001380,0.0002196
 7,0.00006870,0.00037054,-0.00069264,-0.00042201,-0.00054085,-0.0004734
 6,-0.00033118,0.00023582,0.00038897,0.00260987,-0.00141680,-0.01037114
 ,-0.01313439,-0.00973855,-0.20157206,-0.13520272,-0.06419634,0.0028780
 6,-0.00042927,0.00158666,0.00399603,-0.00289951,0.00088136,-0.00027330
 ,0.00057509,0.00052874,0.00088824,-0.00305834,0.00362265,0.00000215,0.
 00000014,-0.00000060,0.00000064,-0.00000057,0.00000049,-0.00000273,0.0
 0000011,0.00000012,0.00000307,-0.00000808,-0.00000098,0.00000298,0.000
 00197,0.00000037,-0.00000141,-0.00000040,-0.00000080,-0.00000614,-0.00
 000420,-0.00000388,0.00000129,0.00000352,-0.00001529,0.00000172,0.0000
 0142,0.00000016,0.00000121,0.00000026,0.,0.00000641,0.00000060,0.00000
 232,0.00000133,0.00001440,-0.00000454,-0.00010865,-0.00007136,0.000041
 31,0.20666783,-0.00001289,-0.00000496,-0.00000392,0.00002580,-0.000001
 74,0.00000472,-0.00001065,0.00000356,-0.00000166,-0.00001119,0.0000022
 8,-0.00000322,0.00000382,-0.00000137,0.00000053,-0.00000206,0.00000846
 ,-0.00000189,0.00002477,-0.00002105,0.00001242,-0.00001045,0.00000345,
 -0.00000114,-0.00000005,-0.00000257,0.00000178,-0.00008814,-0.00002233
 ,-0.00000419,-0.00000246,0.00002345,-0.00001020,-0.00000440,0.00000053
 ,-0.00000216,0.00000150,-0.00000076,-0.00000619,0.00000237,-0.00000709
 ,0.00000194,0.00000060,-0.00000016,-0.00000167,-0.00000700,-0.00000061
 ,0.00000883,0.00009610,0.00001949,0.00000700,-0.00005591,-0.00002994,0
 .00001674,-0.00002071,0.00029732,0.00011313,-0.00012472,-0.00041563,-0
 .00033943,-0.00030075,-0.00016499,0.00018124,0.00250667,-0.00170781,0.
 00009749,-0.00764139,-0.00238041,-0.00546401,-0.13530768,-0.15022861,-
 0.05841338,-0.00588186,-0.00048731,-0.00051972,-0.00268446,0.00570208,
 -0.00230524,0.00051895,-0.00038623,0.00040055,-0.00306754,0.00396206,0
 .00084407,0.00000209,0.00000128,0.00000041,0.00000119,0.00000027,0.000
 00101,0.00000110,0.00000011,0.00000029,0.00000303,-0.00000203,-0.00000
 171,0.00000079,0.00000017,-0.00000049,-0.00000177,-0.00000065,-0.00000
 101,-0.00000304,-0.00000429,-0.00000202,0.00000371,0.00000176,-0.00000
 515,-0.00000083,0.00000111,0.00000103,-0.00000112,-0.00000096,0.000000
 19,0.00000441,0.00000048,0.00000210,0.00000730,-0.00000285,-0.00002167
 ,-0.00005105,-0.00001250,-0.00000169,0.14918511,0.14959859,-0.00000330
 ,-0.00000006,-0.00000122,0.00000847,-0.00000471,0.00000257,-0.00000386
 ,0.00000456,-0.00000202,-0.00000335,0.00000141,-0.00000093,0.00000129,
 -0.00000098,-0.00000002,-0.00000015,0.00000171,-0.00000111,0.00000550,
 0.00000023,0.00000230,-0.00000095,-0.00000088,0.00000054,0.00000103,-0
 .00000025,0.00000091,0.00000303,0.00000561,0.00000246,0.00000574,-0.00
 000353,-0.00000300,-0.00000011,-0.00000387,-0.00000305,-0.00000053,-0.
 00000042,0.00000322,-0.00000231,0.00000061,-0.00000157,0.00000069,0.00
 000349,0.00000156,-0.00000346,-0.00000070,-0.00000096,-0.00002505,0.00
 002010,-0.00002210,0.00001094,-0.00001068,0.00000621,0.00011253,-0.000
 08151,-0.00039039,0.00080642,0.00063443,-0.00008142,0.00018909,0.00016
 637,0.00016190,-0.00200179,-0.00033429,0.00145985,0.01468434,0.0124393
 4,0.01187654,-0.06426496,-0.05849628,-0.08665857,-0.02212829,-0.017896
 80,-0.00316235,0.00149884,-0.00184887,-0.00468557,0.00031127,0.0002431
 6,-0.00084570,0.00278870,0.00016033,-0.00225517,0.00000080,0.00000012,
 0.00000011,0.00000044,-0.00000009,0.00000061,0.00000011,-0.00000019,0.
 00000062,0.00000067,-0.00000082,0.00000097,0.00000075,0.00000027,-0.00
 000022,0.00000006,-0.00000035,-0.00000018,0.00000172,0.00000129,0.0000
 0289,0.00000030,-0.00000008,0.00000450,0.00000103,0.00000032,0.0000004
 2,0.00000062,0.00000041,0.00000073,0.00000422,-0.00000012,-0.00000153,
 -0.00003222,-0.00001161,0.00000806,0.00010073,0.00007120,-0.00001028,0
 .06951743,0.06452456,0.08378538,-0.00001431,-0.00000047,-0.00000556,0.
 00003833,-0.00002210,0.00001196,-0.00001590,0.00002092,-0.00000847,-0.
 00002255,0.00000705,-0.00000708,0.00000945,-0.00000311,0.00000164,-0.0
 0001106,0.00001434,-0.00000780,0.00006009,-0.00003610,0.00002215,-0.00
 001828,0.00000323,-0.00000181,0.00000392,-0.00000285,0.00000398,-0.000
 10871,-0.00000264,-0.00000701,0.00000108,0.00000297,-0.00001060,-0.000
 00597,-0.00000373,-0.00001391,0.00000016,-0.00000264,-0.00000455,-0.00
 000364,-0.00000870,0.00000385,0.00000096,0.00001019,0.00000550,-0.0000
 2385,-0.00000418,0.00000961,0.00014341,0.00001978,0.00000564,-0.000055
 76,-0.00000918,0.00002459,0.00007598,0.00006824,-0.00000848,-0.0000345
 9,-0.00001988,-0.00010801,-0.00032722,0.00082394,-0.00004571,0.0005712
 5,-0.00066682,0.00016142,0.00364726,-0.00330602,-0.00034231,0.00441043
 ,0.00034679,-0.00333595,-0.17498115,-0.07392431,0.12707984,-0.01114532
 ,-0.00593253,0.01655223,-0.00047189,-0.00456633,-0.00202675,-0.0000576
 5,0.00014017,-0.00094258,0.00000314,0.00000080,0.00000035,0.00000108,-
 0.00000034,0.00000212,-0.00000167,0.00000022,0.00000167,0.00000450,-0.
 00000694,0.00000002,0.00000428,0.00000190,0.00000008,-0.00000208,-0.00
 000117,-0.00000084,-0.00000392,-0.00000207,0.00000068,0.00000260,0.000
 00334,-0.00000667,0.00000251,0.00000085,0.00000125,0.00000166,0.000000
 68,0.00000140,0.00002128,0.00000023,0.00000432,0.00000929,0.00001239,-
 0.00005934,-0.00001445,0.00001469,0.00001541,-0.00115903,0.00264213,-0
 .00033676,0.18039753,-0.00001306,-0.00000550,-0.00000433,0.00002597,-0
 .00000071,0.00000451,-0.00001064,0.00000279,-0.00000150,-0.00001068,0.
 00000209,-0.00000329,0.00000373,-0.00000146,0.00000126,-0.00000321,0.0
 0000762,-0.00000083,0.00002705,-0.00001331,0.00001039,-0.00000751,0.00
 000172,-0.00000007,0.00000050,-0.00000161,0.00000258,-0.00006283,-0.00
 004142,0.00000981,-0.00000538,0.00001693,-0.00001281,-0.00000024,-0.00
 000203,-0.00000763,0.00000240,-0.00000532,-0.00000467,0.00000191,-0.00
 000980,0.00000658,-0.00000096,0.00000443,0.00000034,-0.00001014,0.0000
 0554,0.00000717,0.00008346,0.00013502,-0.00010071,-0.00006629,-0.00003
 910,0.00010029,-0.00001284,-0.00004141,-0.00002657,0.00006032,0.000023
 27,0.00005334,0.00078974,-0.00085119,0.00004411,-0.00033166,0.00121851
 ,-0.00024645,-0.00357733,0.00467573,-0.00298437,0.00602339,0.00578541,
 -0.00673081,-0.07403960,-0.07574119,0.06059678,-0.01151381,-0.00339667
 ,0.01372309,-0.00439537,0.00134665,-0.00256647,0.00027028,-0.00050124,
 -0.00071069,0.00000200,0.00000139,0.00000064,0.00000117,0.00000037,0.0
 0000123,0.00000123,0.00000002,0.00000014,0.00000228,-0.00000267,-0.000
 00375,0.00000102,0.00000038,-0.00000077,-0.00000149,-0.00000072,-0.000
 00092,-0.00000231,-0.00000388,0.00000036,0.00000215,-0.00000137,-0.000
 00134,-0.00000019,0.00000033,0.00000108,-0.00000111,-0.00000078,0.0000
 0150,0.00001182,0.00000244,0.00000187,-0.00001868,0.00002190,0.0000411
 8,0.00000245,-0.00001039,-0.00000386,0.00253149,-0.00273543,0.00111075
 ,0.08292717,0.07185368,0.00001624,0.00000364,0.00000511,-0.00003690,0.
 00001194,-0.00000885,0.00001550,-0.00001269,0.00000462,0.00001873,-0.0
 0000502,0.00000551,-0.00000720,0.00000311,-0.00000059,0.00000673,-0.00
 001393,0.00000463,-0.00004525,0.00003241,-0.00002189,0.00001635,-0.000
 00460,0.00000235,-0.00000139,0.00000351,-0.00000256,0.00011869,0.00001
 083,0.00001266,-0.00000199,-0.00001991,0.00000218,0.00000687,-0.000003
 60,-0.00000016,0.00000134,0.00000119,0.00000951,-0.00000030,0.00000563
 ,-0.00000354,-0.00000265,0.00000470,0.00000483,0.00000624,0.00000014,-
 0.00001033,-0.00014554,-0.00001419,-0.00002357,0.00007538,0.00000878,0
 .00001173,-0.00010139,-0.00008719,0.00004882,0.00006073,0.00016989,0.0
 0047772,-0.00006090,0.00007986,-0.00102089,0.00142345,0.00070586,0.000
 13674,-0.00131840,-0.00375811,-0.00429669,0.02141481,0.01162244,-0.015
 33639,0.12704088,0.06041483,-0.18014275,-0.00852816,-0.00471529,0.0088
 6210,-0.00138760,-0.00206010,0.00040132,-0.00043960,-0.00031404,-0.000
 55336,-0.00000308,-0.00000127,-0.00000035,-0.00000150,0.00000006,-0.00
 000151,0.,-0.00000001,-0.00000086,-0.00000482,0.00000553,0.00000067,-0
 .00000165,-0.00000095,-0.00000016,0.00000228,0.00000093,0.00000123,0.0
 0000462,0.00000627,0.00000279,-0.00000394,-0.00000271,0.00001139,-0.00
 000114,-0.00000241,-0.00000005,-0.00000033,0.00000026,0.00000002,-0.00
 000101,-0.00000117,-0.00000253,0.00003163,0.00002110,-0.00001412,-0.00
 000211,-0.00000823,-0.00001498,-0.00078454,0.00076332,0.00107834,-0.13
 685975,-0.06334563,0.18933592,0.00000669,0.00000244,-0.00000122,-0.000
 01043,-0.00000498,0.00000225,0.00000556,0.00000229,-0.00000393,-0.0000
 0284,0.00000018,-0.00000211,0.00000131,0.00000012,-0.00000171,-0.00000
 174,0.00000657,-0.00000337,0.00001732,-0.00001200,0.00001032,-0.000003
 55,0.00000053,-0.00000457,-0.00000118,-0.00000039,-0.00000251,-0.00003
 292,0.00000310,-0.00001500,0.00000285,0.00000458,0.00000913,-0.0000045
 2,0.00001066,0.00000464,-0.00000280,0.00000318,-0.00001401,0.00000174,
 0.00000016,0.00000566,0.00000107,-0.00001416,-0.00000385,0.00000293,-0
 .00000349,0.00000390,0.00008824,-0.00002331,0.00005058,-0.00005899,0.0
 0002094,-0.00006217,0.00013004,0.00004387,0.00001773,0.00124976,0.0000
 6557,0.00099630,-0.00090399,0.00032152,0.00021994,0.00028108,0.0001727
 7,-0.00030347,-0.00110749,-0.00026600,0.00052378,-0.00135880,-0.005106
 36,-0.00054341,0.00276087,-0.00506434,-0.02245907,-0.05090391,-0.01251
 053,-0.00975793,0.00417010,0.00518702,0.02117072,-0.00042212,-0.005008
 59,0.00356980,-0.00000143,-0.00000011,0.00000130,-0.00000133,0.0000000
 3,0.00000070,-0.00000190,0.00000070,0.00000188,0.00000096,-0.00000217,
 0.00000437,-0.00000066,-0.00000055,0.00000285,-0.00000134,0.00000010,0
 .00000122,-0.00000072,-0.00000362,-0.00000190,0.00000012,0.00000132,-0
 .00000839,0.00000081,0.00000068,-0.00000300,0.00000154,0.00000092,-0.0
 0000275,-0.00001023,0.00000172,0.00001348,-0.00001078,0.00000646,-0.00
 000228,-0.00003044,0.00000052,0.00000812,0.00006384,-0.00031239,-0.001
 04206,-0.00041474,0.00205061,-0.00013000,0.04726075,-0.00000137,-0.000
 00459,0.00000010,-0.00000416,0.00001509,-0.00000472,0.00000191,-0.0000
 1239,0.00000546,0.00000593,-0.00000332,0.00000205,-0.00000210,-0.00000
 012,0.00000028,0.00000454,-0.00000333,0.00000352,-0.00001955,0.0000083
 2,-0.00000213,0.00000463,0.00000289,0.00000017,-0.00000325,0.,-0.00000
 147,-0.00000681,-0.00002327,0.00001187,-0.00000268,0.00002327,-0.00000
 257,-0.00000311,0.00000643,-0.00000025,0.00000342,-0.00000639,-0.00001
 280,0.00001118,-0.00000832,0.00001639,-0.00000565,-0.00001122,-0.00000
 941,0.00001033,0.00001538,0.00000767,0.00001958,0.00003143,-0.00003126
 ,-0.00000709,-0.00003823,0.00002001,-0.00002455,0.00007629,0.00002690,
 -0.00030528,0.00131383,0.00017520,0.00045062,-0.00090609,0.00036746,0.
 00015280,0.00003677,-0.00015977,-0.00028721,-0.00064065,0.00061249,-0.
 00524802,0.00133326,-0.00121600,0.00026855,-0.00097953,-0.01850681,-0.
 01223440,-0.06090111,-0.06949698,-0.00008145,0.00595844,0.01157803,-0.
 00500358,0.00405080,0.00073244,-0.00000057,0.00000084,0.00000042,0.000
 00020,0.00000050,-0.00000060,0.00000197,-0.00000042,-0.00000152,-0.000
 00039,0.00000174,-0.00000323,-0.00000333,-0.00000147,0.,-0.00000049,0.
 00000048,-0.00000024,0.00000049,-0.00000526,-0.00000241,0.00000054,-0.
 00000466,-0.00000151,-0.00000238,-0.00000060,-0.00000189,-0.00000276,-
 0.00000139,-0.00000044,-0.00001435,0.00000373,0.00000376,0.00000980,0.
 00001109,0.00000352,0.00000078,-0.00002236,0.00001422,-0.00003411,-0.0
 0008841,-0.00087045,0.00195847,-0.00166168,0.00079009,0.01775856,0.055
 14340,0.00001543,0.00000506,0.00000870,-0.00003627,0.00001267,-0.00001
 194,0.00001375,-0.00001233,0.00000839,0.00002358,-0.00000484,0.0000081
 7,-0.00000937,0.00000352,0.00000044,0.00000758,-0.00002125,0.00000744,
 -0.00006431,0.00004705,-0.00003369,0.00002091,-0.00000753,0.00000598,0
 .00000025,0.00000465,-0.00000082,0.00017685,0.00002887,0.00001908,-0.0
 0000173,-0.00003966,0.00000322,0.00001205,-0.00001229,0.00000795,-0.00
 000039,0.00000784,0.00002793,-0.00000860,0.00001651,-0.00002439,0.0000
 0071,0.00001438,0.00001295,0.00001186,-0.00001125,-0.00002283,-0.00025
 731,-0.00003102,-0.00001702,0.00014065,0.00001847,0.00001089,-0.000200
 33,-0.00020522,0.00000075,-0.00031071,-0.00072244,-0.00062234,0.000437
 16,0.00056389,-0.00030969,-0.00024857,-0.00015681,0.00011622,0.0000567
 3,0.00028522,0.00052436,-0.00103667,-0.00162962,0.00135770,0.00232272,
 -0.00021337,-0.00590254,-0.00918059,-0.06934351,-0.32035504,-0.0032151
 6,-0.00629278,-0.01471610,0.00357604,0.00096254,-0.00019085,-0.0000022
 7,-0.00000213,-0.00000232,-0.00000068,-0.00000038,-0.00000299,0.000000
 72,-0.00000060,-0.00000271,-0.00000602,0.00000753,-0.00000133,-0.00000
 042,-0.00000019,-0.00000228,0.00000432,0.00000097,0.00000042,0.0000052
 3,0.00001272,0.00000439,-0.00000407,-0.00000024,0.00001869,-0.00000084
 ,-0.00000213,0.00000265,0.00000079,0.00000072,0.00000044,-0.00000162,-
 0.00000432,-0.00001490,0.00001863,0.00000359,0.00001665,0.00003468,0.0
 0000977,-0.00003111,0.00013351,-0.00001822,-0.00034533,-0.00054962,0.0
 0045676,0.00070404,0.00865934,0.07542677,0.33897417,0.00001805,0.00000
 784,0.00000717,-0.00003748,0.00000337,-0.00000690,0.00001444,-0.000005
 13,0.00000331,0.00001829,-0.00000157,0.00000512,-0.00000847,0.00000562
 ,-0.00000278,0.00000470,-0.00001706,0.00000616,-0.00006189,0.00003038,
 -0.00001502,0.00001130,-0.00000483,0.00000160,0.00000185,0.00000255,-0
 .00000486,0.00011171,0.00010479,-0.00002502,0.00000521,-0.00007794,0.0
 0004004,0.00000683,-0.00000027,0.00003881,-0.00002102,0.00005058,0.000
 02696,-0.00002746,0.00004942,-0.00007452,0.00001130,-0.00000171,0.0000
 2444,-0.00000072,-0.00009715,-0.00000929,-0.00011872,-0.00033080,0.000
 50645,-0.00010022,0.00015405,-0.00012996,-0.00022553,0.00002895,-0.000
 26582,-0.00077015,0.00126050,-0.00010190,0.00005031,-0.00012681,-0.000
 36650,0.00009587,-0.00002553,0.00011201,0.00296197,-0.00152251,0.00085
 440,-0.00010943,0.00044266,0.00029813,0.00132206,-0.00356590,0.0042622
 2,-0.01070389,-0.01177020,-0.00973378,-0.20425490,-0.13559266,-0.06675
 204,0.00207006,-0.00011640,0.00123430,-0.00000237,-0.00000267,-0.00000
 155,-0.00000113,-0.00000051,-0.00000207,-0.00000131,0.00000023,-0.0000
 0112,-0.00000430,0.00000371,0.00000399,0.00000141,-0.00000063,0.000002
 73,0.00000317,0.00000067,0.00000124,0.00000134,0.00001445,0.00000115,-
 0.00000717,0.00000783,-0.00000175,0.00000569,0.00000477,0.00000038,0.0
 0000156,0.00000330,-0.00000305,-0.00006464,-0.00003184,0.00000429,0.00
 009835,0.00012301,-0.00014847,0.00006931,0.00008314,-0.00004283,-0.000
 47814,0.00057308,-0.00020764,-0.00051641,-0.00073685,-0.00038935,-0.00
 075873,0.00263437,-0.00053793,0.21138927,-0.00004469,-0.00001581,-0.00
 001157,0.00009326,-0.00001189,0.00001162,-0.00003756,0.00001584,-0.000
 00171,-0.00004467,0.00000194,-0.00001477,0.00002318,-0.00001823,0.0000
 1500,-0.00002240,0.00004247,-0.00000446,0.00013791,-0.00004001,0.00004
 827,-0.00001902,0.00001958,0.00000277,-0.00000839,-0.00000427,0.000013
 23,-0.00032417,-0.00046120,0.00013117,-0.00004005,0.00018545,-0.000102
 41,0.00001755,-0.00003254,0.00009505,-0.00000916,0.00003594,-0.0000390
 8,0.00004342,-0.00004227,-0.00002081,0.00001268,-0.00009446,-0.0000325
 8,0.00002864,0.00010387,-0.00000506,0.00042421,0.00156015,-0.00119204,
 -0.00028408,-0.00054632,0.00126928,-0.00002635,-0.00058454,-0.00016462
 ,0.00131830,-0.00129885,0.00128543,-0.00035701,-0.00021224,-0.00050935
 ,-0.00022874,-0.00012561,-0.00045380,-0.00141954,0.00432396,-0.0015417
 1,0.00065552,-0.00027762,-0.00007308,-0.00398623,0.00538145,0.00121508
 ,-0.00694359,-0.00338870,-0.00523654,-0.13459283,-0.13982511,-0.058571
 09,-0.00553040,-0.00153170,-0.00096366,0.00000648,0.00000515,0.0000005
 0,0.00000356,0.00000012,0.00000239,0.00000295,-0.00000112,-0.00000077,
 0.00001200,-0.00002124,-0.00002762,-0.00000718,0.00000077,-0.00000574,
 -0.00000546,-0.00000131,-0.00000446,-0.00000195,-0.00004043,0.00000184
 ,0.00000278,-0.00003170,0.00001273,-0.00001440,-0.00000230,-0.00000219
 ,-0.00000034,-0.00000446,-0.00000264,-0.00003651,0.00005854,-0.0000122
 5,-0.00010193,0.00005231,0.00028966,0.00010694,-0.00001628,-0.00006622
 ,0.00059011,-0.00091575,0.00017728,-0.00049839,-0.00003731,-0.00029526
 ,0.00266585,-0.00270918,0.00084264,0.14843970,0.14050492,-0.00004025,-
 0.00000854,-0.00001686,0.00010060,-0.00004226,0.00002808,-0.00003938,0
 .00004199,-0.00001774,-0.00006657,0.00001511,-0.00002191,0.00002809,-0
 .00000823,0.00000685,-0.00004100,0.00005167,-0.00001919,0.00022067,-0.
 00009327,0.00006577,-0.00005021,0.00000238,-0.00000631,0.00000567,-0.0
 0000278,0.00001097,-0.00028048,-0.00014810,0.00002291,-0.00000196,0.00
 004885,-0.00009640,0.00000047,0.00001785,-0.00011087,0.00000664,-0.000
 05545,-0.00006977,0.00000522,-0.00005137,0.00008708,-0.00003306,0.0000
 4963,0.00002245,-0.00012595,-0.00004644,0.00005964,0.00069405,0.000496
 94,-0.00054894,-0.00017122,-0.00010692,0.00041151,-0.00045259,-0.00049
 199,-0.00017193,0.00010307,0.00124690,0.00313221,-0.00109362,-0.000984
 45,-0.00065442,-0.00078589,-0.00107995,-0.00189515,0.00234693,-0.00026
 827,-0.00373401,0.00052649,0.00022834,-0.00123883,0.00334285,0.0003904
 2,-0.00171269,0.01467681,0.01217608,0.01071155,-0.06739720,-0.05949682
 ,-0.08799365,-0.02280214,-0.01764528,-0.00407458,0.00000703,0.00000372
 ,0.00000252,0.00000239,-0.00000004,0.00000528,-0.00000396,0.00000149,0
 .00000360,0.00001105,-0.00002135,-0.00000933,0.00001238,0.00000285,0.0
 0000079,-0.00000791,-0.00000321,-0.00000144,-0.00000740,-0.00000977,0.
 00001217,0.00001744,0.00000040,0.00000406,0.00000456,-0.00000162,0.000
 00267,0.00000596,0.00000303,0.00000009,0.00009261,-0.00000013,0.000082
 01,0.00014114,0.00041851,-0.00036379,0.00002942,0.00017258,0.00002124,
 -0.00024054,0.00014663,0.00007201,0.00077984,0.00058168,0.00033188,-0.
 00090929,0.00052766,0.00076857,0.07138928,0.06394155,0.08689190\\-0.00
 000849,-0.00000304,0.00000198,0.00000116,0.00000518,-0.00000961,0.0000
 0134,-0.00000429,0.00000022,0.00000629,0.00000186,0.00000359,-0.000007
 02,0.00000140,-0.00000288,0.00000584,-0.00000074,0.,-0.00000186,0.0000
 0299,-0.00000178,-0.00000155,-0.00000288,-0.00000103,0.00000088,-0.000
 00562,-0.00000351,-0.00000127,-0.00000043,0.00000008,-0.00000111,0.000
 00120,0.00000224,-0.00000254,-0.00000483,0.00000873,-0.00000360,0.0000
 0534,0.00000354,0.00000228,-0.00000909,0.00000111,0.00000151,-0.000000
 37,-0.00000081,0.00000107,0.00000548,-0.00001060,0.00000128,-0.0000036
 1,-0.00000322,-0.00000140,0.00000112,0.00000214,0.00000454,0.00000399,
 0.00001025,-0.00000443,-0.00000665,-0.00002229,0.00001147,0.00001293,0
 .00001596,-0.00001239,-0.00000961,-0.00000333,0.00000456,0.00000341,0.
 00000094,0.00000017,0.00000036,0.00000442,0.00000131,-0.00000083,-0.00
 000301,0.00000228,0.00000043,-0.00000140,0.00000036,-0.00000121,0.0000
 0130,-0.00000518,-0.00000207,0.00000782,0.00000160,0.00000453,-0.00000
 422,0.00000446,-0.00000318,-0.00000248,0.00000208,-0.00000284,-0.00000
 189,-0.00000263,-0.00000177,-0.00000152,0.00000053,0.00000341,-0.00000
 044,0.00000178,0.00000332,0.00000041,0.00000263,-0.00000003,0.00000030
 ,-0.00000331,0.00000023,-0.00000373,-0.00000040,0.00000069,-0.00000247
 ,-0.00000160,0.00000472,0.00000307,-0.00000083,-0.00000158,0.00000542,
 -0.00000213,0.00000341,0.00000083,0.00000250,0.00000023,-0.00000442,-0
 .00000259,-0.00000208,-0.00000001,-0.00000127,-0.00000138,0.00000438,0
 .00000048,-0.00000050,0.00000469,0.00000321,0.00000237,0.00000127\\\@


 Mondays are the potholes in the road of life.
                                -- Tom Wilson
 Job cpu time:  0 days 11 hours 41 minutes 55.8 seconds.
 File lengths (MBytes):  RWF=   1260 Int=      0 D2E=      0 Chk=     19 Scr=      1
 Normal termination of Gaussian 09 at Wed Aug 31 18:51:51 2022.
