 Entering Gaussian System, Link 0=g09
 Input=Mol14.gjf
 Output=Mol14.log
 Initial command:
 /opt/gaussian/l1.exe /home/scr/lqcapf-6/Gau-122782.inp -scrdir=/home/scr/lqcapf-6/
 Entering Link 1 = /opt/gaussian/l1.exe PID=    122784.
  
 Copyright (c) 1988,1990,1992,1993,1995,1998,2003,2009,2011,
            Gaussian, Inc.  All Rights Reserved.
  
 This is part of the Gaussian(R) 09 program.  It is based on
 the Gaussian(R) 03 system (copyright 2003, Gaussian, Inc.),
 the Gaussian(R) 98 system (copyright 1998, Gaussian, Inc.),
 the Gaussian(R) 94 system (copyright 1995, Gaussian, Inc.),
 the Gaussian 92(TM) system (copyright 1992, Gaussian, Inc.),
 the Gaussian 90(TM) system (copyright 1990, Gaussian, Inc.),
 the Gaussian 88(TM) system (copyright 1988, Gaussian, Inc.),
 the Gaussian 86(TM) system (copyright 1986, Carnegie Mellon
 University), and the Gaussian 82(TM) system (copyright 1983,
 Carnegie Mellon University). Gaussian is a federally registered
 trademark of Gaussian, Inc.
  
 This software contains proprietary and confidential information,
 including trade secrets, belonging to Gaussian, Inc.
  
 This software is provided under written license and may be
 used, copied, transmitted, or stored only in accord with that
 written license.
  
 The following legend is applicable only to US Government
 contracts under FAR:
  
                    RESTRICTED RIGHTS LEGEND
  
 Use, reproduction and disclosure by the US Government is
 subject to restrictions as set forth in subparagraphs (a)
 and (c) of the Commercial Computer Software - Restricted
 Rights clause in FAR 52.227-19.
  
 Gaussian, Inc.
 340 Quinnipiac St., Bldg. 40, Wallingford CT 06492
  
  
 ---------------------------------------------------------------
 Warning -- This program may not be used in any manner that
 competes with the business of Gaussian, Inc. or will provide
 assistance to any competitor of Gaussian, Inc.  The licensee
 of this program is prohibited from giving any competitor of
 Gaussian, Inc. access to this program.  By using this program,
 the user acknowledges that Gaussian, Inc. is engaged in the
 business of creating and licensing software in the field of
 computational chemistry and represents and warrants to the
 licensee that it is not a competitor of Gaussian, Inc. and that
 it will not use this program in any manner prohibited above.
 ---------------------------------------------------------------
  

 Cite this work as:
 Gaussian 09, Revision C.01,
 M. J. Frisch, G. W. Trucks, H. B. Schlegel, G. E. Scuseria, 
 M. A. Robb, J. R. Cheeseman, G. Scalmani, V. Barone, B. Mennucci, 
 G. A. Petersson, H. Nakatsuji, M. Caricato, X. Li, H. P. Hratchian, 
 A. F. Izmaylov, J. Bloino, G. Zheng, J. L. Sonnenberg, M. Hada, 
 M. Ehara, K. Toyota, R. Fukuda, J. Hasegawa, M. Ishida, T. Nakajima, 
 Y. Honda, O. Kitao, H. Nakai, T. Vreven, J. A. Montgomery, Jr., 
 J. E. Peralta, F. Ogliaro, M. Bearpark, J. J. Heyd, E. Brothers, 
 K. N. Kudin, V. N. Staroverov, T. Keith, R. Kobayashi, J. Normand, 
 K. Raghavachari, A. Rendell, J. C. Burant, S. S. Iyengar, J. Tomasi, 
 M. Cossi, N. Rega, J. M. Millam, M. Klene, J. E. Knox, J. B. Cross, 
 V. Bakken, C. Adamo, J. Jaramillo, R. Gomperts, R. E. Stratmann, 
 O. Yazyev, A. J. Austin, R. Cammi, C. Pomelli, J. W. Ochterski, 
 R. L. Martin, K. Morokuma, V. G. Zakrzewski, G. A. Voth, 
 P. Salvador, J. J. Dannenberg, S. Dapprich, A. D. Daniels, 
 O. Farkas, J. B. Foresman, J. V. Ortiz, J. Cioslowski, 
 and D. J. Fox, Gaussian, Inc., Wallingford CT, 2010.
 
 ******************************************
 Gaussian 09:  EM64L-G09RevC.01 23-Sep-2011
                 2-Sep-2022 
 ******************************************
 %nprocshared=8
 Will use up to    8 processors via shared memory.
 %mem=1600MB
 -------------------------
 #p opt freq b3lyp/cc-pvdz
 -------------------------
 1/14=-1,18=20,19=15,26=3,38=1/1,3;
 2/9=110,12=2,17=6,18=5,40=1/2;
 3/5=16,11=2,16=1,25=1,30=1,71=1,74=-5/1,2,3;
 4//1;
 5/5=2,38=5/2;
 6/7=2,8=2,9=2,10=2,28=1/1;
 7//1,2,3,16;
 1/14=-1,18=20,19=15/3(2);
 2/9=110/2;
 99//99;
 2/9=110/2;
 3/5=16,11=2,16=1,25=1,30=1,71=1,74=-5/1,2,3;
 4/5=5,16=3/1;
 5/5=2,38=5/2;
 7//1,2,3,16;
 1/14=-1,18=20,19=15/3(-5);
 2/9=110/2;
 6/7=2,8=2,9=2,10=2,19=2,28=1/1;
 99/9=1/99;
 Leave Link    1 at Fri Sep  2 04:33:35 2022, MaxMem=  209715200 cpu:       0.2
 (Enter /opt/gaussian/l101.exe)
 ---------
 Mol14.log
 ---------
 Charge =  0 Multiplicity = 1
 Symbolic Z-Matrix:
 O                    -0.94998  -1.43983   0.31413 
 C                    -1.13597  -0.34084   0.81152 
 C                    -2.52782   0.08411   1.2624 
 N                    -3.50224  -0.9398    1.04791 
 N                    -3.90343  -1.7166    2.09451 
 N                    -4.7307   -2.5848    1.68452 
 C                    -4.90975  -2.42479   0.31942 
 C                    -5.71372  -3.12481  -0.57894 
 C                    -5.68559  -2.72443  -1.89239 
 C                    -4.87037  -1.64806  -2.30792 
 C                    -4.07277  -0.95473  -1.42897 
 C                    -4.10992  -1.36725  -0.09463 
 N                    -0.1233    0.56741   0.9919 
 C                    -0.35136   1.9224    1.49949 
 C                    -0.8222    2.91927   0.46629 
 C                    -1.26136   4.24616   0.853 
 C                    -1.62818   5.02072  -0.17846 
 S                    -1.46094   4.16678  -1.73888 
 C                    -0.87031   2.72314  -0.86199 
 C                     1.22836   0.18322   0.68764 
 C                     2.1769    0.16428   1.7003 
 C                     3.49199  -0.17009   1.42293 
 C                     3.88276  -0.51271   0.13079 
 C                     2.91674  -0.51046  -0.87351 
 C                     1.60483  -0.16282  -0.60142 
 C                     5.29092  -0.88073  -0.16715 
 C                     6.35761  -0.15387   0.3593 
 C                     7.65435  -0.53235   0.05561 
 N                     7.93628  -1.57197  -0.7272 
 C                     6.92541  -2.27434  -1.23566 
 C                     5.59886  -1.96749  -0.9841 
 H                    -2.52371   0.2846    2.32369 
 H                    -2.82672   0.98847   0.74965 
 H                    -6.32259  -3.93978  -0.24325 
 H                    -6.28578  -3.23247  -2.621 
 H                    -4.87378  -1.36891  -3.34376 
 H                    -3.45023  -0.14708  -1.75788 
 H                    -1.05539   1.89988   2.32152 
 H                     0.58204   2.27077   1.91756 
 H                    -1.29108   4.57826   1.87176 
 H                    -1.98744   6.0246   -0.15638 
 H                    -0.58915   1.85406  -1.41019 
 H                     1.88568   0.38985   2.70797 
 H                     4.20733  -0.19638   2.22156 
 H                     3.19318  -0.76337  -1.87827 
 H                     0.87462  -0.18429  -1.38354 
 H                     6.18303   0.70405   0.97729 
 H                     8.49119   0.01194   0.44254 
 H                     7.18922  -3.10694  -1.85475 
 H                     4.82173  -2.57799  -1.39827 
 
 NAtoms=     50 NQM=        0 NQMF=       0 NMMI=     50 NMMIF=      0
                NMic=       0 NMicF=      0.
                    Isotopes and Nuclear Properties:
 (Nuclear quadrupole moments (NQMom) in fm**2, nuclear magnetic moments (NMagM)
  in nuclear magnetons)

  Atom         1           2           3           4           5           6           7           8           9          10
 IAtWgt=          16          12          12          14          14          14          12          12          12          12
 AtmWgt=  15.9949146  12.0000000  12.0000000  14.0030740  14.0030740  14.0030740  12.0000000  12.0000000  12.0000000  12.0000000
 NucSpn=           0           0           0           2           2           2           0           0           0           0
 AtZEff=   0.0000000   0.0000000   0.0000000   0.0000000   0.0000000   0.0000000   0.0000000   0.0000000   0.0000000   0.0000000
 NQMom=    0.0000000   0.0000000   0.0000000   2.0440000   2.0440000   2.0440000   0.0000000   0.0000000   0.0000000   0.0000000
 NMagM=    0.0000000   0.0000000   0.0000000   0.4037610   0.4037610   0.4037610   0.0000000   0.0000000   0.0000000   0.0000000

  Atom        11          12          13          14          15          16          17          18          19          20
 IAtWgt=          12          12          14          12          12          12          12          32          12          12
 AtmWgt=  12.0000000  12.0000000  14.0030740  12.0000000  12.0000000  12.0000000  12.0000000  31.9720718  12.0000000  12.0000000
 NucSpn=           0           0           2           0           0           0           0           0           0           0
 AtZEff=   0.0000000   0.0000000   0.0000000   0.0000000   0.0000000   0.0000000   0.0000000   0.0000000   0.0000000   0.0000000
 NQMom=    0.0000000   0.0000000   2.0440000   0.0000000   0.0000000   0.0000000   0.0000000   0.0000000   0.0000000   0.0000000
 NMagM=    0.0000000   0.0000000   0.4037610   0.0000000   0.0000000   0.0000000   0.0000000   0.0000000   0.0000000   0.0000000

  Atom        21          22          23          24          25          26          27          28          29          30
 IAtWgt=          12          12          12          12          12          12          12          12          14          12
 AtmWgt=  12.0000000  12.0000000  12.0000000  12.0000000  12.0000000  12.0000000  12.0000000  12.0000000  14.0030740  12.0000000
 NucSpn=           0           0           0           0           0           0           0           0           2           0
 AtZEff=   0.0000000   0.0000000   0.0000000   0.0000000   0.0000000   0.0000000   0.0000000   0.0000000   0.0000000   0.0000000
 NQMom=    0.0000000   0.0000000   0.0000000   0.0000000   0.0000000   0.0000000   0.0000000   0.0000000   2.0440000   0.0000000
 NMagM=    0.0000000   0.0000000   0.0000000   0.0000000   0.0000000   0.0000000   0.0000000   0.0000000   0.4037610   0.0000000

  Atom        31          32          33          34          35          36          37          38          39          40
 IAtWgt=          12           1           1           1           1           1           1           1           1           1
 AtmWgt=  12.0000000   1.0078250   1.0078250   1.0078250   1.0078250   1.0078250   1.0078250   1.0078250   1.0078250   1.0078250
 NucSpn=           0           1           1           1           1           1           1           1           1           1
 AtZEff=   0.0000000   0.0000000   0.0000000   0.0000000   0.0000000   0.0000000   0.0000000   0.0000000   0.0000000   0.0000000
 NQMom=    0.0000000   0.0000000   0.0000000   0.0000000   0.0000000   0.0000000   0.0000000   0.0000000   0.0000000   0.0000000
 NMagM=    0.0000000   2.7928460   2.7928460   2.7928460   2.7928460   2.7928460   2.7928460   2.7928460   2.7928460   2.7928460

  Atom        41          42          43          44          45          46          47          48          49          50
 IAtWgt=           1           1           1           1           1           1           1           1           1           1
 AtmWgt=   1.0078250   1.0078250   1.0078250   1.0078250   1.0078250   1.0078250   1.0078250   1.0078250   1.0078250   1.0078250
 NucSpn=           1           1           1           1           1           1           1           1           1           1
 AtZEff=   0.0000000   0.0000000   0.0000000   0.0000000   0.0000000   0.0000000   0.0000000   0.0000000   0.0000000   0.0000000
 NQMom=    0.0000000   0.0000000   0.0000000   0.0000000   0.0000000   0.0000000   0.0000000   0.0000000   0.0000000   0.0000000
 NMagM=    2.7928460   2.7928460   2.7928460   2.7928460   2.7928460   2.7928460   2.7928460   2.7928460   2.7928460   2.7928460
 Leave Link  101 at Fri Sep  2 04:33:36 2022, MaxMem=  209715200 cpu:       0.9
 (Enter /opt/gaussian/l103.exe)

 GradGradGradGradGradGradGradGradGradGradGradGradGradGradGradGradGradGrad
 Berny optimization.
 Initialization pass.
                           ----------------------------
                           !    Initial Parameters    !
                           ! (Angstroms and Degrees)  !
 --------------------------                            --------------------------
 ! Name  Definition              Value          Derivative Info.                !
 --------------------------------------------------------------------------------
 ! R1    R(1,2)                  1.2206         estimate D2E/DX2                !
 ! R2    R(2,3)                  1.5235         estimate D2E/DX2                !
 ! R3    R(2,13)                 1.3722         estimate D2E/DX2                !
 ! R4    R(3,4)                  1.4296         estimate D2E/DX2                !
 ! R5    R(3,32)                 1.0801         estimate D2E/DX2                !
 ! R6    R(3,33)                 1.0817         estimate D2E/DX2                !
 ! R7    R(4,5)                  1.3637         estimate D2E/DX2                !
 ! R8    R(4,12)                 1.3629         estimate D2E/DX2                !
 ! R9    R(5,6)                  1.2674         estimate D2E/DX2                !
 ! R10   R(6,7)                  1.3861         estimate D2E/DX2                !
 ! R11   R(7,8)                  1.3941         estimate D2E/DX2                !
 ! R12   R(7,12)                 1.3891         estimate D2E/DX2                !
 ! R13   R(8,9)                  1.3734         estimate D2E/DX2                !
 ! R14   R(8,34)                 1.0713         estimate D2E/DX2                !
 ! R15   R(9,10)                 1.4127         estimate D2E/DX2                !
 ! R16   R(9,35)                 1.072          estimate D2E/DX2                !
 ! R17   R(10,11)                1.3746         estimate D2E/DX2                !
 ! R18   R(10,36)                1.0728         estimate D2E/DX2                !
 ! R19   R(11,12)                1.3971         estimate D2E/DX2                !
 ! R20   R(11,37)                1.0715         estimate D2E/DX2                !
 ! R21   R(13,14)                1.4648         estimate D2E/DX2                !
 ! R22   R(13,20)                1.4378         estimate D2E/DX2                !
 ! R23   R(14,15)                1.5109         estimate D2E/DX2                !
 ! R24   R(14,38)                1.0825         estimate D2E/DX2                !
 ! R25   R(14,39)                1.0805         estimate D2E/DX2                !
 ! R26   R(15,16)                1.4502         estimate D2E/DX2                !
 ! R27   R(15,19)                1.3435         estimate D2E/DX2                !
 ! R28   R(16,17)                1.341          estimate D2E/DX2                !
 ! R29   R(16,40)                1.0719         estimate D2E/DX2                !
 ! R30   R(17,18)                1.7866         estimate D2E/DX2                !
 ! R31   R(17,41)                1.0665         estimate D2E/DX2                !
 ! R32   R(18,19)                1.7894         estimate D2E/DX2                !
 ! R33   R(19,42)                1.0653         estimate D2E/DX2                !
 ! R34   R(20,21)                1.3876         estimate D2E/DX2                !
 ! R35   R(20,25)                1.3868         estimate D2E/DX2                !
 ! R36   R(21,22)                1.385          estimate D2E/DX2                !
 ! R37   R(21,43)                1.0729         estimate D2E/DX2                !
 ! R38   R(22,23)                1.3927         estimate D2E/DX2                !
 ! R39   R(22,44)                1.0725         estimate D2E/DX2                !
 ! R40   R(23,24)                1.3935         estimate D2E/DX2                !
 ! R41   R(23,26)                1.4856         estimate D2E/DX2                !
 ! R42   R(24,25)                1.3842         estimate D2E/DX2                !
 ! R43   R(24,45)                1.0723         estimate D2E/DX2                !
 ! R44   R(25,46)                1.0702         estimate D2E/DX2                !
 ! R45   R(26,27)                1.394          estimate D2E/DX2                !
 ! R46   R(26,31)                1.394          estimate D2E/DX2                !
 ! R47   R(27,28)                1.3846         estimate D2E/DX2                !
 ! R48   R(27,47)                1.0716         estimate D2E/DX2                !
 ! R49   R(28,29)                1.3316         estimate D2E/DX2                !
 ! R50   R(28,48)                1.0706         estimate D2E/DX2                !
 ! R51   R(29,30)                1.3318         estimate D2E/DX2                !
 ! R52   R(30,31)                1.3846         estimate D2E/DX2                !
 ! R53   R(30,49)                1.0706         estimate D2E/DX2                !
 ! R54   R(31,50)                1.0715         estimate D2E/DX2                !
 ! A1    A(1,2,3)              120.7275         estimate D2E/DX2                !
 ! A2    A(1,2,13)             122.4849         estimate D2E/DX2                !
 ! A3    A(3,2,13)             116.7875         estimate D2E/DX2                !
 ! A4    A(2,3,4)              112.2412         estimate D2E/DX2                !
 ! A5    A(2,3,32)             109.822          estimate D2E/DX2                !
 ! A6    A(2,3,33)             110.203          estimate D2E/DX2                !
 ! A7    A(4,3,32)             106.437          estimate D2E/DX2                !
 ! A8    A(4,3,33)             109.8354         estimate D2E/DX2                !
 ! A9    A(32,3,33)            108.1576         estimate D2E/DX2                !
 ! A10   A(3,4,5)              119.5596         estimate D2E/DX2                !
 ! A11   A(3,4,12)             130.8676         estimate D2E/DX2                !
 ! A12   A(5,4,12)             109.485          estimate D2E/DX2                !
 ! A13   A(4,5,6)              109.5098         estimate D2E/DX2                !
 ! A14   A(5,6,7)              108.8954         estimate D2E/DX2                !
 ! A15   A(6,7,8)              130.632          estimate D2E/DX2                !
 ! A16   A(6,7,12)             107.883          estimate D2E/DX2                !
 ! A17   A(8,7,12)             121.4847         estimate D2E/DX2                !
 ! A18   A(7,8,9)              117.2635         estimate D2E/DX2                !
 ! A19   A(7,8,34)             120.5212         estimate D2E/DX2                !
 ! A20   A(9,8,34)             122.2153         estimate D2E/DX2                !
 ! A21   A(8,9,10)             121.0124         estimate D2E/DX2                !
 ! A22   A(8,9,35)             120.0246         estimate D2E/DX2                !
 ! A23   A(10,9,35)            118.9628         estimate D2E/DX2                !
 ! A24   A(9,10,11)            122.0773         estimate D2E/DX2                !
 ! A25   A(9,10,36)            118.7126         estimate D2E/DX2                !
 ! A26   A(11,10,36)           119.2096         estimate D2E/DX2                !
 ! A27   A(10,11,12)           116.5089         estimate D2E/DX2                !
 ! A28   A(10,11,37)           121.4032         estimate D2E/DX2                !
 ! A29   A(12,11,37)           122.0854         estimate D2E/DX2                !
 ! A30   A(4,12,7)             104.2193         estimate D2E/DX2                !
 ! A31   A(4,12,11)            134.1223         estimate D2E/DX2                !
 ! A32   A(7,12,11)            121.6529         estimate D2E/DX2                !
 ! A33   A(2,13,14)            122.8826         estimate D2E/DX2                !
 ! A34   A(2,13,20)            119.2819         estimate D2E/DX2                !
 ! A35   A(14,13,20)           117.8321         estimate D2E/DX2                !
 ! A36   A(13,14,15)           114.9524         estimate D2E/DX2                !
 ! A37   A(13,14,38)           110.1906         estimate D2E/DX2                !
 ! A38   A(13,14,39)           107.3278         estimate D2E/DX2                !
 ! A39   A(15,14,38)           109.288          estimate D2E/DX2                !
 ! A40   A(15,14,39)           108.7278         estimate D2E/DX2                !
 ! A41   A(38,14,39)           105.9452         estimate D2E/DX2                !
 ! A42   A(14,15,16)           121.0439         estimate D2E/DX2                !
 ! A43   A(14,15,19)           126.2202         estimate D2E/DX2                !
 ! A44   A(16,15,19)           112.728          estimate D2E/DX2                !
 ! A45   A(15,16,17)           113.9666         estimate D2E/DX2                !
 ! A46   A(15,16,40)           123.0453         estimate D2E/DX2                !
 ! A47   A(17,16,40)           122.9881         estimate D2E/DX2                !
 ! A48   A(16,17,18)           111.7214         estimate D2E/DX2                !
 ! A49   A(16,17,41)           128.3094         estimate D2E/DX2                !
 ! A50   A(18,17,41)           119.9688         estimate D2E/DX2                !
 ! A51   A(17,18,19)            89.3412         estimate D2E/DX2                !
 ! A52   A(15,19,18)           112.2427         estimate D2E/DX2                !
 ! A53   A(15,19,42)           128.1985         estimate D2E/DX2                !
 ! A54   A(18,19,42)           119.5454         estimate D2E/DX2                !
 ! A55   A(13,20,21)           119.4614         estimate D2E/DX2                !
 ! A56   A(13,20,25)           121.2384         estimate D2E/DX2                !
 ! A57   A(21,20,25)           119.2994         estimate D2E/DX2                !
 ! A58   A(20,21,22)           120.4114         estimate D2E/DX2                !
 ! A59   A(20,21,43)           119.8013         estimate D2E/DX2                !
 ! A60   A(22,21,43)           119.7746         estimate D2E/DX2                !
 ! A61   A(21,22,23)           120.7712         estimate D2E/DX2                !
 ! A62   A(21,22,44)           119.3484         estimate D2E/DX2                !
 ! A63   A(23,22,44)           119.8478         estimate D2E/DX2                !
 ! A64   A(22,23,24)           118.2778         estimate D2E/DX2                !
 ! A65   A(22,23,26)           120.8603         estimate D2E/DX2                !
 ! A66   A(24,23,26)           120.8604         estimate D2E/DX2                !
 ! A67   A(23,24,25)           121.0491         estimate D2E/DX2                !
 ! A68   A(23,24,45)           119.7485         estimate D2E/DX2                !
 ! A69   A(25,24,45)           119.1922         estimate D2E/DX2                !
 ! A70   A(20,25,24)           120.1776         estimate D2E/DX2                !
 ! A71   A(20,25,46)           119.9397         estimate D2E/DX2                !
 ! A72   A(24,25,46)           119.8661         estimate D2E/DX2                !
 ! A73   A(23,26,27)           121.3579         estimate D2E/DX2                !
 ! A74   A(23,26,31)           121.3341         estimate D2E/DX2                !
 ! A75   A(27,26,31)           117.3079         estimate D2E/DX2                !
 ! A76   A(26,27,28)           119.4253         estimate D2E/DX2                !
 ! A77   A(26,27,47)           120.7004         estimate D2E/DX2                !
 ! A78   A(28,27,47)           119.8615         estimate D2E/DX2                !
 ! A79   A(27,28,29)           122.729          estimate D2E/DX2                !
 ! A80   A(27,28,48)           120.918          estimate D2E/DX2                !
 ! A81   A(29,28,48)           116.352          estimate D2E/DX2                !
 ! A82   A(28,29,30)           118.3912         estimate D2E/DX2                !
 ! A83   A(29,30,31)           122.7484         estimate D2E/DX2                !
 ! A84   A(29,30,49)           116.3528         estimate D2E/DX2                !
 ! A85   A(31,30,49)           120.8977         estimate D2E/DX2                !
 ! A86   A(26,31,30)           119.3982         estimate D2E/DX2                !
 ! A87   A(26,31,50)           120.6955         estimate D2E/DX2                !
 ! A88   A(30,31,50)           119.8908         estimate D2E/DX2                !
 ! D1    D(1,2,3,4)              0.9471         estimate D2E/DX2                !
 ! D2    D(1,2,3,32)           119.1349         estimate D2E/DX2                !
 ! D3    D(1,2,3,33)          -121.8121         estimate D2E/DX2                !
 ! D4    D(13,2,3,4)          -179.1466         estimate D2E/DX2                !
 ! D5    D(13,2,3,32)          -60.9589         estimate D2E/DX2                !
 ! D6    D(13,2,3,33)           58.0942         estimate D2E/DX2                !
 ! D7    D(1,2,13,14)          175.5407         estimate D2E/DX2                !
 ! D8    D(1,2,13,20)           -5.1508         estimate D2E/DX2                !
 ! D9    D(3,2,13,14)           -4.3637         estimate D2E/DX2                !
 ! D10   D(3,2,13,20)          174.9448         estimate D2E/DX2                !
 ! D11   D(2,3,4,5)            100.7574         estimate D2E/DX2                !
 ! D12   D(2,3,4,12)           -75.4456         estimate D2E/DX2                !
 ! D13   D(32,3,4,5)           -19.4154         estimate D2E/DX2                !
 ! D14   D(32,3,4,12)          164.3815         estimate D2E/DX2                !
 ! D15   D(33,3,4,5)          -136.276          estimate D2E/DX2                !
 ! D16   D(33,3,4,12)           47.5209         estimate D2E/DX2                !
 ! D17   D(3,4,5,6)           -177.8025         estimate D2E/DX2                !
 ! D18   D(12,4,5,6)            -0.8475         estimate D2E/DX2                !
 ! D19   D(3,4,12,7)           177.3419         estimate D2E/DX2                !
 ! D20   D(3,4,12,11)           -3.5295         estimate D2E/DX2                !
 ! D21   D(5,4,12,7)             0.8449         estimate D2E/DX2                !
 ! D22   D(5,4,12,11)          179.9735         estimate D2E/DX2                !
 ! D23   D(4,5,6,7)              0.4609         estimate D2E/DX2                !
 ! D24   D(5,6,7,8)           -179.7434         estimate D2E/DX2                !
 ! D25   D(5,6,7,12)             0.0765         estimate D2E/DX2                !
 ! D26   D(6,7,8,9)            179.664          estimate D2E/DX2                !
 ! D27   D(6,7,8,34)            -0.3693         estimate D2E/DX2                !
 ! D28   D(12,7,8,9)            -0.135          estimate D2E/DX2                !
 ! D29   D(12,7,8,34)          179.8316         estimate D2E/DX2                !
 ! D30   D(6,7,12,4)            -0.5669         estimate D2E/DX2                !
 ! D31   D(6,7,12,11)         -179.832          estimate D2E/DX2                !
 ! D32   D(8,7,12,4)           179.2728         estimate D2E/DX2                !
 ! D33   D(8,7,12,11)            0.0078         estimate D2E/DX2                !
 ! D34   D(7,8,9,10)             0.1258         estimate D2E/DX2                !
 ! D35   D(7,8,9,35)           179.9353         estimate D2E/DX2                !
 ! D36   D(34,8,9,10)         -179.8403         estimate D2E/DX2                !
 ! D37   D(34,8,9,35)           -0.0307         estimate D2E/DX2                !
 ! D38   D(8,9,10,11)            0.0107         estimate D2E/DX2                !
 ! D39   D(8,9,10,36)          179.7495         estimate D2E/DX2                !
 ! D40   D(35,9,10,11)        -179.8007         estimate D2E/DX2                !
 ! D41   D(35,9,10,36)          -0.062          estimate D2E/DX2                !
 ! D42   D(9,10,11,12)          -0.1365         estimate D2E/DX2                !
 ! D43   D(9,10,11,37)         179.2993         estimate D2E/DX2                !
 ! D44   D(36,10,11,12)       -179.8739         estimate D2E/DX2                !
 ! D45   D(36,10,11,37)         -0.4382         estimate D2E/DX2                !
 ! D46   D(10,11,12,4)        -178.8804         estimate D2E/DX2                !
 ! D47   D(10,11,12,7)           0.1272         estimate D2E/DX2                !
 ! D48   D(37,11,12,4)           1.688          estimate D2E/DX2                !
 ! D49   D(37,11,12,7)        -179.3044         estimate D2E/DX2                !
 ! D50   D(2,13,14,15)         -81.5256         estimate D2E/DX2                !
 ! D51   D(2,13,14,38)          42.4809         estimate D2E/DX2                !
 ! D52   D(2,13,14,39)         157.4011         estimate D2E/DX2                !
 ! D53   D(20,13,14,15)         99.1565         estimate D2E/DX2                !
 ! D54   D(20,13,14,38)       -136.8371         estimate D2E/DX2                !
 ! D55   D(20,13,14,39)        -21.9169         estimate D2E/DX2                !
 ! D56   D(2,13,20,21)        -117.5106         estimate D2E/DX2                !
 ! D57   D(2,13,20,25)          62.8198         estimate D2E/DX2                !
 ! D58   D(14,13,20,21)         61.8328         estimate D2E/DX2                !
 ! D59   D(14,13,20,25)       -117.8369         estimate D2E/DX2                !
 ! D60   D(13,14,15,16)        171.5574         estimate D2E/DX2                !
 ! D61   D(13,14,15,19)         -9.5447         estimate D2E/DX2                !
 ! D62   D(38,14,15,16)         47.0752         estimate D2E/DX2                !
 ! D63   D(38,14,15,19)       -134.027          estimate D2E/DX2                !
 ! D64   D(39,14,15,16)        -68.137          estimate D2E/DX2                !
 ! D65   D(39,14,15,19)        110.7609         estimate D2E/DX2                !
 ! D66   D(14,15,16,17)        178.978          estimate D2E/DX2                !
 ! D67   D(14,15,16,40)         -1.0707         estimate D2E/DX2                !
 ! D68   D(19,15,16,17)         -0.058          estimate D2E/DX2                !
 ! D69   D(19,15,16,40)        179.8933         estimate D2E/DX2                !
 ! D70   D(14,15,19,18)       -178.8934         estimate D2E/DX2                !
 ! D71   D(14,15,19,42)         -0.2445         estimate D2E/DX2                !
 ! D72   D(16,15,19,18)          0.0828         estimate D2E/DX2                !
 ! D73   D(16,15,19,42)        178.7317         estimate D2E/DX2                !
 ! D74   D(15,16,17,18)          0.0048         estimate D2E/DX2                !
 ! D75   D(15,16,17,41)        179.7918         estimate D2E/DX2                !
 ! D76   D(40,16,17,18)       -179.9465         estimate D2E/DX2                !
 ! D77   D(40,16,17,41)         -0.1595         estimate D2E/DX2                !
 ! D78   D(16,17,18,19)          0.034          estimate D2E/DX2                !
 ! D79   D(41,17,18,19)       -179.7731         estimate D2E/DX2                !
 ! D80   D(17,18,19,15)         -0.0675         estimate D2E/DX2                !
 ! D81   D(17,18,19,42)       -178.847          estimate D2E/DX2                !
 ! D82   D(13,20,21,22)       -178.37           estimate D2E/DX2                !
 ! D83   D(13,20,21,43)          2.9256         estimate D2E/DX2                !
 ! D84   D(25,20,21,22)          1.3061         estimate D2E/DX2                !
 ! D85   D(25,20,21,43)       -177.3984         estimate D2E/DX2                !
 ! D86   D(13,20,25,24)        179.0562         estimate D2E/DX2                !
 ! D87   D(13,20,25,46)         -2.4289         estimate D2E/DX2                !
 ! D88   D(21,20,25,24)         -0.614          estimate D2E/DX2                !
 ! D89   D(21,20,25,46)        177.9009         estimate D2E/DX2                !
 ! D90   D(20,21,22,23)         -0.9943         estimate D2E/DX2                !
 ! D91   D(20,21,22,44)       -178.9143         estimate D2E/DX2                !
 ! D92   D(43,21,22,23)        177.7105         estimate D2E/DX2                !
 ! D93   D(43,21,22,44)         -0.2095         estimate D2E/DX2                !
 ! D94   D(21,22,23,24)         -0.0197         estimate D2E/DX2                !
 ! D95   D(21,22,23,26)       -179.5775         estimate D2E/DX2                !
 ! D96   D(44,22,23,24)        177.89           estimate D2E/DX2                !
 ! D97   D(44,22,23,26)         -1.6678         estimate D2E/DX2                !
 ! D98   D(22,23,24,25)          0.7157         estimate D2E/DX2                !
 ! D99   D(22,23,24,45)        179.5445         estimate D2E/DX2                !
 ! D100  D(26,23,24,25)       -179.7265         estimate D2E/DX2                !
 ! D101  D(26,23,24,45)         -0.8977         estimate D2E/DX2                !
 ! D102  D(22,23,26,27)        -43.5964         estimate D2E/DX2                !
 ! D103  D(22,23,26,31)        136.3717         estimate D2E/DX2                !
 ! D104  D(24,23,26,27)        136.8572         estimate D2E/DX2                !
 ! D105  D(24,23,26,31)        -43.1746         estimate D2E/DX2                !
 ! D106  D(23,24,25,20)         -0.4016         estimate D2E/DX2                !
 ! D107  D(23,24,25,46)       -178.9176         estimate D2E/DX2                !
 ! D108  D(45,24,25,20)       -179.2368         estimate D2E/DX2                !
 ! D109  D(45,24,25,46)          2.2471         estimate D2E/DX2                !
 ! D110  D(23,26,27,28)        179.9894         estimate D2E/DX2                !
 ! D111  D(23,26,27,47)         -1.3187         estimate D2E/DX2                !
 ! D112  D(31,26,27,28)          0.02           estimate D2E/DX2                !
 ! D113  D(31,26,27,47)        178.7119         estimate D2E/DX2                !
 ! D114  D(23,26,31,30)        179.9752         estimate D2E/DX2                !
 ! D115  D(23,26,31,50)         -1.4571         estimate D2E/DX2                !
 ! D116  D(27,26,31,30)         -0.0554         estimate D2E/DX2                !
 ! D117  D(27,26,31,50)        178.5123         estimate D2E/DX2                !
 ! D118  D(26,27,28,29)          0.0402         estimate D2E/DX2                !
 ! D119  D(26,27,28,48)        179.6663         estimate D2E/DX2                !
 ! D120  D(47,27,28,29)       -178.6629         estimate D2E/DX2                !
 ! D121  D(47,27,28,48)          0.9632         estimate D2E/DX2                !
 ! D122  D(27,28,29,30)         -0.0623         estimate D2E/DX2                !
 ! D123  D(48,28,29,30)       -179.7043         estimate D2E/DX2                !
 ! D124  D(28,29,30,31)          0.0241         estimate D2E/DX2                !
 ! D125  D(28,29,30,49)       -179.5943         estimate D2E/DX2                !
 ! D126  D(29,30,31,26)          0.0352         estimate D2E/DX2                !
 ! D127  D(29,30,31,50)       -178.5443         estimate D2E/DX2                !
 ! D128  D(49,30,31,26)        179.6367         estimate D2E/DX2                !
 ! D129  D(49,30,31,50)          1.0573         estimate D2E/DX2                !
 --------------------------------------------------------------------------------
 Trust Radius=3.00D-01 FncErr=1.00D-07 GrdErr=1.00D-06
 Number of steps in this run=    281 maximum allowed number of steps=    300.
 GradGradGradGradGradGradGradGradGradGradGradGradGradGradGradGradGradGrad

 Leave Link  103 at Fri Sep  2 04:33:36 2022, MaxMem=  209715200 cpu:       0.1
 (Enter /opt/gaussian/l202.exe)
                          Input orientation:                          
 ---------------------------------------------------------------------
 Center     Atomic      Atomic             Coordinates (Angstroms)
 Number     Number       Type             X           Y           Z
 ---------------------------------------------------------------------
      1          8           0       -0.949980   -1.439830    0.314130
      2          6           0       -1.135970   -0.340840    0.811520
      3          6           0       -2.527820    0.084110    1.262400
      4          7           0       -3.502240   -0.939800    1.047910
      5          7           0       -3.903430   -1.716600    2.094510
      6          7           0       -4.730700   -2.584800    1.684520
      7          6           0       -4.909750   -2.424790    0.319420
      8          6           0       -5.713720   -3.124810   -0.578940
      9          6           0       -5.685590   -2.724430   -1.892390
     10          6           0       -4.870370   -1.648060   -2.307920
     11          6           0       -4.072770   -0.954730   -1.428970
     12          6           0       -4.109920   -1.367250   -0.094630
     13          7           0       -0.123300    0.567410    0.991900
     14          6           0       -0.351360    1.922400    1.499490
     15          6           0       -0.822200    2.919270    0.466290
     16          6           0       -1.261360    4.246160    0.853000
     17          6           0       -1.628180    5.020720   -0.178460
     18         16           0       -1.460940    4.166780   -1.738880
     19          6           0       -0.870310    2.723140   -0.861990
     20          6           0        1.228360    0.183220    0.687640
     21          6           0        2.176900    0.164280    1.700300
     22          6           0        3.491990   -0.170090    1.422930
     23          6           0        3.882760   -0.512710    0.130790
     24          6           0        2.916740   -0.510460   -0.873510
     25          6           0        1.604830   -0.162820   -0.601420
     26          6           0        5.290920   -0.880730   -0.167150
     27          6           0        6.357610   -0.153870    0.359300
     28          6           0        7.654350   -0.532350    0.055610
     29          7           0        7.936280   -1.571970   -0.727200
     30          6           0        6.925410   -2.274340   -1.235660
     31          6           0        5.598860   -1.967490   -0.984100
     32          1           0       -2.523710    0.284600    2.323690
     33          1           0       -2.826720    0.988470    0.749650
     34          1           0       -6.322590   -3.939780   -0.243250
     35          1           0       -6.285780   -3.232470   -2.621000
     36          1           0       -4.873780   -1.368910   -3.343760
     37          1           0       -3.450230   -0.147080   -1.757880
     38          1           0       -1.055390    1.899880    2.321520
     39          1           0        0.582040    2.270770    1.917560
     40          1           0       -1.291080    4.578260    1.871760
     41          1           0       -1.987440    6.024600   -0.156380
     42          1           0       -0.589150    1.854060   -1.410190
     43          1           0        1.885680    0.389850    2.707970
     44          1           0        4.207330   -0.196380    2.221560
     45          1           0        3.193180   -0.763370   -1.878270
     46          1           0        0.874620   -0.184290   -1.383540
     47          1           0        6.183030    0.704050    0.977290
     48          1           0        8.491190    0.011940    0.442540
     49          1           0        7.189220   -3.106940   -1.854750
     50          1           0        4.821730   -2.577990   -1.398270
 ---------------------------------------------------------------------
                    Distance matrix (angstroms):
                    1          2          3          4          5
     1  O    0.000000
     2  C    1.220561   0.000000
     3  C    2.389809   1.523523   0.000000
     4  N    2.702313   2.452319   1.429648   0.000000
     5  N    3.459656   3.346284   2.413973   1.363724   0.000000
     6  N    4.181240   4.326612   3.486251   2.149514   1.267375
     7  C    4.080435   4.338943   3.585719   2.171860   2.159898
     8  C    5.131272   5.535311   4.882383   3.508782   3.522434
     9  C    5.380049   5.804453   5.273719   4.073977   4.481873
    10  C    4.721013   5.038400   4.608160   3.692561   4.507889
    11  C    3.609091   3.744523   3.272542   2.541783   3.608883
    12  C    3.187095   3.273989   2.539885   1.362860   2.226436
    13  N    2.274156   1.372208   2.467482   3.700278   4.552124
    14  C    3.614971   2.492222   2.858758   4.280673   5.119919
    15  C    4.363626   3.293319   3.403096   4.734271   5.799687
    16  C    5.719949   4.588901   4.369690   5.652762   6.639005
    17  C    6.514699   5.474364   5.220685   6.367408   7.465563
    18  S    5.992496   5.189295   5.178234   6.165246   7.434702
    19  C    4.326653   3.501312   3.771585   4.898153   6.136123
    20  C    2.742073   2.424880   3.801192   4.875402   5.650121
    21  C    3.777832   3.467014   4.725735   5.822133   6.376796
    22  C    4.751081   4.671294   6.027313   7.046442   7.585180
    23  C    4.924281   5.067601   6.536993   7.453975   8.119748
    24  C    4.150390   4.392329   5.878678   6.714126   7.535160
    25  C    2.999340   3.088701   4.540220   5.422744   6.326389
    26  C    6.284350   6.523357   8.006699   8.876910   9.505254
    27  C    7.420014   7.509541   8.934377   9.915065  10.523403
    28  C    8.655914   8.824840  10.271950  11.208041  11.795840
    29  N    8.948041   9.283806  10.779541  11.592687  12.172169
    30  C    8.069698   8.539041  10.058138  10.757861  11.343054
    31  C    6.697099   7.157386   8.677485   9.381643   9.991712
    32  H    3.080360   2.145613   1.080069   2.020963   2.441506
    33  H    3.099753   2.151634   1.081721   2.064827   3.207079
    34  H    5.951921   6.400464   5.732273   4.315246   4.032367
    35  H    6.348174   6.831124   6.340565   5.144447   5.496316
    36  H    5.364829   5.682825   5.369498   4.620825   5.535092
    37  H    3.495093   3.463403   3.166446   2.916088   4.184458
    38  H    3.897998   2.703224   2.566477   3.958906   4.608882
    39  H    4.322803   3.315930   3.857713   5.267390   6.004155
    40  H    6.225750   5.034453   4.700875   6.001412   6.819036
    41  H    7.550855   6.494664   6.131425   7.228264   8.286356
    42  H    3.735397   3.170583   3.746185   4.725886   6.001415
    43  H    4.137531   3.641538   4.654260   5.792534   6.190901
    44  H    5.637580   5.528104   6.808884   7.833747   8.252978
    45  H    4.736031   5.114200   6.581176   7.309056   8.188620
    46  H    2.790632   2.980817   4.318522   5.063561   6.105290
    47  H    7.477689   7.395068   8.737535   9.824036  10.432852
    48  H    9.553000   9.640685  11.049704  12.046354  12.623132
    49  H    8.586610   9.168920  10.692067  11.288456  11.856500
    50  H    6.127019   6.736631   8.257229   8.829266   9.437686
                    6          7          8          9         10
     6  N    0.000000
     7  C    1.386059   0.000000
     8  C    2.526102   1.394075   0.000000
     9  C    3.704807   2.363010   1.373407   0.000000
    10  C    4.103239   2.740032   2.425160   1.412735   0.000000
    11  C    3.575447   2.432793   2.850354   2.438808   1.374564
    12  C    2.243473   1.389085   2.428116   2.748930   2.357073
    13  N    5.625325   5.684681   6.881339   7.077740   6.191267
    14  C    6.287106   6.408553   7.651739   7.845501   6.904057
    15  C    6.859682   6.729681   7.845405   7.814556   6.704060
    16  C    7.706475   7.622141   8.729557   8.700581   7.599881
    17  C    8.422604   8.151822   9.121496   8.909965   7.714857
    18  S    8.245898   7.718788   8.520498   8.084554   6.764642
    19  C    7.039997   6.649360   7.598504   7.343342   6.099064
    20  C    6.645758   6.679349   7.793572   7.931815   7.037150
    21  C    7.434556   7.670119   8.847312   9.114319   8.307492
    22  C    8.573907   8.768731   9.873345  10.086822   9.275381
    23  C    8.994405   8.999992   9.970918  10.026878   9.157162
    24  C    8.326448   8.145041   9.022552   8.940909   7.999422
    25  C    7.157545   6.957313   7.895256   7.834454   6.859030
    26  C   10.332735  10.328337  11.238664  11.263190  10.412661
    27  C   11.428747  11.494001  12.466908  12.518648  11.636761
    28  C   12.659201  12.708561  13.631904  13.658474  12.794518
    29  N   12.934241  12.916780  13.738842  13.720101  12.904059
    30  C   12.020347  11.937836  12.684723  12.636107  11.860961
    31  C   10.686553  10.599017  11.378840  11.346222  10.557429
    32  H    3.675976   4.129295   5.497772   6.068532   5.540198
    33  H    4.155404   4.021748   5.197980   5.379511   4.525100
    34  H    2.843656   2.146604   1.071255   2.145346   3.409367
    35  H    4.623338   3.345426   2.123406   1.072010   2.147501
    36  H    5.175177   3.812488   3.381259   2.145447   1.072800
    37  H    4.408197   3.410768   3.921755   3.414332   2.138290
    38  H    5.833183   6.129214   7.440445   7.783318   6.969481
    39  H    7.201116   7.400141   8.659180   8.874172   7.933517
    40  H    7.948300   8.034130   9.214280   9.317179   8.309519
    41  H    9.221505   8.953126   9.888146   9.655857   8.474085
    42  H    6.814187   6.322001   7.193145   6.867954   5.603535
    43  H    7.326150   7.733385   8.994859   9.390750   8.657739
    44  H    9.267219   9.576278  10.716610  11.008428  10.248327
    45  H    8.876877   8.558483   9.305779   9.092773   8.123307
    46  H    6.826057   6.432639   7.259495   7.053197   6.000168
    47  H   11.420430  11.544358  12.594232  12.682810  11.768716
    48  H   13.531591  13.621234  14.582938  14.626029  13.742340
    49  H   12.445222  12.311678  12.965873  12.880546  12.155962
    50  H   10.037557   9.883098  10.581400  10.519951   9.779010
                   11         12         13         14         15
    11  C    0.000000
    12  C    1.397146   0.000000
    13  N    4.876047   4.562521   0.000000
    14  C    5.540997   5.243071   1.464806   0.000000
    15  C    5.400564   5.431205   2.509178   1.510941   0.000000
    16  C    6.337245   6.365742   3.853268   2.577966   1.450187
    17  C    6.576154   6.853628   4.844211   3.747716   2.341239
    18  S    5.757392   6.351861   4.711890   4.093342   2.612861
    19  C    4.909577   5.274012   2.939746   2.546975   1.343544
    20  C    5.820391   5.613656   1.437762   2.485832   3.426334
    21  C    7.078339   6.715018   2.440341   3.086002   4.255273
    22  C    8.122474   7.843801   3.714837   4.376724   5.391803
    23  C    8.119033   8.041392   4.237533   5.072561   5.833326
    24  C    7.025608   7.121425   3.726044   4.714914   5.247646
    25  C    5.791986   5.862240   2.461369   3.548048   4.065681
    26  C    9.448617   9.413700   5.723136   6.516943   7.225751
    27  C   10.612828  10.547394   6.551536   7.114858   7.810589
    28  C   11.828260  11.794816   7.910623   8.497175   9.161563
    29  N   12.045362  12.064534   8.514052   9.265730   9.914970
    30  C   11.078750  11.131185   7.919715   8.834311   9.481333
    31  C    9.734681   9.767899   6.563034   7.530244   8.198419
    32  H    4.244759   3.330607   2.759640   2.842675   3.645073
    33  H    3.174122   2.812264   2.746717   2.749890   2.797567
    34  H    3.921498   3.396455   7.763476   8.547391   8.820675
    35  H    3.392116   3.820466   8.091248   8.875160   8.787831
    36  H    2.116503   3.337713   6.716721   7.398789   7.022839
    37  H    1.071465   2.165735   4.374957   4.949364   4.610420
    38  H    5.596388   5.083510   2.100514   1.082543   2.129651
    39  H    6.578022   6.268858   2.062956   1.080453   2.120997
    40  H    7.017592   6.867433   4.269049   2.841699   2.224285
    41  H    7.394534   7.690785   5.880007   4.716642   3.374697
    42  H    4.474959   4.950087   2.764511   2.920180   2.170291
    43  H    7.377350   6.847568   2.648098   2.968751   4.330786
    44  H    9.080833   8.712768   4.566158   5.078609   6.171258
    45  H    7.282343   7.541970   4.583437   5.584477   5.931448
    46  H    5.007226   5.282644   2.683955   3.775319   3.991635
    47  H   10.664102  10.553867   6.307827   6.667482   7.364888
    48  H   12.739313  12.687738   8.649843   9.108111   9.756657
    49  H   11.473697  11.566984   8.664711   9.664654  10.290058
    50  H    9.041463   9.107126   6.329279   7.443882   8.096320
                   16         17         18         19         20
    16  C    0.000000
    17  C    1.341048   0.000000
    18  S    2.600764   1.786643   0.000000
    19  C    2.326736   2.514051   1.789379   0.000000
    20  C    4.767969   5.684308   5.384151   3.641011   0.000000
    21  C    5.403822   6.449293   6.409512   4.732714   1.387648
    22  C    6.513250   7.464925   7.303218   5.711506   2.406138
    23  C    7.044885   7.815686   7.344959   5.835067   2.800043
    24  C    6.562224   7.192590   6.464482   4.979764   2.401876
    25  C    5.456142   6.123752   5.425698   3.810903   1.386776
    26  C    8.382009   9.094019   8.575273   7.171571   4.285680
    27  C    8.812077   9.530919   9.176061   7.874742   5.150790
    28  C   10.146914  10.819276  10.411077   9.171152   6.496526
    29  N   10.997466  11.629427  11.057328   9.799090   7.076627
    30  C   10.672517  11.291567  10.586412   9.267561   6.495773
    31  C    9.436472  10.085348   9.382949   7.991688   5.149907
    32  H    4.410262   5.430797   5.718853   4.339213   4.094504
    33  H    3.615740   4.307775   4.261431   3.071482   4.134724
    34  H    9.686456  10.115940   9.570207   8.631610   8.653469
    35  H    9.656261   9.786439   8.877281   8.239583   8.892488
    36  H    7.886151   7.834565   6.698282   6.239537   7.476457
    37  H    5.559533   5.702683   4.750476   3.961915   5.289506
    38  H    2.775609   4.039509   4.667993   3.293440   3.291200
    39  H    2.904062   4.103730   4.597627   3.168573   2.507648
    40  H    1.071935   2.124337   3.637979   3.330451   5.202508
    41  H    2.169997   1.066457   2.496598   3.556052   6.721269
    42  H    3.360958   3.553094   2.493337   1.065305   3.239744
    43  H    5.311864   6.490273   6.726035   5.077828   2.134596
    44  H    7.177443   8.187271   8.176279   6.619238   3.372131
    45  H    7.238657   7.719492   6.781345   5.449819   3.367558
    46  H    5.403093   5.899861   4.951052   3.430735   2.133069
    47  H    8.245055   8.999133   8.820338   7.563682   4.990382
    48  H   10.639987  11.308190  11.003008   9.833112   7.268983
    49  H   11.524422  12.108482  11.302464   9.996571   7.267789
    50  H    9.414947  10.041398   9.223876   7.796723   4.988748
                   21         22         23         24         25
    21  C    0.000000
    22  C    1.384991   0.000000
    23  C    2.414878   1.392737   0.000000
    24  C    2.761727   2.391736   1.393491   0.000000
    25  C    2.394196   2.767565   2.418165   1.384194   0.000000
    26  C    3.778430   2.503900   1.485638   2.504551   3.780376
    27  C    4.402026   3.056689   2.511148   3.672406   4.848915
    28  C    5.761316   4.396139   3.772390   4.827908   6.096305
    29  N    6.486739   5.132255   4.276588   5.132640   6.487587
    30  C    6.092214   4.825385   3.772035   4.394526   5.759284
    31  C    4.843579   3.669243   2.510849   3.054330   4.399495
    32  H    4.743293   6.099734   6.818165   6.360244   5.079498
    33  H    5.159383   6.459231   6.903162   6.153761   4.773834
    34  H    9.636494  10.644844  10.771902   9.875357   8.788498
    35  H   10.091011  11.015277  10.879736   9.754457   8.704205
    36  H    8.803710   9.702815   9.459523   8.217741   7.137750
    37  H    6.612151   7.636262   7.581128   6.438359   5.185680
    38  H    3.721011   5.076505   5.916520   5.638774   4.458148
    39  H    2.651053   3.830178   4.672800   4.579971   3.648797
    40  H    5.616004   6.754705   7.464420   7.151037   6.081180
    41  H    7.425115   8.419772   8.790798   8.201967   7.168447
    42  H    4.492387   5.364649   5.289064   4.262657   3.087954
    43  H    1.072889   2.131922   3.383016   3.834142   3.366955
    44  H    2.127072   1.072480   2.139329   3.368045   3.839707
    45  H    3.833996   3.367371   2.138849   1.072346   2.124585
    46  H    3.365636   3.837591   3.383779   2.129970   1.070224
    47  H    4.106479   2.864334   2.736478   3.945776   4.919726
    48  H    6.440142   5.097676   4.648664   5.751468   6.967234
    49  H    6.961509   5.747850   4.648126   5.094961   6.436155
    50  H    4.910836   3.940223   2.735886   2.859902   4.100788
                   26         27         28         29         30
    26  C    0.000000
    27  C    1.394024   0.000000
    28  C    2.399332   1.384561   0.000000
    29  N    2.790949   2.384049   1.331573   0.000000
    30  C    2.399046   2.713427   2.287632   1.331808   0.000000
    31  C    1.394016   2.381101   2.713975   2.384526   1.384621
    32  H    8.284366   9.106532  10.459661  11.052881  10.416478
    33  H    8.380365   9.263327  10.613549  11.161501  10.473367
    34  H   12.009879  13.247024  14.389397  14.462230  13.389103
    35  H   12.065324  13.349729  14.449295  14.443363  13.318135
    36  H   10.660689  11.888360  13.008059  13.076133  12.020182
    37  H    8.914952  10.033754  11.258280  11.521511  10.604332
    38  H    7.362127   7.938562   9.322535  10.109331   9.683533
    39  H    6.037509   6.454786   7.832108   8.708975   8.416601
    40  H    8.790930   9.120474  10.461236  11.389649  11.141135
    41  H   10.032857  10.396118  11.662017  12.510553  12.226044
    42  H    6.602988   7.444485   8.706251   9.213420   8.575708
    43  H    4.634258   5.080358   6.415841   7.229031   6.931739
    44  H    2.710800   2.844912   4.084870   4.948990   4.863974
    45  H    2.709653   3.923242   4.867782   4.947302   4.077440
    46  H    4.633394   5.753399   6.939527   7.226581   6.403299
    47  H    2.148751   1.071642   2.131422   3.340575   3.784056
    48  H    3.377915   2.141631   1.070639   2.045724   3.239614
    49  H    3.377506   3.783413   3.239496   2.045874   1.070556
    50  H    2.148601   3.365165   3.784461   3.341083   2.131693
                   31         32         33         34         35
    31  C    0.000000
    32  H    9.054807   0.000000
    33  H    9.095822   1.750671   0.000000
    34  H   12.106187   6.234265   6.123284   0.000000
    35  H   12.063345   7.139532   6.414258   2.480995   0.000000
    36  H   10.751859   6.354283   5.148174   4.280372   2.447240
    37  H    9.262756   4.207612   2.822401   4.992908   4.278429
    38  H    8.376319   2.182910   2.537529   8.271824   8.838920
    39  H    7.179900   3.708840   3.824651   9.534881   9.902077
    40  H    9.923409   4.489892   4.062501  10.116638  10.302399
    41  H   11.050365   6.275821   5.185353  10.866920  10.499687
    42  H    7.285415   4.488606   3.228138   8.234237   7.732428
    43  H    5.742485   4.427355   5.138101   9.738126  10.406339
    44  H    3.917836   6.748976   7.283423  11.444105  11.948790
    45  H    2.834915   7.171997   6.798096  10.164288   9.823380
    46  H    5.065353   5.050946   4.430100   8.197792   7.879977
    47  H    3.365328   8.820207   9.017112  13.395723  13.561530
    48  H    3.784048  11.177705  11.364111  15.347133  15.436007
    49  H    2.141407  11.104185  11.129885  13.633032  13.497352
    50  H    1.071531   8.717964   8.708156  11.286470  11.193757
                   36         37         38         39         40
    36  H    0.000000
    37  H    2.456497   0.000000
    38  H    7.573671   5.154300   0.000000
    39  H    8.408016   5.967752   1.726824   0.000000
    40  H    8.683675   6.337591   2.726088   2.972404   0.000000
    41  H    8.553031   6.541727   4.901226   4.999469   2.586536
    42  H    5.699498   3.508736   3.761002   3.552359   4.322634
    43  H    9.241589   6.978828   3.328577   2.421174   5.322953
    44  H   10.715138   8.629983   5.665732   4.395677   7.290546
    45  H    8.221325   6.673021   6.540756   5.516555   7.918606
    46  H    6.187882   4.341180   4.668637   4.124340   6.161909
    47  H   12.050796  10.050138   7.458665   5.891503   8.465926
    48  H   13.959414  12.143502   9.911209   8.356593  10.889755
    49  H   12.278187  11.043915  10.511093   9.316916  12.035974
    50  H    9.962415   8.629251   8.272164   7.244320   9.963506
                   41         42         43         44         45
    41  H    0.000000
    42  H    4.573911   0.000000
    43  H    7.413229   5.022742   0.000000
    44  H    9.095623   6.356110   2.443424   0.000000
    45  H    8.710928   4.623425   4.906431   4.261289   0.000000
    46  H    6.946051   2.509622   4.253508   4.909567   2.440453
    47  H    9.815806   7.272208   4.643403   2.502473   4.387112
    48  H   12.095969   9.448735   6.993408   4.643249   5.835767
    49  H   13.056821   9.236460   7.821348   5.829179   4.632624
    50  H   11.041360   6.994343   5.855738   4.376382   2.485039
                   46         47         48         49         50
    46  H    0.000000
    47  H    5.877234   0.000000
    48  H    7.834872   2.468314   0.000000
    49  H    6.974102   4.853505   4.086573   0.000000
    50  H    4.616242   4.274133   4.853994   2.468435   0.000000
 Stoichiometry    C24H19N5OS
 Framework group  C1[X(C24H19N5OS)]
 Deg. of freedom   144
 Full point group                 C1      NOp   1
 Largest Abelian subgroup         C1      NOp   1
 Largest concise Abelian subgroup C1      NOp   1
                         Standard orientation:                         
 ---------------------------------------------------------------------
 Center     Atomic      Atomic             Coordinates (Angstroms)
 Number     Number       Type             X           Y           Z
 ---------------------------------------------------------------------
      1          8           0        0.949980   -1.439830   -0.314130
      2          6           0        1.135970   -0.340840   -0.811520
      3          6           0        2.527820    0.084111   -1.262400
      4          7           0        3.502240   -0.939799   -1.047910
      5          7           0        3.903430   -1.716599   -2.094510
      6          7           0        4.730701   -2.584799   -1.684520
      7          6           0        4.909751   -2.424789   -0.319420
      8          6           0        5.713721   -3.124809    0.578940
      9          6           0        5.685591   -2.724429    1.892390
     10          6           0        4.870370   -1.648059    2.307920
     11          6           0        4.072770   -0.954729    1.428970
     12          6           0        4.109920   -1.367249    0.094630
     13          7           0        0.123300    0.567410   -0.991900
     14          6           0        0.351360    1.922400   -1.499490
     15          6           0        0.822199    2.919270   -0.466290
     16          6           0        1.261359    4.246160   -0.853000
     17          6           0        1.628179    5.020721    0.178460
     18         16           0        1.460939    4.166780    1.738880
     19          6           0        0.870309    2.723140    0.861990
     20          6           0       -1.228360    0.183220   -0.687640
     21          6           0       -2.176900    0.164280   -1.700300
     22          6           0       -3.491990   -0.170091   -1.422930
     23          6           0       -3.882760   -0.512711   -0.130790
     24          6           0       -2.916740   -0.510461    0.873510
     25          6           0       -1.604830   -0.162820    0.601420
     26          6           0       -5.290920   -0.880731    0.167150
     27          6           0       -6.357610   -0.153871   -0.359300
     28          6           0       -7.654350   -0.532352   -0.055610
     29          7           0       -7.936280   -1.571972    0.727200
     30          6           0       -6.925409   -2.274342    1.235660
     31          6           0       -5.598860   -1.967491    0.984100
     32          1           0        2.523710    0.284601   -2.323690
     33          1           0        2.826720    0.988471   -0.749650
     34          1           0        6.322591   -3.939778    0.243250
     35          1           0        6.285781   -3.232468    2.621000
     36          1           0        4.873780   -1.368909    3.343760
     37          1           0        3.450230   -0.147079    1.757880
     38          1           0        1.055390    1.899880   -2.321520
     39          1           0       -0.582041    2.270770   -1.917560
     40          1           0        1.291079    4.578260   -1.871760
     41          1           0        1.987439    6.024601    0.156380
     42          1           0        0.589150    1.854060    1.410190
     43          1           0       -1.885680    0.389850   -2.707970
     44          1           0       -4.207330   -0.196381   -2.221560
     45          1           0       -3.193180   -0.763371    1.878270
     46          1           0       -0.874620   -0.184290    1.383540
     47          1           0       -6.183030    0.704049   -0.977290
     48          1           0       -8.491190    0.011938   -0.442540
     49          1           0       -7.189219   -3.106942    1.854750
     50          1           0       -4.821729   -2.577991    1.398270
 ---------------------------------------------------------------------
 Rotational constants (GHZ):      0.1842224      0.0667480      0.0557259
 Leave Link  202 at Fri Sep  2 04:33:36 2022, MaxMem=  209715200 cpu:       0.0
 (Enter /opt/gaussian/l301.exe)
 Standard basis: CC-pVDZ (5D, 7F)
 Ernie: Thresh=  0.10000D-02 Tol=  0.10000D-05 Strict=F.
 Ernie:  70 primitive shells out of 805 were deleted.
 There are   533 symmetry adapted basis functions of A   symmetry.
 Integral buffers will be    131072 words long.
 Raffenetti 2 integral format.
 Two-electron integral symmetry is turned on.
   533 basis functions,  1194 primitive gaussians,   564 cartesian basis functions
   111 alpha electrons      111 beta electrons
       nuclear repulsion energy      2889.4061566984 Hartrees.
 IExCor=  402 DFT=T Ex+Corr=B3LYP ExCW=0 ScaHFX=  0.200000
 ScaDFX=  0.800000  0.720000  1.000000  0.810000 ScalE2=  1.000000  1.000000
 IRadAn=      0 IRanWt=     -1 IRanGd=            0 ICorTp=0
 NAtoms=   50 NActive=   50 NUniq=   50 SFac= 1.00D+00 NAtFMM=   60 NAOKFM=F Big=F
 Leave Link  301 at Fri Sep  2 04:33:36 2022, MaxMem=  209715200 cpu:       0.3
 (Enter /opt/gaussian/l302.exe)
 NPDir=0 NMtPBC=     1 NCelOv=     1 NCel=       1 NClECP=     1 NCelD=      1
         NCelK=      1 NCelE2=     1 NClLst=     1 CellRange=     0.0.
 One-electron integrals computed using PRISM.
 NBasis=   533 RedAO= T  NBF=   533
 NBsUse=   533 1.00D-06 NBFU=   533
 Precomputing XC quadrature grid using
 IXCGrd= 2 IRadAn=           0 IRanWt=          -1 IRanGd=           0 AccXCQ= 0.00D+00.
 NRdTot=    3224 NPtTot=      411966 NUsed=      435197 NTot=      435229
 NSgBfM=   549   549   549   549   549 NAtAll=    50    50.
 Leave Link  302 at Fri Sep  2 04:33:37 2022, MaxMem=  209715200 cpu:       7.9
 (Enter /opt/gaussian/l303.exe)
 DipDrv:  MaxL=1.
 Leave Link  303 at Fri Sep  2 04:33:37 2022, MaxMem=  209715200 cpu:       1.1
 (Enter /opt/gaussian/l401.exe)
 Harris functional with IExCor=  402 diagonalized for initial guess.
 ExpMin= 1.22D-01 ExpMax= 1.11D+05 ExpMxC= 1.07D+03 IAcc=2 IRadAn=         4 AccDes= 0.00D+00
 HarFok:  IExCor=  402 AccDes= 0.00D+00 IRadAn=         4 IDoV= 1
 ScaDFX=  1.000000  1.000000  1.000000  1.000000
 FoFCou: FMM=F IPFlag=           0 FMFlag=      100000 FMFlg1=           0
         NFxFlg=           0 DoJE=T BraDBF=F KetDBF=T FulRan=T
         Omega=  0.000000  0.000000  1.000000  0.000000  0.000000 ICntrl=     500 IOpCl=  0
         NMat0=    1 NMatS0=    1 NMatT0=    0 NMatD0=    1 NMtDS0=    0 NMtDT0=    0
         I1Cent=           4 NGrid=           0.
 Petite list used in FoFCou.
 Harris En= -1673.01892171109    
 Initial guess orbital symmetries:
       Occupied  (A) (A) (A) (A) (A) (A) (A) (A) (A) (A) (A) (A)
                 (A) (A) (A) (A) (A) (A) (A) (A) (A) (A) (A) (A)
                 (A) (A) (A) (A) (A) (A) (A) (A) (A) (A) (A) (A)
                 (A) (A) (A) (A) (A) (A) (A) (A) (A) (A) (A) (A)
                 (A) (A) (A) (A) (A) (A) (A) (A) (A) (A) (A) (A)
                 (A) (A) (A) (A) (A) (A) (A) (A) (A) (A) (A) (A)
                 (A) (A) (A) (A) (A) (A) (A) (A) (A) (A) (A) (A)
                 (A) (A) (A) (A) (A) (A) (A) (A) (A) (A) (A) (A)
                 (A) (A) (A) (A) (A) (A) (A) (A) (A) (A) (A) (A)
                 (A) (A) (A)
       Virtual   (A) (A) (A) (A) (A) (A) (A) (A) (A) (A) (A) (A)
                 (A) (A) (A) (A) (A) (A) (A) (A) (A) (A) (A) (A)
                 (A) (A) (A) (A) (A) (A) (A) (A) (A) (A) (A) (A)
                 (A) (A) (A) (A) (A) (A) (A) (A) (A) (A) (A) (A)
                 (A) (A) (A) (A) (A) (A) (A) (A) (A) (A) (A) (A)
                 (A) (A) (A) (A) (A) (A) (A) (A) (A) (A) (A) (A)
                 (A) (A) (A) (A) (A) (A) (A) (A) (A) (A) (A) (A)
                 (A) (A) (A) (A) (A) (A) (A) (A) (A) (A) (A) (A)
                 (A) (A) (A) (A) (A) (A) (A) (A) (A) (A) (A) (A)
                 (A) (A) (A) (A) (A) (A) (A) (A) (A) (A) (A) (A)
                 (A) (A) (A) (A) (A) (A) (A) (A) (A) (A) (A) (A)
                 (A) (A) (A) (A) (A) (A) (A) (A) (A) (A) (A) (A)
                 (A) (A) (A) (A) (A) (A) (A) (A) (A) (A) (A) (A)
                 (A) (A) (A) (A) (A) (A) (A) (A) (A) (A) (A) (A)
                 (A) (A) (A) (A) (A) (A) (A) (A) (A) (A) (A) (A)
                 (A) (A) (A) (A) (A) (A) (A) (A) (A) (A) (A) (A)
                 (A) (A) (A) (A) (A) (A) (A) (A) (A) (A) (A) (A)
                 (A) (A) (A) (A) (A) (A) (A) (A) (A) (A) (A) (A)
                 (A) (A) (A) (A) (A) (A) (A) (A) (A) (A) (A) (A)
                 (A) (A) (A) (A) (A) (A) (A) (A) (A) (A) (A) (A)
                 (A) (A) (A) (A) (A) (A) (A) (A) (A) (A) (A) (A)
                 (A) (A) (A) (A) (A) (A) (A) (A) (A) (A) (A) (A)
                 (A) (A) (A) (A) (A) (A) (A) (A) (A) (A) (A) (A)
                 (A) (A) (A) (A) (A) (A) (A) (A) (A) (A) (A) (A)
                 (A) (A) (A) (A) (A) (A) (A) (A) (A) (A) (A) (A)
                 (A) (A) (A) (A) (A) (A) (A) (A) (A) (A) (A) (A)
                 (A) (A) (A) (A) (A) (A) (A) (A) (A) (A) (A) (A)
                 (A) (A) (A) (A) (A) (A) (A) (A) (A) (A) (A) (A)
                 (A) (A) (A) (A) (A) (A) (A) (A) (A) (A) (A) (A)
                 (A) (A) (A) (A) (A) (A) (A) (A) (A) (A) (A) (A)
                 (A) (A) (A) (A) (A) (A) (A) (A) (A) (A) (A) (A)
                 (A) (A) (A) (A) (A) (A) (A) (A) (A) (A) (A) (A)
                 (A) (A) (A) (A) (A) (A) (A) (A) (A) (A) (A) (A)
                 (A) (A) (A) (A) (A) (A) (A) (A) (A) (A) (A) (A)
                 (A) (A) (A) (A) (A) (A) (A) (A) (A) (A) (A) (A)
                 (A) (A)
 The electronic state of the initial guess is 1-A.
 Leave Link  401 at Fri Sep  2 04:33:40 2022, MaxMem=  209715200 cpu:      23.7
 (Enter /opt/gaussian/l502.exe)
 Closed shell SCF:
 Requested convergence on RMS density matrix=1.00D-08 within 128 cycles.
 Requested convergence on MAX density matrix=1.00D-06.
 Requested convergence on             energy=1.00D-06.
 No special actions if energy rises.
 Using DIIS extrapolation, IDIIS=  1040.
 Integral symmetry usage will be decided dynamically.
       434734 words used for storage of precomputed grid.
 IEnd=     1415942 IEndB=     1415942 NGot=   209715200 MDV=   208634559
 LenX=   208634559 LenY=   208315899
 Fock matrices will be formed incrementally for  20 cycles.
 Integral accuracy reduced to 1.0D-05 until final iterations.

 Cycle   1  Pass 0  IDiag  1:
 FoFCou: FMM=F IPFlag=           0 FMFlag=      100000 FMFlg1=           0
         NFxFlg=           0 DoJE=F BraDBF=F KetDBF=F FulRan=T
         Omega=  0.000000  0.000000  1.000000  0.000000  0.000000 ICntrl=       0 IOpCl=  0
         NMat0=    1 NMatS0=    1 NMatT0=    0 NMatD0=    1 NMtDS0=    0 NMtDT0=    0
         I1Cent=           0 NGrid=           0.
 Symmetry not used in FoFCou.
 E= -1672.53110417547    
 DIIS: error= 2.94D-02 at cycle   1 NSaved=   1.
 NSaved= 1 IEnMin= 1 EnMin= -1672.53110417547     IErMin= 1 ErrMin= 2.94D-02
 ErrMax= 2.94D-02 EMaxC= 1.00D-01 BMatC= 6.13D-01 BMatP= 6.13D-01
 IDIUse=3 WtCom= 7.06D-01 WtEn= 2.94D-01
 Coeff-Com:  0.100D+01
 Coeff-En:   0.100D+01
 Coeff:      0.100D+01
 Gap=     0.317 Goal=   None    Shift=    0.000
 GapD=    0.317 DampG=1.000 DampE=0.500 DampFc=0.5000 IDamp=-1.
 Damping current iteration by 5.00D-01
 RMSDP=4.28D-03 MaxDP=2.11D-01              OVMax= 3.06D-01

 Cycle   2  Pass 0  IDiag  1:
 RMSU=  1.50D-03    CP:  9.79D-01
 E= -1672.71304095409     Delta-E=       -0.181936778623 Rises=F Damp=T
 DIIS: error= 9.99D-03 at cycle   2 NSaved=   2.
 NSaved= 2 IEnMin= 2 EnMin= -1672.71304095409     IErMin= 2 ErrMin= 9.99D-03
 ErrMax= 9.99D-03 EMaxC= 1.00D-01 BMatC= 1.11D-01 BMatP= 6.13D-01
 IDIUse=3 WtCom= 9.00D-01 WtEn= 9.99D-02
 Coeff-Com:  0.232D+00 0.768D+00
 Coeff-En:   0.349D+00 0.651D+00
 Coeff:      0.243D+00 0.757D+00
 Gap=     0.267 Goal=   None    Shift=    0.000
 RMSDP=1.46D-03 MaxDP=7.14D-02 DE=-1.82D-01 OVMax= 2.94D-01

 Cycle   3  Pass 0  IDiag  1:
 RMSU=  9.63D-04    CP:  9.64D-01  7.70D-01
 E= -1673.13123409618     Delta-E=       -0.418193142092 Rises=F Damp=F
 DIIS: error= 8.42D-03 at cycle   3 NSaved=   3.
 NSaved= 3 IEnMin= 3 EnMin= -1673.13123409618     IErMin= 3 ErrMin= 8.42D-03
 ErrMax= 8.42D-03 EMaxC= 1.00D-01 BMatC= 8.64D-02 BMatP= 1.11D-01
 IDIUse=3 WtCom= 9.16D-01 WtEn= 8.42D-02
 Coeff-Com:  0.700D-01 0.460D+00 0.470D+00
 Coeff-En:   0.000D+00 0.000D+00 0.100D+01
 Coeff:      0.641D-01 0.421D+00 0.515D+00
 Gap=     0.184 Goal=   None    Shift=    0.000
 RMSDP=7.33D-04 MaxDP=5.86D-02 DE=-4.18D-01 OVMax= 8.25D-02

 Cycle   4  Pass 0  IDiag  1:
 RMSU=  3.95D-04    CP:  9.68D-01  8.45D-01  6.74D-01
 E= -1673.19372792516     Delta-E=       -0.062493828977 Rises=F Damp=F
 DIIS: error= 3.48D-03 at cycle   4 NSaved=   4.
 NSaved= 4 IEnMin= 4 EnMin= -1673.19372792516     IErMin= 4 ErrMin= 3.48D-03
 ErrMax= 3.48D-03 EMaxC= 1.00D-01 BMatC= 1.88D-02 BMatP= 8.64D-02
 IDIUse=3 WtCom= 9.65D-01 WtEn= 3.48D-02
 Coeff-Com:  0.159D-01 0.143D+00 0.331D+00 0.509D+00
 Coeff-En:   0.000D+00 0.000D+00 0.201D+00 0.799D+00
 Coeff:      0.154D-01 0.138D+00 0.327D+00 0.520D+00
 Gap=     0.182 Goal=   None    Shift=    0.000
 RMSDP=3.28D-04 MaxDP=2.06D-02 DE=-6.25D-02 OVMax= 3.93D-02

 Cycle   5  Pass 0  IDiag  1:
 RMSU=  1.46D-04    CP:  9.67D-01  8.24D-01  7.28D-01  5.69D-01
 E= -1673.20854523458     Delta-E=       -0.014817309422 Rises=F Damp=F
 DIIS: error= 2.27D-03 at cycle   5 NSaved=   5.
 NSaved= 5 IEnMin= 5 EnMin= -1673.20854523458     IErMin= 5 ErrMin= 2.27D-03
 ErrMax= 2.27D-03 EMaxC= 1.00D-01 BMatC= 2.09D-03 BMatP= 1.88D-02
 IDIUse=3 WtCom= 9.77D-01 WtEn= 2.27D-02
 Coeff-Com:  0.270D-02 0.271D-01 0.142D+00 0.334D+00 0.494D+00
 Coeff-En:   0.000D+00 0.000D+00 0.000D+00 0.102D+00 0.898D+00
 Coeff:      0.264D-02 0.265D-01 0.139D+00 0.329D+00 0.503D+00
 Gap=     0.183 Goal=   None    Shift=    0.000
 RMSDP=1.21D-04 MaxDP=7.05D-03 DE=-1.48D-02 OVMax= 1.59D-02

 Cycle   6  Pass 0  IDiag  1:
 RMSU=  3.89D-05    CP:  9.67D-01  8.23D-01  7.44D-01  6.54D-01  5.45D-01
 E= -1673.21070706083     Delta-E=       -0.002161826251 Rises=F Damp=F
 DIIS: error= 6.21D-04 at cycle   6 NSaved=   6.
 NSaved= 6 IEnMin= 6 EnMin= -1673.21070706083     IErMin= 6 ErrMin= 6.21D-04
 ErrMax= 6.21D-04 EMaxC= 1.00D-01 BMatC= 1.83D-04 BMatP= 2.09D-03
 IDIUse=3 WtCom= 9.94D-01 WtEn= 6.21D-03
 Coeff-Com:  0.119D-03-0.293D-02 0.415D-01 0.129D+00 0.291D+00 0.541D+00
 Coeff-En:   0.000D+00 0.000D+00 0.000D+00 0.000D+00 0.269D-01 0.973D+00
 Coeff:      0.118D-03-0.292D-02 0.413D-01 0.128D+00 0.290D+00 0.544D+00
 Gap=     0.182 Goal=   None    Shift=    0.000
 RMSDP=3.03D-05 MaxDP=2.45D-03 DE=-2.16D-03 OVMax= 3.93D-03

 Cycle   7  Pass 0  IDiag  1:
 RMSU=  1.36D-05    CP:  9.67D-01  8.24D-01  7.46D-01  6.48D-01  5.98D-01
                    CP:  6.34D-01
 E= -1673.21088388930     Delta-E=       -0.000176828467 Rises=F Damp=F
 DIIS: error= 1.89D-04 at cycle   7 NSaved=   7.
 NSaved= 7 IEnMin= 7 EnMin= -1673.21088388930     IErMin= 7 ErrMin= 1.89D-04
 ErrMax= 1.89D-04 EMaxC= 1.00D-01 BMatC= 2.05D-05 BMatP= 1.83D-04
 IDIUse=3 WtCom= 9.98D-01 WtEn= 1.89D-03
 Coeff-Com:  0.185D-04-0.418D-02 0.108D-01 0.418D-01 0.118D+00 0.318D+00
 Coeff-Com:  0.516D+00
 Coeff-En:   0.000D+00 0.000D+00 0.000D+00 0.000D+00 0.000D+00 0.488D-01
 Coeff-En:   0.951D+00
 Coeff:      0.185D-04-0.417D-02 0.108D-01 0.417D-01 0.118D+00 0.317D+00
 Coeff:      0.517D+00
 Gap=     0.183 Goal=   None    Shift=    0.000
 RMSDP=9.41D-06 MaxDP=8.35D-04 DE=-1.77D-04 OVMax= 9.06D-04

 Initial convergence to 1.0D-05 achieved.  Increase integral accuracy.
 Cycle   8  Pass 1  IDiag  1:
 E= -1673.21102083536     Delta-E=       -0.000136946055 Rises=F Damp=F
 DIIS: error= 2.36D-04 at cycle   1 NSaved=   1.
 NSaved= 1 IEnMin= 1 EnMin= -1673.21102083536     IErMin= 1 ErrMin= 2.36D-04
 ErrMax= 2.36D-04 EMaxC= 1.00D-01 BMatC= 1.18D-05 BMatP= 1.18D-05
 IDIUse=3 WtCom= 9.98D-01 WtEn= 2.36D-03
 Coeff-Com:  0.100D+01
 Coeff-En:   0.100D+01
 Coeff:      0.100D+01
 Gap=     0.183 Goal=   None    Shift=    0.000
 RMSDP=9.41D-06 MaxDP=8.35D-04 DE=-1.37D-04 OVMax= 7.61D-04

 Cycle   9  Pass 1  IDiag  1:
 RMSU=  1.01D-04    CP:  1.00D+00
 E= -1673.21102724630     Delta-E=       -0.000006410941 Rises=F Damp=F
 DIIS: error= 1.39D-04 at cycle   2 NSaved=   2.
 NSaved= 2 IEnMin= 2 EnMin= -1673.21102724630     IErMin= 2 ErrMin= 1.39D-04
 ErrMax= 1.39D-04 EMaxC= 1.00D-01 BMatC= 5.19D-06 BMatP= 1.18D-05
 IDIUse=3 WtCom= 9.99D-01 WtEn= 1.39D-03
 Coeff-Com:  0.346D+00 0.654D+00
 Coeff-En:   0.101D+00 0.899D+00
 Coeff:      0.345D+00 0.655D+00
 Gap=     0.183 Goal=   None    Shift=    0.000
 RMSDP=9.54D-06 MaxDP=5.31D-04 DE=-6.41D-06 OVMax= 1.20D-03

 Cycle  10  Pass 1  IDiag  1:
 RMSU=  6.73D-06    CP:  1.00D+00  1.00D+00
 E= -1673.21102549773     Delta-E=        0.000001748567 Rises=F Damp=F
 DIIS: error= 1.65D-04 at cycle   3 NSaved=   3.
 NSaved= 3 IEnMin= 2 EnMin= -1673.21102724630     IErMin= 2 ErrMin= 1.39D-04
 ErrMax= 1.65D-04 EMaxC= 1.00D-01 BMatC= 6.80D-06 BMatP= 5.19D-06
 IDIUse=3 WtCom= 4.38D-01 WtEn= 5.62D-01
 Coeff-Com:  0.179D-02 0.533D+00 0.465D+00
 Coeff-En:   0.000D+00 0.549D+00 0.451D+00
 Coeff:      0.785D-03 0.542D+00 0.457D+00
 Gap=     0.183 Goal=   None    Shift=    0.000
 RMSDP=5.08D-06 MaxDP=2.86D-04 DE= 1.75D-06 OVMax= 6.85D-04

 Cycle  11  Pass 1  IDiag  1:
 RMSU=  7.27D-07    CP:  1.00D+00  1.01D+00  4.84D-01
 E= -1673.21103277598     Delta-E=       -0.000007278247 Rises=F Damp=F
 DIIS: error= 9.90D-06 at cycle   4 NSaved=   4.
 NSaved= 4 IEnMin= 4 EnMin= -1673.21103277598     IErMin= 4 ErrMin= 9.90D-06
 ErrMax= 9.90D-06 EMaxC= 1.00D-01 BMatC= 9.92D-08 BMatP= 5.19D-06
 IDIUse=1 WtCom= 1.00D+00 WtEn= 0.00D+00
 Coeff-Com: -0.359D-02 0.336D+00 0.286D+00 0.381D+00
 Coeff:     -0.359D-02 0.336D+00 0.286D+00 0.381D+00
 Gap=     0.183 Goal=   None    Shift=    0.000
 RMSDP=6.47D-07 MaxDP=3.82D-05 DE=-7.28D-06 OVMax= 6.41D-05

 Cycle  12  Pass 1  IDiag  1:
 RMSU=  2.20D-07    CP:  1.00D+00  1.01D+00  4.73D-01  4.57D-01
 E= -1673.21103287297     Delta-E=       -0.000000096997 Rises=F Damp=F
 DIIS: error= 1.69D-06 at cycle   5 NSaved=   5.
 NSaved= 5 IEnMin= 5 EnMin= -1673.21103287297     IErMin= 5 ErrMin= 1.69D-06
 ErrMax= 1.69D-06 EMaxC= 1.00D-01 BMatC= 3.11D-09 BMatP= 9.92D-08
 IDIUse=1 WtCom= 1.00D+00 WtEn= 0.00D+00
 Coeff-Com: -0.226D-02 0.177D+00 0.151D+00 0.230D+00 0.445D+00
 Coeff:     -0.226D-02 0.177D+00 0.151D+00 0.230D+00 0.445D+00
 Gap=     0.183 Goal=   None    Shift=    0.000
 RMSDP=1.35D-07 MaxDP=1.06D-05 DE=-9.70D-08 OVMax= 1.38D-05

 Cycle  13  Pass 1  IDiag  1:
 RMSU=  7.34D-08    CP:  1.00D+00  1.01D+00  4.74D-01  4.86D-01  7.42D-01
 E= -1673.21103287574     Delta-E=       -0.000000002769 Rises=F Damp=F
 DIIS: error= 5.32D-07 at cycle   6 NSaved=   6.
 NSaved= 6 IEnMin= 6 EnMin= -1673.21103287574     IErMin= 6 ErrMin= 5.32D-07
 ErrMax= 5.32D-07 EMaxC= 1.00D-01 BMatC= 2.88D-10 BMatP= 3.11D-09
 IDIUse=1 WtCom= 1.00D+00 WtEn= 0.00D+00
 Coeff-Com: -0.908D-03 0.660D-01 0.556D-01 0.919D-01 0.267D+00 0.520D+00
 Coeff:     -0.908D-03 0.660D-01 0.556D-01 0.919D-01 0.267D+00 0.520D+00
 Gap=     0.183 Goal=   None    Shift=    0.000
 RMSDP=3.88D-08 MaxDP=3.22D-06 DE=-2.77D-09 OVMax= 3.95D-06

 Cycle  14  Pass 1  IDiag  1:
 RMSU=  2.04D-08    CP:  1.00D+00  1.01D+00  4.74D-01  4.91D-01  7.73D-01
                    CP:  7.82D-01
 E= -1673.21103287594     Delta-E=       -0.000000000201 Rises=F Damp=F
 DIIS: error= 1.52D-07 at cycle   7 NSaved=   7.
 NSaved= 7 IEnMin= 7 EnMin= -1673.21103287594     IErMin= 7 ErrMin= 1.52D-07
 ErrMax= 1.52D-07 EMaxC= 1.00D-01 BMatC= 3.10D-11 BMatP= 2.88D-10
 IDIUse=1 WtCom= 1.00D+00 WtEn= 0.00D+00
 Coeff-Com: -0.202D-03 0.125D-01 0.103D-01 0.197D-01 0.904D-01 0.295D+00
 Coeff-Com:  0.572D+00
 Coeff:     -0.202D-03 0.125D-01 0.103D-01 0.197D-01 0.904D-01 0.295D+00
 Coeff:      0.572D+00
 Gap=     0.183 Goal=   None    Shift=    0.000
 RMSDP=1.44D-08 MaxDP=7.95D-07 DE=-2.01D-10 OVMax= 1.75D-06

 Cycle  15  Pass 1  IDiag  1:
 RMSU=  7.13D-09    CP:  1.00D+00  1.01D+00  4.74D-01  4.91D-01  7.87D-01
                    CP:  8.15D-01  7.00D-01
 E= -1673.21103287600     Delta-E=       -0.000000000055 Rises=F Damp=F
 DIIS: error= 7.79D-08 at cycle   8 NSaved=   8.
 NSaved= 8 IEnMin= 8 EnMin= -1673.21103287600     IErMin= 8 ErrMin= 7.79D-08
 ErrMax= 7.79D-08 EMaxC= 1.00D-01 BMatC= 5.12D-12 BMatP= 3.10D-11
 IDIUse=1 WtCom= 1.00D+00 WtEn= 0.00D+00
 Coeff-Com:  0.379D-04-0.393D-02-0.348D-02-0.414D-02 0.824D-02 0.913D-01
 Coeff-Com:  0.340D+00 0.572D+00
 Coeff:      0.379D-04-0.393D-02-0.348D-02-0.414D-02 0.824D-02 0.913D-01
 Coeff:      0.340D+00 0.572D+00
 Gap=     0.183 Goal=   None    Shift=    0.000
 RMSDP=5.57D-09 MaxDP=2.62D-07 DE=-5.55D-11 OVMax= 8.37D-07

 SCF Done:  E(RB3LYP) =  -1673.21103288     A.U. after   15 cycles
             Convg  =    0.5566D-08             -V/T =  2.0049
 KE= 1.664993053983D+03 PE=-9.687736194098D+03 EE= 3.460125950541D+03
 Leave Link  502 at Fri Sep  2 04:44:45 2022, MaxMem=  209715200 cpu:    5310.2
 (Enter /opt/gaussian/l601.exe)
 Copying SCF densities to generalized density rwf, IOpCl= 0 IROHF=0.

 **********************************************************************

            Population analysis using the SCF density.

 **********************************************************************

 Orbital symmetries:
       Occupied  (A) (A) (A) (A) (A) (A) (A) (A) (A) (A) (A) (A)
                 (A) (A) (A) (A) (A) (A) (A) (A) (A) (A) (A) (A)
                 (A) (A) (A) (A) (A) (A) (A) (A) (A) (A) (A) (A)
                 (A) (A) (A) (A) (A) (A) (A) (A) (A) (A) (A) (A)
                 (A) (A) (A) (A) (A) (A) (A) (A) (A) (A) (A) (A)
                 (A) (A) (A) (A) (A) (A) (A) (A) (A) (A) (A) (A)
                 (A) (A) (A) (A) (A) (A) (A) (A) (A) (A) (A) (A)
                 (A) (A) (A) (A) (A) (A) (A) (A) (A) (A) (A) (A)
                 (A) (A) (A) (A) (A) (A) (A) (A) (A) (A) (A) (A)
                 (A) (A) (A)
       Virtual   (A) (A) (A) (A) (A) (A) (A) (A) (A) (A) (A) (A)
                 (A) (A) (A) (A) (A) (A) (A) (A) (A) (A) (A) (A)
                 (A) (A) (A) (A) (A) (A) (A) (A) (A) (A) (A) (A)
                 (A) (A) (A) (A) (A) (A) (A) (A) (A) (A) (A) (A)
                 (A) (A) (A) (A) (A) (A) (A) (A) (A) (A) (A) (A)
                 (A) (A) (A) (A) (A) (A) (A) (A) (A) (A) (A) (A)
                 (A) (A) (A) (A) (A) (A) (A) (A) (A) (A) (A) (A)
                 (A) (A) (A) (A) (A) (A) (A) (A) (A) (A) (A) (A)
                 (A) (A) (A) (A) (A) (A) (A) (A) (A) (A) (A) (A)
                 (A) (A) (A) (A) (A) (A) (A) (A) (A) (A) (A) (A)
                 (A) (A) (A) (A) (A) (A) (A) (A) (A) (A) (A) (A)
                 (A) (A) (A) (A) (A) (A) (A) (A) (A) (A) (A) (A)
                 (A) (A) (A) (A) (A) (A) (A) (A) (A) (A) (A) (A)
                 (A) (A) (A) (A) (A) (A) (A) (A) (A) (A) (A) (A)
                 (A) (A) (A) (A) (A) (A) (A) (A) (A) (A) (A) (A)
                 (A) (A) (A) (A) (A) (A) (A) (A) (A) (A) (A) (A)
                 (A) (A) (A) (A) (A) (A) (A) (A) (A) (A) (A) (A)
[...]
 00000039,-0.00000040,0.00000146,0.00000227,0.00000196,-0.00000014,0.00
 000062,0.00000035,-0.00000034,0.00000108,0.00000045,0.00000076,0.00000
 028,-0.00000061,0.00000105,-0.00000048,0.00000054,-0.00000205,0.000002
 62,-0.00000335,-0.00000045,-0.00000370,0.00000990,0.00000379,-0.000000
 85,0.00000107,-0.00000028,0.00000040,-0.00000037,-0.00000026,-0.000004
 74,0.00000260,-0.00000521,-0.00004154,0.00003440,-0.00001666,-0.000053
 24,0.00015506,0.00074241,0.00007592,-0.00002927,0.00009922,-0.00000708
 ,-0.00002142,0.00001563,-0.03804245,0.25877683,0.00000740,0.00002702,0
 .00001686,-0.00003066,-0.00003452,-0.00001285,-0.00000415,-0.00000625,
 -0.00000353,0.00000242,0.00000381,-0.00000252,-0.00000567,-0.00000380,
 0.00000358,0.00000369,0.00000492,0.00000156,0.00000042,-0.00000033,-0.
 00000157,0.00000031,0.00000064,0.00000105,0.00000026,0.00000115,-0.000
 00102,-0.00000111,-0.00000051,-0.00000026,-0.00000175,-0.00000091,0.00
 000216,0.00000042,0.00000038,-0.00000291,0.00002227,-0.00001234,-0.000
 02429,0.00000355,-0.00001669,0.00001516,0.00000430,-0.00000553,0.00000
 182,0.00000045,0.00000262,-0.00000258,0.00000364,0.00000426,0.00000392
 ,-0.00000515,0.00000428,-0.00000834,0.00001111,0.00000269,0.00000166,0
 .00011302,0.00013930,0.00042537,-0.00047888,0.00014526,-0.00012701,0.0
 0097203,0.00054312,0.00011547,0.00170564,0.00136268,-0.00277972,-0.000
 99983,0.00007496,-0.00011519,0.00028297,-0.00031842,-0.00033553,0.0017
 7187,-0.00713668,-0.00177862,0.02328924,-0.13265266,-0.11883166,-0.001
 38484,-0.00554076,-0.00246865,0.00255532,-0.00314388,0.00599446,-0.000
 37339,0.00061417,0.00009859,-0.00147578,-0.00338938,0.00503423,0.00000
 166,-0.00000129,0.00000140,-0.00000224,0.00000031,-0.00000019,0.000000
 55,-0.00000003,-0.00000004,0.00000044,-0.00000010,0.00000024,-0.000000
 11,-0.00000056,-0.00000039,0.00000060,-0.00000026,-0.00000032,0.000001
 61,0.00000368,-0.00000115,-0.00000163,-0.00000563,0.00000476,-0.000001
 47,-0.00000163,-0.00000077,-0.00000234,-0.00000039,-0.00000032,-0.0000
 0785,-0.00000777,0.00000067,0.00001585,0.00001630,-0.00001102,0.000772
 68,0.00003189,-0.00005707,0.00000675,0.00004173,-0.00000203,-0.0000285
 0,0.00000372,0.00000243,-0.02685452,0.14722111,0.11814990,-0.00005133,
 -0.00004031,-0.00000316,0.00011432,0.00008404,0.00004155,0.00001413,0.
 00001778,0.00000241,-0.00002529,-0.00001403,0.00000793,0.00001324,0.00
 002330,-0.00002384,-0.00001843,-0.00001820,-0.00000815,-0.00000208,-0.
 00000379,0.00000629,0.00000079,0.00000178,-0.00000137,-0.00000210,-0.0
 0000129,0.00000088,0.00000175,0.00000364,0.00000347,-0.00000242,0.0000
 0255,-0.00000632,0.00001104,0.00000030,0.00002312,-0.00017422,0.000004
 04,0.00003550,-0.00000651,-0.00006814,-0.00003656,0.00000223,0.0000031
 4,0.00000852,0.00000217,0.00000532,-0.00001775,-0.00000573,0.00001914,
 0.00000396,-0.00000437,0.00000550,-0.00000454,0.00000276,-0.00000650,0
 .00000888,0.00011818,-0.00003118,-0.00004114,-0.00002538,0.00000684,0.
 00002118,-0.00007454,0.00003545,-0.00011549,-0.00039105,-0.00109245,-0
 .00083033,-0.00032621,0.00015279,0.00028955,-0.00006213,0.00005689,-0.
 00010391,-0.00391452,0.00262170,0.00261359,-0.01698498,-0.01769363,-0.
 00923814,-0.23020582,-0.11646268,-0.05990458,0.01224634,0.00326775,0.0
 0079071,0.00251893,0.00245593,0.00231189,-0.00001413,0.00088784,0.0005
 3357,-0.00000385,-0.00000084,-0.00000272,-0.00000932,-0.00000224,0.000
 00051,-0.00000044,-0.00000119,0.00000020,-0.00000061,-0.00000126,-0.00
 000119,0.00000104,-0.00000018,-0.00000076,0.00000190,-0.00000390,0.000
 00289,-0.00001232,0.00001232,0.00000354,0.00000163,-0.00000741,-0.0000
 0804,-0.00000140,-0.00000186,0.00000204,-0.00000279,0.00000058,-0.0000
 0009,0.00000565,-0.00000626,0.00000809,-0.00002738,0.00000829,0.000022
 41,0.00002529,-0.00001786,0.00000614,0.00001754,-0.00003334,-0.0000046
 9,-0.00004584,0.00001508,0.00000342,0.00062071,0.00038376,-0.00002934,
 0.23648665,-0.00002142,-0.00001627,-0.00000292,0.00004819,0.00003474,0
 .00001819,0.00000647,0.00000775,0.00000141,-0.00001108,-0.00000685,0.0
 0000393,0.00000704,0.00001097,-0.00001018,-0.00000899,-0.00000872,-0.0
 0000385,-0.00000096,-0.00000156,0.00000287,0.00000031,0.00000093,-0.00
 000106,-0.00000107,-0.00000043,0.00000105,0.00000083,0.00000193,0.0000
 0147,-0.00000105,0.00000132,-0.00000312,0.00000421,-0.00000026,0.00000
 974,-0.00007449,-0.00000716,0.00001527,0.00000027,-0.00002105,-0.00001
 617,-0.00000026,0.00000126,0.00000297,0.00000006,0.00000161,-0.0000065
 1,-0.00000311,0.00000525,0.00000086,-0.00000020,0.00000127,-0.00000051
 ,-0.00000153,-0.00000243,0.00000371,0.00005123,-0.00001205,-0.00003149
 ,-0.00002237,0.00001136,-0.00001617,-0.00007808,-0.00002835,0.00000276
 ,0.00031305,0.00021213,0.00034407,0.00011526,-0.00010112,-0.00001623,-
 0.00001438,0.00004623,0.00009274,0.00195099,0.00234918,-0.00359711,0.0
 0718447,0.00810529,0.00049295,-0.11622655,-0.12743004,-0.04569141,-0.0
 1799954,-0.02356468,-0.01136776,0.00057868,0.00037904,-0.00654573,0.00
 016986,-0.00048507,0.00015063,-0.00000141,-0.00000006,-0.00000137,-0.0
 0000292,-0.00000092,0.00000024,-0.00000011,-0.00000062,0.00000011,-0.0
 0000006,-0.00000061,-0.00000058,0.00000083,-0.00000020,0.00000001,0.00
 000071,-0.00000182,0.00000107,-0.00000481,0.00000384,0.00000160,0.0000
 0056,-0.00000168,-0.00000385,0.00000044,-0.00000035,0.00000095,-0.0000
 0017,0.00000048,0.00000009,0.00000318,-0.00000059,0.00000241,-0.000005
 44,0.00000466,0.00000521,-0.00003240,0.00000433,-0.00000676,0.00000345
 ,0.00000038,0.00002958,0.00000963,0.00000244,-0.00000809,-0.00023227,-
 0.00047661,0.00180009,0.12524019,0.14169657,-0.00001131,0.00000132,0.0
 0000222,0.00001329,-0.00000116,-0.00000053,0.00000247,0.00000243,0.000
 00261,-0.00000323,-0.00000185,0.00000041,0.00000034,0.00000286,-0.0000
 0378,-0.00000241,-0.00000157,-0.00000090,-0.00000022,-0.00000099,0.000
 00048,0.00000037,0.00000072,0.00000030,-0.00000019,0.00000033,-0.00000
 035,-0.00000019,0.00000030,0.00000061,-0.00000090,0.00000013,-0.000000
 46,0.00000230,0.00000019,0.00000354,-0.00001250,0.00001682,-0.00000774
 ,-0.00000024,-0.00001195,-0.00000104,0.00000142,-0.00000077,0.00000048
 ,-0.00000008,0.00000172,-0.00000409,-0.00000064,0.00000404,0.00000256,
 -0.00000158,0.00000158,-0.00000274,0.00000193,-0.00000159,0.00000283,0
 .00001449,0.00000509,0.00002261,-0.00001415,-0.00003723,0.00000249,0.0
 0002062,-0.00000095,-0.00005877,0.00014620,0.00037613,-0.00002577,0.00
 008975,0.00009802,-0.00004315,0.00002984,-0.00006661,0.00000375,0.0020
 8012,-0.00342240,0.00497922,0.00661538,0.00263682,0.00758444,-0.059969
 38,-0.04533554,-0.06588125,-0.01287629,-0.01363218,-0.01162354,0.00137
 516,-0.00662637,0.00609819,-0.00010638,0.00009809,-0.00060999,-0.00000
 044,-0.00000034,-0.00000015,-0.00000160,-0.00000052,-0.00000008,0.0000
 0013,-0.00000026,0.00000010,-0.00000002,-0.00000033,-0.00000018,0.0000
 0020,-0.00000016,-0.00000031,0.00000052,-0.00000063,0.00000052,-0.0000
 0102,0.00000217,0.00000013,-0.00000029,-0.00000104,-0.00000070,0.00000
 001,-0.00000067,0.00000002,-0.00000077,-0.00000004,0.00000011,-0.00000
 001,-0.00000172,0.00000155,0.00000279,-0.00000096,0.00000222,0.0000545
 1,0.00000231,-0.00002057,0.00002029,0.00001401,-0.00001161,0.00000233,
 -0.00000914,0.00000402,-0.00039407,0.00165182,-0.00216308,0.06363292,0
 .06397360,0.06272572,-0.00002689,-0.00005461,-0.00001648,0.00007822,0.
 00009016,0.00003943,0.00001143,0.00001263,0.00000242,-0.00001687,-0.00
 001104,0.00000430,0.00000858,0.00001319,-0.00001833,-0.00001096,-0.000
 01285,-0.00000510,-0.00000215,-0.00000236,0.00000405,0.00000098,0.0000
 0033,0.00000020,-0.00000053,-0.00000200,-0.00000122,0.00000176,0.00000
 074,0.00000183,0.00000058,0.00000074,-0.00000454,0.00000736,0.00000184
 ,0.00001757,-0.00012103,-0.00001424,0.00000196,-0.00000058,-0.00003014
 ,-0.00001626,0.00000115,-0.00000107,0.00000365,0.00000017,0.00000221,-
 0.00000988,-0.00000426,0.00000811,0.00000313,-0.00000168,0.00000418,-0
 .00000273,-0.00000190,-0.00000391,0.00000431,0.00007675,-0.00000334,-0
 .00000639,-0.00001925,-0.00003177,0.00013424,-0.00043066,0.00008122,-0
 .00006345,0.00043652,0.00112884,0.00080735,-0.00001637,-0.00002196,0.0
 0008032,-0.00001444,-0.00000083,-0.00002290,-0.00556290,0.00013300,0.0
 0097062,-0.00068622,-0.00069213,-0.00043932,-0.00206104,-0.00437614,-0
 .00191530,0.00523475,-0.02597652,-0.01743641,-0.07533334,0.06023933,0.
 04144307,-0.00237288,0.02406872,0.01590601,-0.00000170,0.00000029,-0.0
 0000241,-0.00000432,-0.00000165,0.00000101,-0.00000109,-0.00000017,0.0
 0000026,-0.00000154,-0.00000024,-0.00000072,-0.00000067,0.00000108,-0.
 00000111,0.00000024,-0.00000045,0.00000258,-0.00000562,0.00000592,0.00
 000201,0.00000133,-0.00000536,-0.00000430,0.00000064,-0.00000053,0.000
 00041,-0.00000033,0.00000049,-0.00000014,0.00000450,-0.00000188,0.0000
 0567,-0.00004423,0.00001051,0.00001981,0.00002227,0.00002648,0.0000060
 9,0.00000822,0.00001210,-0.00002080,-0.00001899,0.00000793,-0.00000029
 ,0.00021087,0.00009795,-0.00006918,0.00020834,-0.00077617,-0.00049468,
 0.07980845,0.00004113,0.00005540,0.00001772,-0.00010592,-0.00009754,-0
 .00004618,-0.00001591,-0.00001791,-0.00000532,0.00002351,0.00001558,-0
 .00000593,-0.00001112,-0.00001919,0.00002565,0.00001613,0.00001695,0.0
 0000714,0.00000263,0.00000355,-0.00000555,-0.00000153,-0.00000143,-0.0
 0000019,0.00000103,0.00000160,0.00000108,-0.00000182,-0.00000163,-0.00
 000328,0.00000054,-0.00000133,0.00000612,-0.00001080,-0.00000187,-0.00
 002408,0.00015678,0.00000530,-0.00000807,0.00000136,0.00004129,0.00002
 495,-0.00000140,0.00000038,-0.00000547,0.00000044,-0.00000382,0.000015
 35,0.00000665,-0.00001160,-0.00000555,0.00000198,-0.00000543,0.0000041
 0,0.00000271,0.00000643,-0.00000760,-0.00011392,0.00001397,0.00000053,
 0.00008779,0.00003279,0.00000899,0.00007039,-0.00006891,0.00008690,-0.
 00024338,-0.00024892,0.00002841,0.00006238,-0.00005505,-0.00008462,0.0
 0002128,-0.00000686,-0.00001125,0.00068596,0.00338379,-0.00278206,0.00
 003667,-0.00000865,0.00046082,-0.00253956,0.00312348,-0.00447057,-0.00
 438657,-0.01913777,-0.00960574,0.05984590,-0.22548220,-0.12231735,-0.0
 0085354,-0.00117523,-0.00472721,0.00000237,0.00000001,0.00000333,0.000
 00618,0.00000222,-0.00000108,0.00000093,0.00000072,-0.00000043,0.00000
 165,0.00000091,0.00000122,0.00000016,-0.00000091,0.00000153,-0.0000008
 9,0.00000157,-0.00000354,0.00000770,-0.00000803,-0.00000259,-0.0000002
 9,0.00000430,0.00000682,-0.00000147,0.00000084,-0.00000056,0.00000015,
 -0.00000073,0.,-0.00000613,0.00000227,-0.00000779,0.00001297,0.0000015
 0,-0.00001455,-0.00000268,-0.00001325,0.00002770,0.00001548,-0.0000131
 6,-0.00000937,0.00001766,-0.00000367,0.00000090,0.00024641,-0.00055673
 ,0.00071030,0.00021594,-0.00030918,-0.00055176,-0.05378455,0.24105946,
 0.00002483,0.00004361,0.00000760,-0.00006533,-0.00007268,-0.00002823,-
 0.00001001,-0.00001218,-0.00000147,0.00001598,0.00001085,-0.00000559,-
 0.00001117,-0.00001446,0.00001553,0.00001184,0.00001382,0.00000554,0.0
 0000186,0.00000155,-0.00000424,-0.00000059,-0.00000038,0.00000123,0.00
 000100,0.00000171,-0.00000081,-0.00000186,-0.00000213,-0.00000155,-0.0
 0000008,-0.00000166,0.00000489,-0.00000532,-0.00000040,-0.00001454,0.0
 0009511,0.00002659,-0.00001352,-0.00000104,0.00002003,0.00001236,0.000
 00046,0.00000103,-0.00000187,0.00000068,-0.00000188,0.00000660,0.00000
 419,-0.00000555,-0.00000126,-0.00000003,-0.00000207,0.00000113,0.00000
 291,0.00000367,-0.00000346,-0.00004522,0.00001159,0.00003546,-0.000043
 64,-0.00003731,-0.00003689,0.00016916,0.00010251,0.00002516,-0.0001895
 0,-0.00011047,-0.00039501,-0.00003567,0.00001925,-0.00009515,0.0000040
 6,-0.00004695,0.00000984,0.00156751,-0.00263139,0.00558328,0.00020282,
 0.00043953,-0.00039838,-0.00091682,-0.00414962,0.00792550,-0.00402913,
 -0.00838461,-0.00893637,0.04163294,-0.12214236,-0.12322998,0.00013742,
 -0.00659691,0.00233220,0.00000151,-0.00000059,0.00000237,0.00000338,0.
 00000132,-0.00000082,0.00000099,0.00000042,-0.00000026,0.00000087,0.00
 000039,0.00000090,-0.00000049,-0.00000043,0.00000016,-0.00000034,0.000
 00167,-0.00000170,0.00000546,-0.00000460,-0.00000222,-0.00000044,0.000
 00403,0.00000516,-0.00000108,0.00000017,-0.00000091,-0.00000028,-0.000
 00073,-0.00000024,-0.00000505,0.00000072,-0.00000313,0.00001783,-0.000
 01493,-0.00000614,-0.00002631,0.00001154,-0.00000250,-0.00005655,0.000
 02399,0.00001338,0.00000824,-0.00000371,0.00000334,-0.00002647,0.00073
 163,-0.00123743,0.00016508,-0.00047915,0.00017423,-0.03848057,0.141545
 00,0.12039807,0.00003971,0.00002707,-0.00000134,-0.00007742,-0.0000535
 4,-0.00002129,-0.00001293,-0.00001832,-0.00000418,0.00002028,0.0000135
 6,-0.00000612,-0.00001159,-0.00001776,0.00002177,0.00001433,0.00001584
 ,0.00000678,0.00000208,0.00000242,-0.00000538,-0.00000116,-0.00000098,
 0.00000064,0.00000097,0.00000160,-0.00000004,-0.00000190,-0.00000228,-
 0.00000309,0.00000087,-0.00000175,0.00000559,-0.00000881,-0.00000089,-
 0.00001981,0.00010327,0.00000624,-0.00001410,-0.00000071,0.00003353,0.
 00001431,-0.00000079,0.00000159,-0.00000360,0.00000048,-0.00000280,0.0
 0001163,0.00000539,-0.00000975,-0.00000358,0.00000165,-0.00000451,0.00
 000322,0.00000152,0.00000518,-0.00000583,-0.00011647,-0.00003950,0.000
 00701,0.00000479,-0.00001014,-0.00004167,0.00025720,-0.00004243,-0.000
 06532,0.00006578,0.00034379,-0.00015479,-0.00040864,0.00076924,-0.0001
 0813,-0.00010508,-0.00000767,0.00015751,0.00761593,0.00499765,0.002591
 45,0.00105606,0.00157560,0.00142115,-0.00012088,0.00170477,0.00112170,
 -0.00595391,0.00142406,0.00214951,-0.01374363,-0.02147997,-0.01235465,
 -0.20212089,-0.12672837,-0.06232227,0.00000252,-0.00000030,0.00000282,
 0.00000605,0.00000167,-0.00000114,0.00000101,0.00000059,-0.00000037,0.
 00000143,0.00000075,0.00000119,-0.00000027,-0.00000063,0.00000092,-0.0
 0000095,0.00000241,-0.00000284,0.00000738,-0.00000717,-0.00000202,0.00
 000051,0.00000496,0.00000632,-0.00000099,0.00000073,-0.00000064,0.0000
 0007,-0.00000062,0.,-0.00000539,0.00000263,-0.00000639,0.00001964,-0.0
 0002513,-0.00000942,-0.00000620,0.00000902,-0.00001398,-0.00069018,0.0
 0077126,0.00003897,0.00001784,0.00005332,-0.00002555,0.00038886,0.0004
 2280,0.00020783,-0.00001947,-0.00016907,-0.00021475,0.00063930,0.00048
 867,-0.00012312,0.21313349,-0.00006390,-0.00001897,0.00002917,0.000093
 72,0.00003159,-0.00001564,0.00001381,0.00002403,0.00000374,-0.00002380
 ,-0.00001597,0.00000973,0.00001710,0.00002449,-0.00002378,-0.00001940,
 -0.00002096,-0.00000881,-0.00000192,-0.00000237,0.00000738,0.00000041,
 0.00000077,-0.00000243,-0.00000179,-0.00000199,0.00000250,0.00000251,0
 .00000449,0.00000326,-0.00000102,0.00000462,-0.00000760,0.00000878,-0.
 00000102,0.00002080,-0.00008038,0.00003653,0.00006539,-0.00000643,-0.0
 0005275,0.00000096,-0.00000044,-0.00000134,0.00000045,-0.00000042,0.00
 000395,-0.00000921,-0.00000656,0.00001448,0.00000131,-0.00000078,0.000
 00191,-0.00000031,0.00000053,-0.00000859,0.00000462,0.00003401,-0.0000
 7819,-0.00001860,0.00000021,0.00014436,0.00013880,-0.00003138,0.000170
 17,-0.00010582,-0.00065924,-0.00034740,0.00205811,0.00024092,-0.000286
 74,-0.00099451,0.00024229,0.00025282,0.00041047,-0.01973136,-0.0098530
 8,-0.00628701,0.00251296,-0.00116980,-0.00544647,0.00076465,-0.0005202
 9,-0.00013822,0.00165888,0.00303840,-0.00312464,0.00656344,0.00651814,
 0.00275853,-0.12687092,-0.15975191,-0.06533787,-0.00000313,0.00000048,
 -0.00000293,-0.00000695,-0.00000215,0.00000075,-0.00000121,-0.00000107
 ,0.00000051,-0.00000121,-0.00000119,-0.00000170,0.00000192,0.00000024,
 0.00000006,0.00000177,-0.00000522,0.00000213,-0.00001146,0.00001362,0.
 00000535,0.00000400,-0.00000817,-0.00000892,-0.00000018,-0.00000083,0.
 00000225,-0.00000097,0.00000095,0.00000100,0.00001022,-0.00000527,0.00
 000343,-0.00000976,-0.00001996,0.00002272,-0.00002984,-0.00000572,0.00
 014684,0.00070876,-0.00018435,0.00072089,0.00003390,-0.00000924,-0.000
 02899,-0.00112739,-0.00037953,-0.00048007,-0.00002332,-0.00040428,0.00
 081825,-0.00014207,-0.00052333,0.00170050,0.13594252,0.16339562,-0.000
 02505,0.00000335,-0.00000442,0.00004867,0.00001967,0.00001867,0.000008
 68,0.00001180,0.00000347,-0.00001307,-0.00000754,0.00000100,-0.0000000
 3,0.00000925,-0.00001674,-0.00000764,-0.00000540,-0.00000292,-0.000001
 25,-0.00000321,0.00000239,0.00000193,0.00000218,0.00000222,-0.00000027
 ,0.00000027,-0.00000276,-0.00000017,-0.00000025,0.00000245,-0.00000170
 ,-0.00000055,-0.00000182,0.00000986,0.00000202,0.00001595,-0.00011133,
 -0.00002005,0.00000020,0.00001046,-0.00004095,-0.00000624,0.00000368,-
 0.00000312,0.00000241,0.00000085,0.00000222,-0.00001252,-0.00000282,0.
 00001041,0.00000527,-0.00000357,0.00000552,-0.00000517,0.00000311,-0.0
 0000120,0.00000686,0.00024008,0.00014556,0.00044668,-0.00056062,-0.000
 10374,-0.00011312,0.00072405,-0.00036444,-0.00058635,-0.00224703,0.002
 23766,-0.00192151,-0.00028609,0.00059889,0.00048904,0.00048367,-0.0000
 5631,-0.00039707,-0.01183177,-0.00949227,-0.00203821,0.00178082,-0.005
 55654,0.00344571,0.00081471,-0.00044657,-0.00068972,0.00209866,-0.0028
 9864,0.00616076,0.00465225,0.00513366,0.00384130,-0.06181666,-0.064344
 39,-0.07021110,-0.00000140,-0.00000203,-0.00000105,-0.00000708,-0.0000
 0105,0.00000049,0.00000019,-0.00000062,0.00000029,-0.00000108,-0.00000
 085,-0.00000074,-0.00000085,0.00000056,-0.00000213,0.00000107,-0.00000
 047,0.00000289,-0.00000406,0.00000484,0.00000011,-0.00000220,-0.000003
 03,-0.00000505,-0.00000039,-0.00000146,-0.00000006,-0.00000133,0.00000
 011,-0.00000045,0.00000025,-0.00000538,0.00000771,0.00001721,-0.000009
 76,-0.00000562,0.00001586,0.00003923,0.00001794,-0.00046070,0.00009107
 ,0.00031713,-0.00001695,0.00000479,0.00000299,-0.00067808,-0.00063038,
 0.00009478,-0.00016812,0.00085043,-0.00115458,-0.00042979,0.00172311,-
 0.00214026,0.06776504,0.07310360,0.06443093\\-0.00000192,0.00000408,0.
 00000223,-0.00000133,-0.00000872,-0.00000176,-0.00000558,0.00000551,0.
 00000284,-0.00000300,0.00000140,-0.00000998,-0.00000366,-0.00000575,0.
 00001494,0.00000989,0.00001197,-0.00000874,-0.00000543,-0.00000606,-0.
 00000218,0.00000083,-0.00000009,0.00000315,0.00000014,0.00000143,-0.00
 000497,-0.00000271,-0.00000210,-0.00000313,0.00000060,0.00000081,0.000
 00295,0.00000369,0.00000419,0.00000096,-0.00000024,0.00000452,0.000002
 92,-0.00000226,-0.00000028,-0.00000360,-0.00000177,0.00000918,0.000013
 47,0.00000284,-0.00000885,0.00000413,-0.00000357,0.00000875,-0.0000052
 5,0.00000041,0.00000038,-0.00000371,0.00000246,-0.00000520,-0.00001324
 ,0.00000358,-0.00000385,-0.00000101,0.00000239,0.00000018,0.00000280,-
 0.00000020,0.00000113,0.00000190,0.00000049,-0.00000009,0.00000026,-0.
 00000035,-0.00000105,-0.00000136,0.00000027,0.00000041,-0.00000239,-0.
 00000251,-0.00000002,0.00000204,-0.00000056,-0.00000170,-0.00000071,0.
 00000388,0.00000315,0.00000303,-0.00000283,0.00000078,0.00000176,-0.00
 000066,-0.00000550,-0.00000291,0.00000079,0.00000110,0.00000099,0.0000
 0331,-0.00000040,-0.00000311,0.00000250,-0.00000411,0.00000121,0.00000
 150,0.00000268,-0.00000170,0.00000128,0.00000098,0.00000269,0.00000077
 ,-0.00000009,0.00000291,-0.00000235,-0.00000189,-0.00000016,-0.0000006
 3,-0.00000014,0.00000070,-0.00000286,-0.00000276,-0.00000304,0.0000002
 0,-0.00000020,-0.00000341,0.00000232,-0.00000360,0.00000259,-0.0000002
 3,0.00000125,0.00000476,-0.00000035,-0.00000090,-0.00000365,-0.0000022
 2,-0.00000064,-0.00000225,-0.00000015,0.00000087,0.00000285,0.00000376
 ,0.00000108,0.00000243,0.00000146,-0.00000239,-0.00000114,-0.00000353,
 -0.00000336,-0.00000107,-0.00000082,0.00000338,0.00000317,0.00000235,0
 .00000052,0.00000079\\\@


 WHERE THERE IS MUCH DESIRE TO LEARN, THERE OF NECESSITY WILL BE
 MUCH ARGUING, MUCH WRITING, MANY OPINIONS; FOR OPINION IN GOOD MEN
 IS BUT KNOWLEDGE IN THE MAKING. -- JOHN MILTON.
 Job cpu time:  0 days 20 hours 26 minutes  2.0 seconds.
 File lengths (MBytes):  RWF=   1603 Int=      0 D2E=      0 Chk=     23 Scr=      1
 Normal termination of Gaussian 09 at Fri Sep  2 10:12:36 2022.
