 Entering Gaussian System, Link 0=g09
 Input=Mol18.gjf
 Output=Mol18.log
 Initial command:
 /opt/gaussian/l1.exe /home/scr/lqcapf-6/Gau-167369.inp -scrdir=/home/scr/lqcapf-6/
 Entering Link 1 = /opt/gaussian/l1.exe PID=    167371.
  
 Copyright (c) 1988,1990,1992,1993,1995,1998,2003,2009,2011,
            Gaussian, Inc.  All Rights Reserved.
  
 This is part of the Gaussian(R) 09 program.  It is based on
 the Gaussian(R) 03 system (copyright 2003, Gaussian, Inc.),
 the Gaussian(R) 98 system (copyright 1998, Gaussian, Inc.),
 the Gaussian(R) 94 system (copyright 1995, Gaussian, Inc.),
 the Gaussian 92(TM) system (copyright 1992, Gaussian, Inc.),
 the Gaussian 90(TM) system (copyright 1990, Gaussian, Inc.),
 the Gaussian 88(TM) system (copyright 1988, Gaussian, Inc.),
 the Gaussian 86(TM) system (copyright 1986, Carnegie Mellon
 University), and the Gaussian 82(TM) system (copyright 1983,
 Carnegie Mellon University). Gaussian is a federally registered
 trademark of Gaussian, Inc.
  
 This software contains proprietary and confidential information,
 including trade secrets, belonging to Gaussian, Inc.
  
 This software is provided under written license and may be
 used, copied, transmitted, or stored only in accord with that
 written license.
  
 The following legend is applicable only to US Government
 contracts under FAR:
  
                    RESTRICTED RIGHTS LEGEND
  
 Use, reproduction and disclosure by the US Government is
 subject to restrictions as set forth in subparagraphs (a)
 and (c) of the Commercial Computer Software - Restricted
 Rights clause in FAR 52.227-19.
  
 Gaussian, Inc.
 340 Quinnipiac St., Bldg. 40, Wallingford CT 06492
  
  
 ---------------------------------------------------------------
 Warning -- This program may not be used in any manner that
 competes with the business of Gaussian, Inc. or will provide
 assistance to any competitor of Gaussian, Inc.  The licensee
 of this program is prohibited from giving any competitor of
 Gaussian, Inc. access to this program.  By using this program,
 the user acknowledges that Gaussian, Inc. is engaged in the
 business of creating and licensing software in the field of
 computational chemistry and represents and warrants to the
 licensee that it is not a competitor of Gaussian, Inc. and that
 it will not use this program in any manner prohibited above.
 ---------------------------------------------------------------
  

 Cite this work as:
 Gaussian 09, Revision C.01,
 M. J. Frisch, G. W. Trucks, H. B. Schlegel, G. E. Scuseria, 
 M. A. Robb, J. R. Cheeseman, G. Scalmani, V. Barone, B. Mennucci, 
 G. A. Petersson, H. Nakatsuji, M. Caricato, X. Li, H. P. Hratchian, 
 A. F. Izmaylov, J. Bloino, G. Zheng, J. L. Sonnenberg, M. Hada, 
 M. Ehara, K. Toyota, R. Fukuda, J. Hasegawa, M. Ishida, T. Nakajima, 
 Y. Honda, O. Kitao, H. Nakai, T. Vreven, J. A. Montgomery, Jr., 
 J. E. Peralta, F. Ogliaro, M. Bearpark, J. J. Heyd, E. Brothers, 
 K. N. Kudin, V. N. Staroverov, T. Keith, R. Kobayashi, J. Normand, 
 K. Raghavachari, A. Rendell, J. C. Burant, S. S. Iyengar, J. Tomasi, 
 M. Cossi, N. Rega, J. M. Millam, M. Klene, J. E. Knox, J. B. Cross, 
 V. Bakken, C. Adamo, J. Jaramillo, R. Gomperts, R. E. Stratmann, 
 O. Yazyev, A. J. Austin, R. Cammi, C. Pomelli, J. W. Ochterski, 
 R. L. Martin, K. Morokuma, V. G. Zakrzewski, G. A. Voth, 
 P. Salvador, J. J. Dannenberg, S. Dapprich, A. D. Daniels, 
 O. Farkas, J. B. Foresman, J. V. Ortiz, J. Cioslowski, 
 and D. J. Fox, Gaussian, Inc., Wallingford CT, 2010.
 
 ******************************************
 Gaussian 09:  EM64L-G09RevC.01 23-Sep-2011
                 3-Sep-2022 
 ******************************************
 %nprocshared=8
 Will use up to    8 processors via shared memory.
 %mem=1600MB
 -------------------------
 #p opt freq b3lyp/cc-pvdz
 -------------------------
 1/14=-1,18=20,19=15,26=3,38=1/1,3;
 2/9=110,12=2,17=6,18=5,40=1/2;
 3/5=16,11=2,16=1,25=1,30=1,71=1,74=-5/1,2,3;
 4//1;
 5/5=2,38=5/2;
 6/7=2,8=2,9=2,10=2,28=1/1;
 7//1,2,3,16;
 1/14=-1,18=20,19=15/3(2);
 2/9=110/2;
 99//99;
 2/9=110/2;
 3/5=16,11=2,16=1,25=1,30=1,71=1,74=-5/1,2,3;
 4/5=5,16=3/1;
 5/5=2,38=5/2;
 7//1,2,3,16;
 1/14=-1,18=20,19=15/3(-5);
 2/9=110/2;
 6/7=2,8=2,9=2,10=2,19=2,28=1/1;
 99/9=1/99;
 Leave Link    1 at Sat Sep  3 05:07:30 2022, MaxMem=  209715200 cpu:       0.2
 (Enter /opt/gaussian/l101.exe)
 ---------
 Mol18.log
 ---------
 Charge =  0 Multiplicity = 1
 Symbolic Z-Matrix:
 C                    -8.24776  -2.44912   0.80885 
 N                    -7.20042  -1.49589   0.51712 
 C                    -5.88437  -1.72002   0.31852 
 C                    -5.28441  -0.50241   0.10216 
 C                    -6.35274   0.42601   0.19386 
 N                    -7.49248  -0.18154   0.44039 
 C                    -3.86662  -0.22381  -0.16169 
 C                    -3.07056  -1.125    -0.87079 
 C                    -1.73431  -0.86882  -1.11475 
 C                    -1.15137   0.30463  -0.65176 
 C                    -1.93013   1.21196   0.05187 
 C                    -3.27035   0.95013   0.29091 
 N                     0.22444   0.60223  -0.94569 
 C                     0.5289    1.9106   -1.52909 
 C                     1.11957   2.9196   -0.57128 
 C                     1.61915   4.19708  -1.04144 
 C                     2.10148   4.98451  -0.06885 
 S                     1.98097   4.20541   1.53479 
 C                     1.24088   2.77219   0.75969 
 C                     1.19574  -0.33302  -0.69392 
 O                     0.96693  -1.38361  -0.11447 
 C                     2.60602  -0.01305  -1.17667 
 N                     3.50979  -1.10055  -0.96037 
 N                     3.82866  -1.92443  -1.99871 
 N                     4.60515  -2.83968  -1.5902 
 C                     4.8308   -2.66411  -0.2343 
 C                     5.60874  -3.39934   0.65937 
 C                     5.64156  -2.97174   1.96379 
 C                     4.9107   -1.83469   2.37587 
 C                     4.13957  -1.10646   1.50209 
 C                     4.11571  -1.54601   0.17591 
 H                    -8.62754  -2.29483   1.80833 
 H                    -9.05418  -2.32983   0.10166 
 H                    -7.84718  -3.4482    0.729 
 H                    -5.46718  -2.70022   0.36248 
 H                    -6.32151   1.48428   0.07029 
 H                    -3.50523  -2.0263   -1.25733 
 H                    -1.14479  -1.58169  -1.65229 
 H                    -1.49697   2.11808   0.42601 
 H                    -3.84633   1.65639   0.85672 
 H                     1.19482   1.79497  -2.3761 
 H                    -0.39623   2.29861  -1.93162 
 H                     1.60403   4.4862   -2.07347 
 H                     2.52186   5.96073  -0.15637 
 H                     0.94436   1.9411    1.35936 
 H                     2.59913   0.17013  -2.24069 
 H                     2.97779   0.87536  -0.68517 
 H                     6.15217  -4.26053   0.32671 
 H                     6.22448  -3.50476   2.68861 
 H                     4.9575   -1.5373    3.40553 
 H                     3.57695  -0.25561   1.82932 
 
 NAtoms=     51 NQM=        0 NQMF=       0 NMMI=     51 NMMIF=      0
                NMic=       0 NMicF=      0.
                    Isotopes and Nuclear Properties:
 (Nuclear quadrupole moments (NQMom) in fm**2, nuclear magnetic moments (NMagM)
  in nuclear magnetons)

  Atom         1           2           3           4           5           6           7           8           9          10
 IAtWgt=          12          14          12          12          12          14          12          12          12          12
 AtmWgt=  12.0000000  14.0030740  12.0000000  12.0000000  12.0000000  14.0030740  12.0000000  12.0000000  12.0000000  12.0000000
 NucSpn=           0           2           0           0           0           2           0           0           0           0
 AtZEff=   0.0000000   0.0000000   0.0000000   0.0000000   0.0000000   0.0000000   0.0000000   0.0000000   0.0000000   0.0000000
 NQMom=    0.0000000   2.0440000   0.0000000   0.0000000   0.0000000   2.0440000   0.0000000   0.0000000   0.0000000   0.0000000
 NMagM=    0.0000000   0.4037610   0.0000000   0.0000000   0.0000000   0.4037610   0.0000000   0.0000000   0.0000000   0.0000000

  Atom        11          12          13          14          15          16          17          18          19          20
 IAtWgt=          12          12          14          12          12          12          12          32          12          12
 AtmWgt=  12.0000000  12.0000000  14.0030740  12.0000000  12.0000000  12.0000000  12.0000000  31.9720718  12.0000000  12.0000000
 NucSpn=           0           0           2           0           0           0           0           0           0           0
 AtZEff=   0.0000000   0.0000000   0.0000000   0.0000000   0.0000000   0.0000000   0.0000000   0.0000000   0.0000000   0.0000000
 NQMom=    0.0000000   0.0000000   2.0440000   0.0000000   0.0000000   0.0000000   0.0000000   0.0000000   0.0000000   0.0000000
 NMagM=    0.0000000   0.0000000   0.4037610   0.0000000   0.0000000   0.0000000   0.0000000   0.0000000   0.0000000   0.0000000

  Atom        21          22          23          24          25          26          27          28          29          30
 IAtWgt=          16          12          14          14          14          12          12          12          12          12
 AtmWgt=  15.9949146  12.0000000  14.0030740  14.0030740  14.0030740  12.0000000  12.0000000  12.0000000  12.0000000  12.0000000
 NucSpn=           0           0           2           2           2           0           0           0           0           0
 AtZEff=   0.0000000   0.0000000   0.0000000   0.0000000   0.0000000   0.0000000   0.0000000   0.0000000   0.0000000   0.0000000
 NQMom=    0.0000000   0.0000000   2.0440000   2.0440000   2.0440000   0.0000000   0.0000000   0.0000000   0.0000000   0.0000000
 NMagM=    0.0000000   0.0000000   0.4037610   0.4037610   0.4037610   0.0000000   0.0000000   0.0000000   0.0000000   0.0000000

  Atom        31          32          33          34          35          36          37          38          39          40
 IAtWgt=          12           1           1           1           1           1           1           1           1           1
 AtmWgt=  12.0000000   1.0078250   1.0078250   1.0078250   1.0078250   1.0078250   1.0078250   1.0078250   1.0078250   1.0078250
 NucSpn=           0           1           1           1           1           1           1           1           1           1
 AtZEff=   0.0000000   0.0000000   0.0000000   0.0000000   0.0000000   0.0000000   0.0000000   0.0000000   0.0000000   0.0000000
 NQMom=    0.0000000   0.0000000   0.0000000   0.0000000   0.0000000   0.0000000   0.0000000   0.0000000   0.0000000   0.0000000
 NMagM=    0.0000000   2.7928460   2.7928460   2.7928460   2.7928460   2.7928460   2.7928460   2.7928460   2.7928460   2.7928460

  Atom        41          42          43          44          45          46          47          48          49          50
 IAtWgt=           1           1           1           1           1           1           1           1           1           1
 AtmWgt=   1.0078250   1.0078250   1.0078250   1.0078250   1.0078250   1.0078250   1.0078250   1.0078250   1.0078250   1.0078250
 NucSpn=           1           1           1           1           1           1           1           1           1           1
 AtZEff=   0.0000000   0.0000000   0.0000000   0.0000000   0.0000000   0.0000000   0.0000000   0.0000000   0.0000000   0.0000000
 NQMom=    0.0000000   0.0000000   0.0000000   0.0000000   0.0000000   0.0000000   0.0000000   0.0000000   0.0000000   0.0000000
 NMagM=    2.7928460   2.7928460   2.7928460   2.7928460   2.7928460   2.7928460   2.7928460   2.7928460   2.7928460   2.7928460

  Atom        51
 IAtWgt=           1
 AtmWgt=   1.0078250
 NucSpn=           1
 AtZEff=   0.0000000
 NQMom=    0.0000000
 NMagM=    2.7928460
 Leave Link  101 at Sat Sep  3 05:07:30 2022, MaxMem=  209715200 cpu:       1.0
 (Enter /opt/gaussian/l103.exe)

 GradGradGradGradGradGradGradGradGradGradGradGradGradGradGradGradGradGrad
 Berny optimization.
 Initialization pass.
                           ----------------------------
                           !    Initial Parameters    !
                           ! (Angstroms and Degrees)  !
 --------------------------                            --------------------------
 ! Name  Definition              Value          Derivative Info.                !
 --------------------------------------------------------------------------------
 ! R1    R(1,2)                  1.4459         estimate D2E/DX2                !
 ! R2    R(1,32)                 1.0803         estimate D2E/DX2                !
 ! R3    R(1,33)                 1.0792         estimate D2E/DX2                !
 ! R4    R(1,34)                 1.0794         estimate D2E/DX2                !
 ! R5    R(2,3)                  1.3497         estimate D2E/DX2                !
 ! R6    R(2,6)                  1.3486         estimate D2E/DX2                !
 ! R7    R(3,4)                  1.3745         estimate D2E/DX2                !
 ! R8    R(3,35)                 1.0662         estimate D2E/DX2                !
 ! R9    R(4,5)                  1.4183         estimate D2E/DX2                !
 ! R10   R(4,7)                  1.4688         estimate D2E/DX2                !
 ! R11   R(5,6)                  1.3149         estimate D2E/DX2                !
 ! R12   R(5,36)                 1.0659         estimate D2E/DX2                !
 ! R13   R(7,8)                  1.396          estimate D2E/DX2                !
 ! R14   R(7,12)                 1.3923         estimate D2E/DX2                !
 ! R15   R(8,9)                  1.3823         estimate D2E/DX2                !
 ! R16   R(8,37)                 1.0727         estimate D2E/DX2                !
 ! R17   R(9,10)                 1.3897         estimate D2E/DX2                !
 ! R18   R(9,38)                 1.0699         estimate D2E/DX2                !
 ! R19   R(10,11)                1.3874         estimate D2E/DX2                !
 ! R20   R(10,13)                1.438          estimate D2E/DX2                !
 ! R21   R(11,12)                1.3863         estimate D2E/DX2                !
 ! R22   R(11,39)                1.0718         estimate D2E/DX2                !
 ! R23   R(12,40)                1.0727         estimate D2E/DX2                !
 ! R24   R(13,14)                1.4645         estimate D2E/DX2                !
 ! R25   R(13,20)                1.3717         estimate D2E/DX2                !
 ! R26   R(14,15)                1.5114         estimate D2E/DX2                !
 ! R27   R(14,41)                1.0836         estimate D2E/DX2                !
 ! R28   R(14,42)                1.0809         estimate D2E/DX2                !
 ! R29   R(15,16)                1.45           estimate D2E/DX2                !
 ! R30   R(15,19)                1.3446         estimate D2E/DX2                !
 ! R31   R(16,17)                1.3411         estimate D2E/DX2                !
 ! R32   R(16,43)                1.0719         estimate D2E/DX2                !
 ! R33   R(17,18)                1.7869         estimate D2E/DX2                !
 ! R34   R(17,44)                1.0665         estimate D2E/DX2                !
 ! R35   R(18,19)                1.7896         estimate D2E/DX2                !
 ! R36   R(19,45)                1.0669         estimate D2E/DX2                !
 ! R37   R(20,21)                1.2214         estimate D2E/DX2                !
 ! R38   R(20,22)                1.5246         estimate D2E/DX2                !
 ! R39   R(22,23)                1.4305         estimate D2E/DX2                !
 ! R40   R(22,46)                1.0797         estimate D2E/DX2                !
 ! R41   R(22,47)                1.0812         estimate D2E/DX2                !
 ! R42   R(23,24)                1.3633         estimate D2E/DX2                !
 ! R43   R(23,31)                1.3626         estimate D2E/DX2                !
 ! R44   R(24,25)                1.2679         estimate D2E/DX2                !
 ! R45   R(25,26)                1.3857         estimate D2E/DX2                !
 ! R46   R(26,27)                1.3944         estimate D2E/DX2                !
 ! R47   R(26,31)                1.3892         estimate D2E/DX2                !
 ! R48   R(27,28)                1.3731         estimate D2E/DX2                !
 ! R49   R(27,48)                1.0713         estimate D2E/DX2                !
 ! R50   R(28,29)                1.4131         estimate D2E/DX2                !
 ! R51   R(28,49)                1.072          estimate D2E/DX2                !
 ! R52   R(29,30)                1.3742         estimate D2E/DX2                !
 ! R53   R(29,50)                1.0728         estimate D2E/DX2                !
 ! R54   R(30,31)                1.3973         estimate D2E/DX2                !
 ! R55   R(30,51)                1.0712         estimate D2E/DX2                !
 ! A1    A(2,1,32)             110.3138         estimate D2E/DX2                !
 ! A2    A(2,1,33)             109.644          estimate D2E/DX2                !
 ! A3    A(2,1,34)             109.055          estimate D2E/DX2                !
 ! A4    A(32,1,33)            109.1351         estimate D2E/DX2                !
 ! A5    A(32,1,34)            109.3369         estimate D2E/DX2                !
 ! A6    A(33,1,34)            109.3393         estimate D2E/DX2                !
 ! A7    A(1,2,3)              128.7925         estimate D2E/DX2                !
 ! A8    A(1,2,6)              119.8102         estimate D2E/DX2                !
 ! A9    A(3,2,6)              111.3855         estimate D2E/DX2                !
 ! A10   A(2,3,4)              107.5575         estimate D2E/DX2                !
 ! A11   A(2,3,35)             121.8796         estimate D2E/DX2                !
 ! A12   A(4,3,35)             130.5482         estimate D2E/DX2                !
 ! A13   A(3,4,5)              103.9399         estimate D2E/DX2                !
 ! A14   A(3,4,7)              128.143          estimate D2E/DX2                !
 ! A15   A(5,4,7)              127.9171         estimate D2E/DX2                !
 ! A16   A(4,5,6)              111.2578         estimate D2E/DX2                !
 ! A17   A(4,5,36)             128.3395         estimate D2E/DX2                !
 ! A18   A(6,5,36)             120.3895         estimate D2E/DX2                !
 ! A19   A(2,6,5)              105.8591         estimate D2E/DX2                !
 ! A20   A(4,7,8)              121.2825         estimate D2E/DX2                !
 ! A21   A(4,7,12)             120.9923         estimate D2E/DX2                !
 ! A22   A(8,7,12)             117.725          estimate D2E/DX2                !
 ! A23   A(7,8,9)              121.4181         estimate D2E/DX2                !
 ! A24   A(7,8,37)             119.6293         estimate D2E/DX2                !
 ! A25   A(9,8,37)             118.9362         estimate D2E/DX2                !
 ! A26   A(8,9,10)             120.2125         estimate D2E/DX2                !
 ! A27   A(8,9,38)             119.8576         estimate D2E/DX2                !
 ! A28   A(10,9,38)            119.9263         estimate D2E/DX2                !
 ! A29   A(9,10,11)            119.0613         estimate D2E/DX2                !
 ! A30   A(9,10,13)            120.5307         estimate D2E/DX2                !
 ! A31   A(11,10,13)           120.3557         estimate D2E/DX2                !
 ! A32   A(10,11,12)           120.4366         estimate D2E/DX2                !
 ! A33   A(10,11,39)           120.2055         estimate D2E/DX2                !
 ! A34   A(12,11,39)           119.354          estimate D2E/DX2                !
 ! A35   A(7,12,11)            121.1455         estimate D2E/DX2                !
 ! A36   A(7,12,40)            119.7781         estimate D2E/DX2                !
 ! A37   A(11,12,40)           119.0575         estimate D2E/DX2                !
 ! A38   A(10,13,14)           117.7238         estimate D2E/DX2                !
 ! A39   A(10,13,20)           119.9249         estimate D2E/DX2                !
 ! A40   A(14,13,20)           122.346          estimate D2E/DX2                !
 ! A41   A(13,14,15)           115.1634         estimate D2E/DX2                !
 ! A42   A(13,14,41)           110.1081         estimate D2E/DX2                !
 ! A43   A(13,14,42)           106.9236         estimate D2E/DX2                !
 ! A44   A(15,14,41)           109.0514         estimate D2E/DX2                !
 ! A45   A(15,14,42)           109.319          estimate D2E/DX2                !
 ! A46   A(41,14,42)           105.8533         estimate D2E/DX2                !
 ! A47   A(14,15,16)           121.1522         estimate D2E/DX2                !
 ! A48   A(14,15,19)           126.1122         estimate D2E/DX2                !
 ! A49   A(16,15,19)           112.7343         estimate D2E/DX2                !
 ! A50   A(15,16,17)           113.9563         estimate D2E/DX2                !
 ! A51   A(15,16,43)           123.0224         estimate D2E/DX2                !
 ! A52   A(17,16,43)           123.0213         estimate D2E/DX2                !
 ! A53   A(16,17,18)           111.7506         estimate D2E/DX2                !
 ! A54   A(16,17,44)           128.2941         estimate D2E/DX2                !
 ! A55   A(18,17,44)           119.9552         estimate D2E/DX2                !
 ! A56   A(17,18,19)            89.334          estimate D2E/DX2                !
 ! A57   A(15,19,18)           112.2246         estimate D2E/DX2                !
 ! A58   A(15,19,45)           128.0762         estimate D2E/DX2                !
 ! A59   A(18,19,45)           119.6935         estimate D2E/DX2                !
 ! A60   A(13,20,21)           122.7445         estimate D2E/DX2                !
 ! A61   A(13,20,22)           116.9882         estimate D2E/DX2                !
 ! A62   A(21,20,22)           120.267          estimate D2E/DX2                !
 ! A63   A(20,22,23)           112.148          estimate D2E/DX2                !
 ! A64   A(20,22,46)           109.9837         estimate D2E/DX2                !
 ! A65   A(20,22,47)           110.2778         estimate D2E/DX2                !
 ! A66   A(23,22,46)           106.3812         estimate D2E/DX2                !
 ! A67   A(23,22,47)           109.7971         estimate D2E/DX2                !
 ! A68   A(46,22,47)           108.1054         estimate D2E/DX2                !
 ! A69   A(22,23,24)           119.4748         estimate D2E/DX2                !
 ! A70   A(22,23,31)           130.9632         estimate D2E/DX2                !
 ! A71   A(24,23,31)           109.4847         estimate D2E/DX2                !
 ! A72   A(23,24,25)           109.5175         estimate D2E/DX2                !
 ! A73   A(24,25,26)           108.8769         estimate D2E/DX2                !
 ! A74   A(25,26,27)           130.628          estimate D2E/DX2                !
 ! A75   A(25,26,31)           107.8841         estimate D2E/DX2                !
 ! A76   A(27,26,31)           121.4878         estimate D2E/DX2                !
 ! A77   A(26,27,28)           117.2562         estimate D2E/DX2                !
 ! A78   A(26,27,48)           120.5213         estimate D2E/DX2                !
 ! A79   A(28,27,48)           122.2225         estimate D2E/DX2                !
 ! A80   A(27,28,29)           121.0135         estimate D2E/DX2                !
 ! A81   A(27,28,49)           120.03           estimate D2E/DX2                !
 ! A82   A(29,28,49)           118.956          estimate D2E/DX2                !
 ! A83   A(28,29,30)           122.0873         estimate D2E/DX2                !
 ! A84   A(28,29,50)           118.7113         estimate D2E/DX2                !
 ! A85   A(30,29,50)           119.2005         estimate D2E/DX2                !
 ! A86   A(29,30,31)           116.5099         estimate D2E/DX2                !
 ! A87   A(29,30,51)           121.4253         estimate D2E/DX2                !
 ! A88   A(31,30,51)           122.059          estimate D2E/DX2                !
 ! A89   A(23,31,26)           104.2282         estimate D2E/DX2                !
 ! A90   A(23,31,30)           134.1226         estimate D2E/DX2                !
 ! A91   A(26,31,30)           121.6448         estimate D2E/DX2                !
 ! D1    D(32,1,2,3)           112.9619         estimate D2E/DX2                !
 ! D2    D(32,1,2,6)           -65.6674         estimate D2E/DX2                !
 ! D3    D(33,1,2,3)          -126.8213         estimate D2E/DX2                !
 ! D4    D(33,1,2,6)            54.5495         estimate D2E/DX2                !
 ! D5    D(34,1,2,3)            -7.1317         estimate D2E/DX2                !
 ! D6    D(34,1,2,6)           174.2391         estimate D2E/DX2                !
 ! D7    D(1,2,3,4)           -178.7119         estimate D2E/DX2                !
 ! D8    D(1,2,3,35)             0.03           estimate D2E/DX2                !
 ! D9    D(6,2,3,4)              0.0108         estimate D2E/DX2                !
 ! D10   D(6,2,3,35)           178.7528         estimate D2E/DX2                !
 ! D11   D(1,2,6,5)            178.7618         estimate D2E/DX2                !
 ! D12   D(3,2,6,5)             -0.0909         estimate D2E/DX2                !
 ! D13   D(2,3,4,5)              0.0674         estimate D2E/DX2                !
 ! D14   D(2,3,4,7)           -179.9846         estimate D2E/DX2                !
 ! D15   D(35,3,4,5)          -178.5267         estimate D2E/DX2                !
 ! D16   D(35,3,4,7)             1.4214         estimate D2E/DX2                !
 ! D17   D(3,4,5,6)             -0.1284         estimate D2E/DX2                !
 ! D18   D(3,4,5,36)          -178.7895         estimate D2E/DX2                !
 ! D19   D(7,4,5,6)            179.9233         estimate D2E/DX2                !
 ! D20   D(7,4,5,36)             1.2623         estimate D2E/DX2                !
 ! D21   D(3,4,7,8)             32.9977         estimate D2E/DX2                !
 ! D22   D(3,4,7,12)          -146.8766         estimate D2E/DX2                !
 ! D23   D(5,4,7,8)           -147.0662         estimate D2E/DX2                !
 ! D24   D(5,4,7,12)            33.0595         estimate D2E/DX2                !
 ! D25   D(4,5,6,2)              0.1351         estimate D2E/DX2                !
 ! D26   D(36,5,6,2)           178.9176         estimate D2E/DX2                !
 ! D27   D(4,7,8,9)           -179.663          estimate D2E/DX2                !
 ! D28   D(4,7,8,37)             1.8245         estimate D2E/DX2                !
 ! D29   D(12,7,8,9)             0.2152         estimate D2E/DX2                !
 ! D30   D(12,7,8,37)         -178.2973         estimate D2E/DX2                !
 ! D31   D(4,7,12,11)          179.5382         estimate D2E/DX2                !
 ! D32   D(4,7,12,40)            1.1372         estimate D2E/DX2                !
 ! D33   D(8,7,12,11)           -0.3404         estimate D2E/DX2                !
 ! D34   D(8,7,12,40)         -178.7414         estimate D2E/DX2                !
 ! D35   D(7,8,9,10)             0.0586         estimate D2E/DX2                !
 ! D36   D(7,8,9,38)           179.3705         estimate D2E/DX2                !
 ! D37   D(37,8,9,10)          178.5813         estimate D2E/DX2                !
 ! D38   D(37,8,9,38)           -2.1069         estimate D2E/DX2                !
 ! D39   D(8,9,10,11)           -0.2121         estimate D2E/DX2                !
 ! D40   D(8,9,10,13)         -177.5919         estimate D2E/DX2                !
 ! D41   D(38,9,10,11)        -179.5235         estimate D2E/DX2                !
 ! D42   D(38,9,10,13)           3.0967         estimate D2E/DX2                !
 ! D43   D(9,10,11,12)           0.0881         estimate D2E/DX2                !
 ! D44   D(9,10,11,39)         179.3723         estimate D2E/DX2                !
 ! D45   D(13,10,11,12)        177.4726         estimate D2E/DX2                !
 ! D46   D(13,10,11,39)         -3.2432         estimate D2E/DX2                !
 ! D47   D(9,10,13,14)         128.2967         estimate D2E/DX2                !
 ! D48   D(9,10,13,20)         -50.8839         estimate D2E/DX2                !
 ! D49   D(11,10,13,14)        -49.0491         estimate D2E/DX2                !
 ! D50   D(11,10,13,20)        131.7703         estimate D2E/DX2                !
 ! D51   D(10,11,12,7)           0.1937         estimate D2E/DX2                !
 ! D52   D(10,11,12,40)        178.606          estimate D2E/DX2                !
 ! D53   D(39,11,12,7)        -179.0965         estimate D2E/DX2                !
 ! D54   D(39,11,12,40)         -0.6842         estimate D2E/DX2                !
 ! D55   D(10,13,14,15)        103.3303         estimate D2E/DX2                !
 ! D56   D(10,13,14,41)       -132.8871         estimate D2E/DX2                !
 ! D57   D(10,13,14,42)        -18.3381         estimate D2E/DX2                !
 ! D58   D(20,13,14,15)        -77.5103         estimate D2E/DX2                !
 ! D59   D(20,13,14,41)         46.2722         estimate D2E/DX2                !
 ! D60   D(20,13,14,42)        160.8213         estimate D2E/DX2                !
 ! D61   D(10,13,20,21)         -6.6536         estimate D2E/DX2                !
 ! D62   D(10,13,20,22)        173.162          estimate D2E/DX2                !
 ! D63   D(14,13,20,21)        174.205          estimate D2E/DX2                !
 ! D64   D(14,13,20,22)         -5.9794         estimate D2E/DX2                !
 ! D65   D(13,14,15,16)        172.4583         estimate D2E/DX2                !
 ! D66   D(13,14,15,19)         -7.9901         estimate D2E/DX2                !
 ! D67   D(41,14,15,16)         48.1198         estimate D2E/DX2                !
 ! D68   D(41,14,15,19)       -132.3286         estimate D2E/DX2                !
 ! D69   D(42,14,15,16)        -67.1772         estimate D2E/DX2                !
 ! D70   D(42,14,15,19)        112.3744         estimate D2E/DX2                !
 ! D71   D(14,15,16,17)        179.4988         estimate D2E/DX2                !
 ! D72   D(14,15,16,43)         -0.4829         estimate D2E/DX2                !
 ! D73   D(19,15,16,17)         -0.1084         estimate D2E/DX2                !
 ! D74   D(19,15,16,43)        179.9098         estimate D2E/DX2                !
 ! D75   D(14,15,19,18)       -179.4906         estimate D2E/DX2                !
 ! D76   D(14,15,19,45)         -0.3692         estimate D2E/DX2                !
 ! D77   D(16,15,19,18)          0.0934         estimate D2E/DX2                !
 ! D78   D(16,15,19,45)        179.2148         estimate D2E/DX2                !
 ! D79   D(15,16,17,18)          0.0704         estimate D2E/DX2                !
 ! D80   D(15,16,17,44)        179.9335         estimate D2E/DX2                !
 ! D81   D(43,16,17,18)       -179.9479         estimate D2E/DX2                !
 ! D82   D(43,16,17,44)         -0.0847         estimate D2E/DX2                !
 ! D83   D(16,17,18,19)         -0.0155         estimate D2E/DX2                !
 ! D84   D(44,17,18,19)       -179.8915         estimate D2E/DX2                !
 ! D85   D(17,18,19,15)         -0.0465         estimate D2E/DX2                !
 ! D86   D(17,18,19,45)       -179.2503         estimate D2E/DX2                !
 ! D87   D(13,20,22,23)       -175.1603         estimate D2E/DX2                !
 ! D88   D(13,20,22,46)        -56.9947         estimate D2E/DX2                !
 ! D89   D(13,20,22,47)         62.1412         estimate D2E/DX2                !
 ! D90   D(21,20,22,23)          4.6602         estimate D2E/DX2                !
 ! D91   D(21,20,22,46)        122.8258         estimate D2E/DX2                !
 ! D92   D(21,20,22,47)       -118.0383         estimate D2E/DX2                !
 ! D93   D(20,22,23,24)        100.3738         estimate D2E/DX2                !
 ! D94   D(20,22,23,31)        -76.0615         estimate D2E/DX2                !
 ! D95   D(46,22,23,24)        -19.9073         estimate D2E/DX2                !
 ! D96   D(46,22,23,31)        163.6574         estimate D2E/DX2                !
 ! D97   D(47,22,23,24)       -136.656          estimate D2E/DX2                !
 ! D98   D(47,22,23,31)         46.9087         estimate D2E/DX2                !
 ! D99   D(22,23,24,25)       -178.0412         estimate D2E/DX2                !
 ! D100  D(31,23,24,25)         -0.8959         estimate D2E/DX2                !
 ! D101  D(22,23,31,26)        177.6351         estimate D2E/DX2                !
 ! D102  D(22,23,31,30)         -3.1453         estimate D2E/DX2                !
 ! D103  D(24,23,31,26)          0.9266         estimate D2E/DX2                !
 ! D104  D(24,23,31,30)       -179.8537         estimate D2E/DX2                !
 ! D105  D(23,24,25,26)          0.453          estimate D2E/DX2                !
 ! D106  D(24,25,26,27)       -179.7231         estimate D2E/DX2                !
 ! D107  D(24,25,26,31)          0.1364         estimate D2E/DX2                !
 ! D108  D(25,26,27,28)        179.7406         estimate D2E/DX2                !
 ! D109  D(25,26,27,48)         -0.3002         estimate D2E/DX2                !
 ! D110  D(31,26,27,28)         -0.1026         estimate D2E/DX2                !
 ! D111  D(31,26,27,48)        179.8566         estimate D2E/DX2                !
 ! D112  D(25,26,31,23)         -0.652          estimate D2E/DX2                !
 ! D113  D(25,26,31,30)       -179.9939         estimate D2E/DX2                !
 ! D114  D(27,26,31,23)        179.223          estimate D2E/DX2                !
 ! D115  D(27,26,31,30)         -0.119          estimate D2E/DX2                !
 ! D116  D(26,27,28,29)          0.1877         estimate D2E/DX2                !
 ! D117  D(26,27,28,49)        179.9256         estimate D2E/DX2                !
 ! D118  D(48,27,28,29)       -179.7707         estimate D2E/DX2                !
 ! D119  D(48,27,28,49)         -0.0329         estimate D2E/DX2                !
 ! D120  D(27,28,29,30)         -0.0571         estimate D2E/DX2                !
 ! D121  D(27,28,29,50)        179.5787         estimate D2E/DX2                !
 ! D122  D(49,28,29,30)       -179.7977         estimate D2E/DX2                !
 ! D123  D(49,28,29,50)         -0.1619         estimate D2E/DX2                !
 ! D124  D(28,29,30,31)         -0.1596         estimate D2E/DX2                !
 ! D125  D(28,29,30,51)        178.9775         estimate D2E/DX2                !
 ! D126  D(50,29,30,31)       -179.7937         estimate D2E/DX2                !
 ! D127  D(50,29,30,51)         -0.6566         estimate D2E/DX2                !
 ! D128  D(29,30,31,23)       -178.8661         estimate D2E/DX2                !
 ! D129  D(29,30,31,26)          0.2453         estimate D2E/DX2                !
 ! D130  D(51,30,31,23)          2.0027         estimate D2E/DX2                !
 ! D131  D(51,30,31,26)       -178.8859         estimate D2E/DX2                !
 --------------------------------------------------------------------------------
 Trust Radius=3.00D-01 FncErr=1.00D-07 GrdErr=1.00D-06
 Number of steps in this run=    287 maximum allowed number of steps=    306.
 GradGradGradGradGradGradGradGradGradGradGradGradGradGradGradGradGradGrad

 Leave Link  103 at Sat Sep  3 05:07:30 2022, MaxMem=  209715200 cpu:       0.1
 (Enter /opt/gaussian/l202.exe)
 Stoichiometry    C23H20N6OS
 Framework group  C1[X(C23H20N6OS)]
 Deg. of freedom   147
 Full point group                 C1      NOp   1
 Largest Abelian subgroup         C1      NOp   1
 Largest concise Abelian subgroup C1      NOp   1
                         Standard orientation:                         
 ---------------------------------------------------------------------
 Center     Atomic      Atomic             Coordinates (Angstroms)
 Number     Number       Type             X           Y           Z
 ---------------------------------------------------------------------
      1          6           0       -8.247761   -2.449119    0.808851
      2          7           0       -7.200420   -1.495889    0.517121
      3          6           0       -5.884371   -1.720019    0.318521
      4          6           0       -5.284410   -0.502409    0.102161
      5          6           0       -6.352740    0.426011    0.193861
      6          7           0       -7.492480   -0.181539    0.440391
      7          6           0       -3.866620   -0.223809   -0.161689
      8          6           0       -3.070560   -1.124999   -0.870789
      9          6           0       -1.734310   -0.868819   -1.114749
     10          6           0       -1.151370    0.304631   -0.651759
     11          6           0       -1.930130    1.211961    0.051871
     12          6           0       -3.270350    0.950131    0.290911
     13          7           0        0.224440    0.602230   -0.945689
     14          6           0        0.528900    1.910600   -1.529089
     15          6           0        1.119570    2.919600   -0.571279
     16          6           0        1.619150    4.197080   -1.041439
     17          6           0        2.101480    4.984510   -0.068849
     18         16           0        1.980970    4.205410    1.534791
     19          6           0        1.240880    2.772190    0.759691
     20          6           0        1.195740   -0.333020   -0.693919
     21          8           0        0.966930   -1.383610   -0.114469
     22          6           0        2.606020   -0.013050   -1.176669
     23          7           0        3.509790   -1.100550   -0.960369
     24          7           0        3.828659   -1.924430   -1.998709
     25          7           0        4.605149   -2.839680   -1.590199
     26          6           0        4.830799   -2.664110   -0.234299
     27          6           0        5.608739   -3.399340    0.659371
     28          6           0        5.641559   -2.971740    1.963791
     29          6           0        4.910699   -1.834690    2.375871
     30          6           0        4.139570   -1.106460    1.502091
     31          6           0        4.115709   -1.546010    0.175911
     32          1           0       -8.627541   -2.294829    1.808331
     33          1           0       -9.054181   -2.329829    0.101661
     34          1           0       -7.847181   -3.448199    0.729001
     35          1           0       -5.467181   -2.700219    0.362481
     36          1           0       -6.321510    1.484281    0.070291
     37          1           0       -3.505231   -2.026299   -1.257329
     38          1           0       -1.144791   -1.581689   -1.652289
     39          1           0       -1.496970    2.118081    0.426011
     40          1           0       -3.846330    1.656391    0.856721
     41          1           0        1.194820    1.794970   -2.376099
     42          1           0       -0.396230    2.298610   -1.931619
     43          1           0        1.604030    4.486200   -2.073469
     44          1           0        2.521860    5.960730   -0.156369
     45          1           0        0.944360    1.941100    1.359361
     46          1           0        2.599130    0.170130   -2.240689
     47          1           0        2.977790    0.875360   -0.685169
     48          1           0        6.152169   -4.260530    0.326711
     49          1           0        6.224479   -3.504760    2.688611
     50          1           0        4.957499   -1.537300    3.405531
     51          1           0        3.576950   -0.255610    1.829321
 ---------------------------------------------------------------------
 Rotational constants (GHZ):      0.1800890      0.0645416      0.0525841
 Leave Link  202 at Sat Sep  3 05:07:30 2022, MaxMem=  209715200 cpu:       0.0
 (Enter /opt/gaussian/l301.exe)
 Standard basis: CC-pVDZ (5D, 7F)
 Ernie: Thresh=  0.10000D-02 Tol=  0.10000D-05 Strict=F.
 Ernie:  70 primitive shells out of 810 were deleted.
 There are   538 symmetry adapted basis functions of A   symmetry.
 Integral buffers will be    131072 words long.
 Raffenetti 2 integral format.
 Two-electron integral symmetry is turned on.
   538 basis functions,  1201 primitive gaussians,   569 cartesian basis functions
   112 alpha electrons      112 beta electrons
       nuclear repulsion energy      2921.8825050032 Hartrees.
 IExCor=  402 DFT=T Ex+Corr=B3LYP ExCW=0 ScaHFX=  0.200000
 ScaDFX=  0.800000  0.720000  1.000000  0.810000 ScalE2=  1.000000  1.000000
 IRadAn=      0 IRanWt=     -1 IRanGd=            0 ICorTp=0
 NAtoms=   51 NActive=   51 NUniq=   51 SFac= 1.00D+00 NAtFMM=   60 NAOKFM=F Big=F
 Leave Link  301 at Sat Sep  3 05:07:30 2022, MaxMem=  209715200 cpu:       0.3
 (Enter /opt/gaussian/l302.exe)
 NPDir=0 NMtPBC=     1 NCelOv=     1 NCel=       1 NClECP=     1 NCelD=      1
         NCelK=      1 NCelE2=     1 NClLst=     1 CellRange=     0.0.
 One-electron integrals computed using PRISM.
 NBasis=   538 RedAO= T  NBF=   538
 NBsUse=   538 1.00D-06 NBFU=   538
 Precomputing XC quadrature grid using
 IXCGrd= 2 IRadAn=           0 IRanWt=          -1 IRanGd=           0 AccXCQ= 0.00D+00.
 NRdTot=    3295 NPtTot=      421302 NUsed=      445043 NTot=      445075
 NSgBfM=   541   542   542   542   545 NAtAll=    51    51.
 Leave Link  302 at Sat Sep  3 05:07:31 2022, MaxMem=  209715200 cpu:       7.7
 (Enter /opt/gaussian/l303.exe)
 DipDrv:  MaxL=1.
 Leave Link  303 at Sat Sep  3 05:07:32 2022, MaxMem=  209715200 cpu:       1.2
 (Enter /opt/gaussian/l401.exe)
 Harris functional with IExCor=  402 diagonalized for initial guess.
 ExpMin= 1.22D-01 ExpMax= 1.11D+05 ExpMxC= 1.07D+03 IAcc=2 IRadAn=         4 AccDes= 0.00D+00
 HarFok:  IExCor=  402 AccDes= 0.00D+00 IRadAn=         4 IDoV= 1
 ScaDFX=  1.000000  1.000000  1.000000  1.000000
 FoFCou: FMM=F IPFlag=           0 FMFlag=      100000 FMFlg1=           0
         NFxFlg=           0 DoJE=T BraDBF=F KetDBF=T FulRan=T
         Omega=  0.000000  0.000000  1.000000  0.000000  0.000000 ICntrl=     500 IOpCl=  0
         NMat0=    1 NMatS0=    1 NMatT0=    0 NMatD0=    1 NMtDS0=    0 NMtDT0=    0
         I1Cent=           4 NGrid=           0.
 Petite list used in FoFCou.
 Harris En= -1690.24386350543    
 Initial guess orbital symmetries:
       Occupied  (A) (A) (A) (A) (A) (A) (A) (A) (A) (A) (A) (A)
                 (A) (A) (A) (A) (A) (A) (A) (A) (A) (A) (A) (A)
                 (A) (A) (A) (A) (A) (A) (A) (A) (A) (A) (A) (A)
                 (A) (A) (A) (A) (A) (A) (A) (A) (A) (A) (A) (A)
                 (A) (A) (A) (A) (A) (A) (A) (A) (A) (A) (A) (A)
                 (A) (A) (A) (A) (A) (A) (A) (A) (A) (A) (A) (A)
                 (A) (A) (A) (A) (A) (A) (A) (A) (A) (A) (A) (A)
                 (A) (A) (A) (A) (A) (A) (A) (A) (A) (A) (A) (A)
                 (A) (A) (A) (A) (A) (A) (A) (A) (A) (A) (A) (A)
                 (A) (A) (A) (A)
       Virtual   (A) (A) (A) (A) (A) (A) (A) (A) (A) (A) (A) (A)
                 (A) (A) (A) (A) (A) (A) (A) (A) (A) (A) (A) (A)
                 (A) (A) (A) (A) (A) (A) (A) (A) (A) (A) (A) (A)
                 (A) (A) (A) (A) (A) (A) (A) (A) (A) (A) (A) (A)
                 (A) (A) (A) (A) (A) (A) (A) (A) (A) (A) (A) (A)
                 (A) (A) (A) (A) (A) (A) (A) (A) (A) (A) (A) (A)
                 (A) (A) (A) (A) (A) (A) (A) (A) (A) (A) (A) (A)
                 (A) (A) (A) (A) (A) (A) (A) (A) (A) (A) (A) (A)
                 (A) (A) (A) (A) (A) (A) (A) (A) (A) (A) (A) (A)
                 (A) (A) (A) (A) (A) (A) (A) (A) (A) (A) (A) (A)
                 (A) (A) (A) (A) (A) (A) (A) (A) (A) (A) (A) (A)
                 (A) (A) (A) (A) (A) (A) (A) (A) (A) (A) (A) (A)
                 (A) (A) (A) (A) (A) (A) (A) (A) (A) (A) (A) (A)
                 (A) (A) (A) (A) (A) (A) (A) (A) (A) (A) (A) (A)
                 (A) (A) (A) (A) (A) (A) (A) (A) (A) (A) (A) (A)
                 (A) (A) (A) (A) (A) (A) (A) (A) (A) (A) (A) (A)
                 (A) (A) (A) (A) (A) (A) (A) (A) (A) (A) (A) (A)
                 (A) (A) (A) (A) (A) (A) (A) (A) (A) (A) (A) (A)
                 (A) (A) (A) (A) (A) (A) (A) (A) (A) (A) (A) (A)
                 (A) (A) (A) (A) (A) (A) (A) (A) (A) (A) (A) (A)
                 (A) (A) (A) (A) (A) (A) (A) (A) (A) (A) (A) (A)
                 (A) (A) (A) (A) (A) (A) (A) (A) (A) (A) (A) (A)
                 (A) (A) (A) (A) (A) (A) (A) (A) (A) (A) (A) (A)
                 (A) (A) (A) (A) (A) (A) (A) (A) (A) (A) (A) (A)
                 (A) (A) (A) (A) (A) (A) (A) (A) (A) (A) (A) (A)
                 (A) (A) (A) (A) (A) (A) (A) (A) (A) (A) (A) (A)
                 (A) (A) (A) (A) (A) (A) (A) (A) (A) (A) (A) (A)
                 (A) (A) (A) (A) (A) (A) (A) (A) (A) (A) (A) (A)
                 (A) (A) (A) (A) (A) (A) (A) (A) (A) (A) (A) (A)
                 (A) (A) (A) (A) (A) (A) (A) (A) (A) (A) (A) (A)
                 (A) (A) (A) (A) (A) (A) (A) (A) (A) (A) (A) (A)
                 (A) (A) (A) (A) (A) (A) (A) (A) (A) (A) (A) (A)
                 (A) (A) (A) (A) (A) (A) (A) (A) (A) (A) (A) (A)
                 (A) (A) (A) (A) (A) (A) (A) (A) (A) (A) (A) (A)
                 (A) (A) (A) (A) (A) (A) (A) (A) (A) (A) (A) (A)
                 (A) (A) (A) (A) (A) (A)
 The electronic state of the initial guess is 1-A.
 Leave Link  401 at Sat Sep  3 05:07:35 2022, MaxMem=  209715200 cpu:      23.5
 (Enter /opt/gaussian/l502.exe)
 Closed shell SCF:
 Requested convergence on RMS density matrix=1.00D-08 within 128 cycles.
 Requested convergence on MAX density matrix=1.00D-06.
 Requested convergence on             energy=1.00D-06.
 No special actions if energy rises.
 Using DIIS extrapolation, IDIIS=  1040.
 Integral symmetry usage will be decided dynamically.
       444571 words used for storage of precomputed grid.
 IEnd=     1442854 IEndB=     1442854 NGot=   209715200 MDV=   208613317
 LenX=   208613317 LenY=   208288987
 Fock matrices will be formed incrementally for  20 cycles.
 Integral accuracy reduced to 1.0D-05 until final iterations.

 Cycle   1  Pass 0  IDiag  1:
 FoFCou: FMM=F IPFlag=           0 FMFlag=      100000 FMFlg1=           0
         NFxFlg=           0 DoJE=F BraDBF=F KetDBF=F FulRan=T
         Omega=  0.000000  0.000000  1.000000  0.000000  0.000000 ICntrl=       0 IOpCl=  0
         NMat0=    1 NMatS0=    1 NMatT0=    0 NMatD0=    1 NMtDS0=    0 NMtDT0=    0
         I1Cent=           0 NGrid=           0.
 Symmetry not used in FoFCou.
 E= -1689.73827797816    
 DIIS: error= 2.28D-02 at cycle   1 NSaved=   1.
 NSaved= 1 IEnMin= 1 EnMin= -1689.73827797816     IErMin= 1 ErrMin= 2.28D-02
 ErrMax= 2.28D-02 EMaxC= 1.00D-01 BMatC= 6.39D-01 BMatP= 6.39D-01
 IDIUse=3 WtCom= 7.72D-01 WtEn= 2.28D-01
 Coeff-Com:  0.100D+01
 Coeff-En:   0.100D+01
 Coeff:      0.100D+01
 Gap=     0.334 Goal=   None    Shift=    0.000
 GapD=    0.334 DampG=1.000 DampE=0.500 DampFc=0.5000 IDamp=-1.
 Damping current iteration by 5.00D-01
 RMSDP=4.27D-03 MaxDP=2.04D-01              OVMax= 3.15D-01

 Cycle   2  Pass 0  IDiag  1:
 RMSU=  1.50D-03    CP:  9.80D-01
 E= -1689.91780315666     Delta-E=       -0.179525178502 Rises=F Damp=T
 DIIS: error= 7.69D-03 at cycle   2 NSaved=   2.
 NSaved= 2 IEnMin= 2 EnMin= -1689.91780315666     IErMin= 2 ErrMin= 7.69D-03
 ErrMax= 7.69D-03 EMaxC= 1.00D-01 BMatC= 1.21D-01 BMatP= 6.39D-01
 IDIUse=3 WtCom= 9.23D-01 WtEn= 7.69D-02
 Coeff-Com:  0.240D+00 0.760D+00
 Coeff-En:   0.360D+00 0.640D+00
 Coeff:      0.249D+00 0.751D+00
 Gap=     0.247 Goal=   None    Shift=    0.000
 RMSDP=1.48D-03 MaxDP=7.38D-02 DE=-1.80D-01 OVMax= 2.95D-01

 Cycle   3  Pass 0  IDiag  1:
 RMSU=  9.64D-04    CP:  9.66D-01  7.48D-01
 E= -1690.35923577629     Delta-E=       -0.441432619627 Rises=F Damp=F
 DIIS: error= 9.36D-03 at cycle   3 NSaved=   3.
 NSaved= 3 IEnMin= 3 EnMin= -1690.35923577629     IErMin= 2 ErrMin= 7.69D-03
 ErrMax= 9.36D-03 EMaxC= 1.00D-01 BMatC= 9.02D-02 BMatP= 1.21D-01
 IDIUse=3 WtCom= 9.06D-01 WtEn= 9.36D-02
 Coeff-Com:  0.745D-01 0.455D+00 0.470D+00
 Coeff-En:   0.000D+00 0.000D+00 0.100D+01
 Coeff:      0.675D-01 0.413D+00 0.520D+00
 Gap=     0.182 Goal=   None    Shift=    0.000
 RMSDP=7.49D-04 MaxDP=5.57D-02 DE=-4.41D-01 OVMax= 7.71D-02

 Cycle   4  Pass 0  IDiag  1:
 RMSU=  3.97D-04    CP:  9.70D-01  8.33D-01  6.62D-01
 E= -1690.42435606108     Delta-E=       -0.065120284792 Rises=F Damp=F
 DIIS: error= 4.09D-03 at cycle   4 NSaved=   4.
 NSaved= 4 IEnMin= 4 EnMin= -1690.42435606108     IErMin= 4 ErrMin= 4.09D-03
 ErrMax= 4.09D-03 EMaxC= 1.00D-01 BMatC= 2.05D-02 BMatP= 9.02D-02
 IDIUse=3 WtCom= 9.59D-01 WtEn= 4.09D-02
 Coeff-Com:  0.194D-01 0.139D+00 0.335D+00 0.507D+00
 Coeff-En:   0.000D+00 0.000D+00 0.210D+00 0.790D+00
 Coeff:      0.186D-01 0.134D+00 0.330D+00 0.518D+00
 Gap=     0.188 Goal=   None    Shift=    0.000
 RMSDP=3.41D-04 MaxDP=2.07D-02 DE=-6.51D-02 OVMax= 3.51D-02

 Cycle   5  Pass 0  IDiag  1:
 RMSU=  1.48D-04    CP:  9.69D-01  8.07D-01  7.25D-01  5.56D-01
 E= -1690.44066155944     Delta-E=       -0.016305498362 Rises=F Damp=F
 DIIS: error= 2.11D-03 at cycle   5 NSaved=   5.
 NSaved= 5 IEnMin= 5 EnMin= -1690.44066155944     IErMin= 5 ErrMin= 2.11D-03
 ErrMax= 2.11D-03 EMaxC= 1.00D-01 BMatC= 2.35D-03 BMatP= 2.05D-02
 IDIUse=3 WtCom= 9.79D-01 WtEn= 2.11D-02
 Coeff-Com:  0.390D-02 0.228D-01 0.144D+00 0.339D+00 0.490D+00
 Coeff-En:   0.000D+00 0.000D+00 0.000D+00 0.106D+00 0.894D+00
 Coeff:      0.381D-02 0.223D-01 0.141D+00 0.334D+00 0.498D+00
 Gap=     0.182 Goal=   None    Shift=    0.000
 RMSDP=1.23D-04 MaxDP=6.77D-03 DE=-1.63D-02 OVMax= 1.72D-02

 Cycle   6  Pass 0  IDiag  1:
 RMSU=  3.88D-05    CP:  9.69D-01  8.06D-01  7.39D-01  6.50D-01  5.47D-01
 E= -1690.44310701968     Delta-E=       -0.002445460242 Rises=F Damp=F
 DIIS: error= 5.80D-04 at cycle   6 NSaved=   6.
 NSaved= 6 IEnMin= 6 EnMin= -1690.44310701968     IErMin= 6 ErrMin= 5.80D-04
 ErrMax= 5.80D-04 EMaxC= 1.00D-01 BMatC= 1.75D-04 BMatP= 2.35D-03
 IDIUse=3 WtCom= 9.94D-01 WtEn= 5.80D-03
 Coeff-Com:  0.621D-03-0.358D-02 0.446D-01 0.135D+00 0.284D+00 0.540D+00
 Coeff-En:   0.000D+00 0.000D+00 0.000D+00 0.000D+00 0.000D+00 0.100D+01
 Coeff:      0.617D-03-0.356D-02 0.443D-01 0.134D+00 0.282D+00 0.543D+00
 Gap=     0.181 Goal=   None    Shift=    0.000
 RMSDP=2.89D-05 MaxDP=2.47D-03 DE=-2.45D-03 OVMax= 3.96D-03

 Cycle   7  Pass 0  IDiag  1:
 RMSU=  1.38D-05    CP:  9.69D-01  8.06D-01  7.40D-01  6.44D-01  5.92D-01
                    CP:  6.56D-01
 E= -1690.44327342310     Delta-E=       -0.000166403413 Rises=F Damp=F
 DIIS: error= 1.59D-04 at cycle   7 NSaved=   7.
 NSaved= 7 IEnMin= 7 EnMin= -1690.44327342310     IErMin= 7 ErrMin= 1.59D-04
 ErrMax= 1.59D-04 EMaxC= 1.00D-01 BMatC= 1.93D-05 BMatP= 1.75D-04
 IDIUse=3 WtCom= 9.98D-01 WtEn= 1.59D-03
 Coeff-Com:  0.166D-03-0.437D-02 0.106D-01 0.399D-01 0.107D+00 0.312D+00
 Coeff-Com:  0.536D+00
 Coeff-En:   0.000D+00 0.000D+00 0.000D+00 0.000D+00 0.000D+00 0.459D-01
 Coeff-En:   0.954D+00
 Coeff:      0.166D-03-0.436D-02 0.105D-01 0.398D-01 0.106D+00 0.311D+00
 Coeff:      0.536D+00
 Gap=     0.181 Goal=   None    Shift=    0.000
 RMSDP=8.59D-06 MaxDP=8.92D-04 DE=-1.66D-04 OVMax= 9.19D-04

 Initial convergence to 1.0D-05 achieved.  Increase integral accuracy.
 Cycle   8  Pass 1  IDiag  1:
 E= -1690.44343600297     Delta-E=       -0.000162579876 Rises=F Damp=F
 DIIS: error= 2.76D-04 at cycle   1 NSaved=   1.
 NSaved= 1 IEnMin= 1 EnMin= -1690.44343600297     IErMin= 1 ErrMin= 2.76D-04
 ErrMax= 2.76D-04 EMaxC= 1.00D-01 BMatC= 1.23D-05 BMatP= 1.23D-05
 IDIUse=3 WtCom= 9.97D-01 WtEn= 2.76D-03
 Coeff-Com:  0.100D+01
 Coeff-En:   0.100D+01
 Coeff:      0.100D+01
 Gap=     0.181 Goal=   None    Shift=    0.000
 RMSDP=8.59D-06 MaxDP=8.92D-04 DE=-1.63D-04 OVMax= 7.22D-04

 Cycle   9  Pass 1  IDiag  1:
 RMSU=  9.99D-05    CP:  1.00D+00
 E= -1690.44344518017     Delta-E=       -0.000009177197 Rises=F Damp=F
 DIIS: error= 4.91D-05 at cycle   2 NSaved=   2.
 NSaved= 2 IEnMin= 2 EnMin= -1690.44344518017     IErMin= 2 ErrMin= 4.91D-05
 ErrMax= 4.91D-05 EMaxC= 1.00D-01 BMatC= 3.25D-06 BMatP= 1.23D-05
 IDIUse=1 WtCom= 1.00D+00 WtEn= 0.00D+00
 Coeff-Com:  0.256D+00 0.744D+00
 Coeff:      0.256D+00 0.744D+00
 Gap=     0.182 Goal=   None    Shift=    0.000
 RMSDP=7.72D-06 MaxDP=5.01D-04 DE=-9.18D-06 OVMax= 8.78D-04

 Cycle  10  Pass 1  IDiag  1:
 RMSU=  5.41D-06    CP:  1.00D+00  1.01D+00
 E= -1690.44344279087     Delta-E=        0.000002389301 Rises=F Damp=F
 DIIS: error= 6.88D-05 at cycle   3 NSaved=   3.
 NSaved= 3 IEnMin= 2 EnMin= -1690.44344518017     IErMin= 2 ErrMin= 4.91D-05
 ErrMax= 6.88D-05 EMaxC= 1.00D-01 BMatC= 5.76D-06 BMatP= 3.25D-06
 IDIUse=1 WtCom= 1.00D+00 WtEn= 0.00D+00
 Coeff-Com:  0.980D-03 0.571D+00 0.428D+00
 Coeff:      0.980D-03 0.571D+00 0.428D+00
 Gap=     0.181 Goal=   None    Shift=    0.000
 RMSDP=4.53D-06 MaxDP=3.28D-04 DE= 2.39D-06 OVMax= 5.17D-04

 Cycle  11  Pass 1  IDiag  1:
 RMSU=  7.40D-07    CP:  1.00D+00  1.01D+00  4.30D-01
 E= -1690.44344830619     Delta-E=       -0.000005515319 Rises=F Damp=F
 DIIS: error= 1.02D-05 at cycle   4 NSaved=   4.
 NSaved= 4 IEnMin= 4 EnMin= -1690.44344830619     IErMin= 4 ErrMin= 1.02D-05
 ErrMax= 1.02D-05 EMaxC= 1.00D-01 BMatC= 9.70D-08 BMatP= 3.25D-06
 IDIUse=1 WtCom= 1.00D+00 WtEn= 0.00D+00
 Coeff-Com: -0.348D-02 0.353D+00 0.274D+00 0.376D+00
 Coeff:     -0.348D-02 0.353D+00 0.274D+00 0.376D+00
 Gap=     0.181 Goal=   None    Shift=    0.000
 RMSDP=6.20D-07 MaxDP=3.83D-05 DE=-5.52D-06 OVMax= 5.64D-05

 Cycle  12  Pass 1  IDiag  1:
 RMSU=  1.99D-07    CP:  1.00D+00  1.01D+00  4.36D-01  4.74D-01
 E= -1690.44344839553     Delta-E=       -0.000000089340 Rises=F Damp=F
 DIIS: error= 1.28D-06 at cycle   5 NSaved=   5.
 NSaved= 5 IEnMin= 5 EnMin= -1690.44344839553     IErMin= 5 ErrMin= 1.28D-06
 ErrMax= 1.28D-06 EMaxC= 1.00D-01 BMatC= 2.97D-09 BMatP= 9.70D-08
 IDIUse=1 WtCom= 1.00D+00 WtEn= 0.00D+00
 Coeff-Com: -0.214D-02 0.185D+00 0.145D+00 0.225D+00 0.448D+00
 Coeff:     -0.214D-02 0.185D+00 0.145D+00 0.225D+00 0.448D+00
 Gap=     0.181 Goal=   None    Shift=    0.000
 RMSDP=1.31D-07 MaxDP=7.47D-06 DE=-8.93D-08 OVMax= 1.42D-05

 Cycle  13  Pass 1  IDiag  1:
 RMSU=  7.24D-08    CP:  1.00D+00  1.01D+00  4.37D-01  5.00D-01  7.32D-01
 E= -1690.44344839829     Delta-E=       -0.000000002765 Rises=F Damp=F
 DIIS: error= 4.41D-07 at cycle   6 NSaved=   6.
 NSaved= 6 IEnMin= 6 EnMin= -1690.44344839829     IErMin= 6 ErrMin= 4.41D-07
 ErrMax= 4.41D-07 EMaxC= 1.00D-01 BMatC= 2.63D-10 BMatP= 2.97D-09
 IDIUse=1 WtCom= 1.00D+00 WtEn= 0.00D+00
 Coeff-Com: -0.834D-03 0.664D-01 0.522D-01 0.868D-01 0.266D+00 0.530D+00
 Coeff:     -0.834D-03 0.664D-01 0.522D-01 0.868D-01 0.266D+00 0.530D+00
 Gap=     0.181 Goal=   None    Shift=    0.000
 RMSDP=3.69D-08 MaxDP=2.14D-06 DE=-2.76D-09 OVMax= 3.67D-06

 Cycle  14  Pass 1  IDiag  1:
 RMSU=  1.93D-08    CP:  1.00D+00  1.01D+00  4.37D-01  5.01D-01  7.66D-01
                    CP:  7.77D-01
 E= -1690.44344839851     Delta-E=       -0.000000000215 Rises=F Damp=F
 DIIS: error= 1.32D-07 at cycle   7 NSaved=   7.
 NSaved= 7 IEnMin= 7 EnMin= -1690.44344839851     IErMin= 7 ErrMin= 1.32D-07
 ErrMax= 1.32D-07 EMaxC= 1.00D-01 BMatC= 2.58D-11 BMatP= 2.63D-10
 IDIUse=1 WtCom= 1.00D+00 WtEn= 0.00D+00
 Coeff-Com: -0.184D-03 0.127D-01 0.101D-01 0.188D-01 0.906D-01 0.293D+00
 Coeff-Com:  0.575D+00
 Coeff:     -0.184D-03 0.127D-01 0.101D-01 0.188D-01 0.906D-01 0.293D+00
 Coeff:      0.575D+00
 Gap=     0.181 Goal=   None    Shift=    0.000
 RMSDP=1.33D-08 MaxDP=7.07D-07 DE=-2.15D-10 OVMax= 1.64D-06

 Cycle  15  Pass 1  IDiag  1:
 RMSU=  7.27D-09    CP:  1.00D+00  1.01D+00  4.37D-01  5.01D-01  7.77D-01
                    CP:  8.08D-01  7.41D-01
 E= -1690.44344839853     Delta-E=       -0.000000000020 Rises=F Damp=F
 DIIS: error= 6.86D-08 at cycle   8 NSaved=   8.
 NSaved= 8 IEnMin= 8 EnMin= -1690.44344839853     IErMin= 8 ErrMin= 6.86D-08
 ErrMax= 6.86D-08 EMaxC= 1.00D-01 BMatC= 5.07D-12 BMatP= 2.58D-11
 IDIUse=1 WtCom= 1.00D+00 WtEn= 0.00D+00
 Coeff-Com:  0.287D-04-0.346D-02-0.270D-02-0.313D-02 0.103D-01 0.922D-01
 Coeff-Com:  0.352D+00 0.554D+00
 Coeff:      0.287D-04-0.346D-02-0.270D-02-0.313D-02 0.103D-01 0.922D-01
 Coeff:      0.352D+00 0.554D+00
 Gap=     0.181 Goal=   None    Shift=    0.000
 RMSDP=5.64D-09 MaxDP=3.88D-07 DE=-2.00D-11 OVMax= 7.96D-07

 SCF Done:  E(RB3LYP) =  -1690.44344840     A.U. after   15 cycles
             Convg  =    0.5639D-08             -V/T =  2.0049
 KE= 1.682139682282D+03 PE=-9.794238789734D+03 EE= 3.499773154050D+03
 Leave Link  502 at Sat Sep  3 05:18:40 2022, MaxMem=  209715200 cpu:    5307.4
 (Enter /opt/gaussian/l601.exe)
 Copying SCF densities to generalized density rwf, IOpCl= 0 IROHF=0.

 **********************************************************************

            Population analysis using the SCF density.

 **********************************************************************

 Orbital symmetries:
       Occupied  (A) (A) (A) (A) (A) (A) (A) (A) (A) (A) (A) (A)
                 (A) (A) (A) (A) (A) (A) (A) (A) (A) (A) (A) (A)
                 (A) (A) (A) (A) (A) (A) (A) (A) (A) (A) (A) (A)
                 (A) (A) (A) (A) (A) (A) (A) (A) (A) (A) (A) (A)
                 (A) (A) (A) (A) (A) (A) (A) (A) (A) (A) (A) (A)
                 (A) (A) (A) (A) (A) (A) (A) (A) (A) (A) (A) (A)
                 (A) (A) (A) (A) (A) (A) (A) (A) (A) (A) (A) (A)
                 (A) (A) (A) (A) (A) (A) (A) (A) (A) (A) (A) (A)
                 (A) (A) (A) (A) (A) (A) (A) (A) (A) (A) (A) (A)
                 (A) (A) (A) (A)
       Virtual   (A) (A) (A) (A) (A) (A) (A) (A) (A) (A) (A) (A)
                 (A) (A) (A) (A) (A) (A) (A) (A) (A) (A) (A) (A)
                 (A) (A) (A) (A) (A) (A) (A) (A) (A) (A) (A) (A)
                 (A) (A) (A) (A) (A) (A) (A) (A) (A) (A) (A) (A)
                 (A) (A) (A) (A) (A) (A) (A) (A) (A) (A) (A) (A)
                 (A) (A) (A) (A) (A) (A) (A) (A) (A) (A) (A) (A)
                 (A) (A) (A) (A) (A) (A) (A) (A) (A) (A) (A) (A)
                 (A) (A) (A) (A) (A) (A) (A) (A) (A) (A) (A) (A)
                 (A) (A) (A) (A) (A) (A) (A) (A) (A) (A) (A) (A)
                 (A) (A) (A) (A) (A) (A) (A) (A) (A) (A) (A) (A)
                 (A) (A) (A) (A) (A) (A) (A) (A) (A) (A) (A) (A)
                 (A) (A) (A) (A) (A) (A) (A) (A) (A) (A) (A) (A)
                 (A) (A) (A) (A) (A) (A) (A) (A) (A) (A) (A) (A)
                 (A) (A) (A) (A) (A) (A) (A) (A) (A) (A) (A) (A)
                 (A) (A) (A) (A) (A) (A) (A) (A) (A) (A) (A) (A)
                 (A) (A) (A) (A) (A) (A) (A) (A) (A) (A) (A) (A)
                 (A) (A) (A) (A) (A) (A) (A) (A) (A) (A) (A) (A)
                 (A) (A) (A) (A) (A) (A) (A) (A) (A) (A) (A) (A)
                 (A) (A) (A) (A) (A) (A) (A) (A) (A) (A) (A) (A)
                 (A) (A) (A) (A) (A) (A) (A) (A) (A) (A) (A) (A)
                 (A) (A) (A) (A) (A) (A) (A) (A) (A) (A) (A) (A)
                 (A) (A) (A) (A) (A) (A) (A) (A) (A) (A) (A) (A)
                 (A) (A) (A) (A) (A) (A) (A) (A) (A) (A) (A) (A)
                 (A) (A) (A) (A) (A) (A) (A) (A) (A) (A) (A) (A)
                 (A) (A) (A) (A) (A) (A) (A) (A) (A) (A) (A) (A)
                 (A) (A) (A) (A) (A) (A) (A) (A) (A) (A) (A) (A)
                 (A) (A) (A) (A) (A) (A) (A) (A) (A) (A) (A) (A)
                 (A) (A) (A) (A) (A) (A) (A) (A) (A) (A) (A) (A)
                 (A) (A) (A) (A) (A) (A) (A) (A) (A) (A) (A) (A)
                 (A) (A) (A) (A) (A) (A) (A) (A) (A) (A) (A) (A)
                 (A) (A) (A) (A) (A) (A) (A) (A) (A) (A) (A) (A)
                 (A) (A) (A) (A) (A) (A) (A) (A) (A) (A) (A) (A)
                 (A) (A) (A) (A) (A) (A) (A) (A) (A) (A) (A) (A)
                 (A) (A) (A) (A) (A) (A) (A) (A) (A) (A) (A) (A)
                 (A) (A) (A) (A) (A) (A) (A) (A) (A) (A) (A) (A)
                 (A) (A) (A) (A) (A) (A)
 The electronic state is 1-A.
 Alpha  occ. eigenvalues --  -88.92010 -19.11660 -14.40871 -14.40469 -14.38445
 Alpha  occ. eigenvalues --  -14.37992 -14.34183 -14.33940 -10.29889 -10.25328
 Alpha  occ. eigenvalues --  -10.24869 -10.23563 -10.23252 -10.23115 -10.22785
 Alpha  occ. eigenvalues --  -10.22453 -10.21917 -10.21782 -10.20808 -10.20326
 Alpha  occ. eigenvalues --  -10.20201 -10.20050 -10.19653 -10.19403 -10.19286
 Alpha  occ. eigenvalues --  -10.19120 -10.19118 -10.19104 -10.19002 -10.18693
 Alpha  occ. eigenvalues --  -10.18530  -7.98078  -5.94429  -5.94063  -5.93674
 Alpha  occ. eigenvalues --   -1.09843  -1.05593  -1.05164  -0.96300  -0.92553
 Alpha  occ. eigenvalues --   -0.89118  -0.86966  -0.86736  -0.84986  -0.80604
 Alpha  occ. eigenvalues --   -0.78337  -0.78126  -0.77022  -0.75841  -0.75578
 Alpha  occ. eigenvalues --   -0.74783  -0.74061  -0.70783  -0.70100  -0.65133
 Alpha  occ. eigenvalues --   -0.64773  -0.62608  -0.62365  -0.60806  -0.59338
 Alpha  occ. eigenvalues --   -0.58754  -0.57182  -0.56949  -0.55987  -0.54318
 Alpha  occ. eigenvalues --   -0.53676  -0.52827  -0.52445  -0.51831  -0.50673
 Alpha  occ. eigenvalues --   -0.48510  -0.48037  -0.47742  -0.46752  -0.46348
 Alpha  occ. eigenvalues --   -0.46264  -0.45390  -0.44738  -0.44664  -0.44245
 Alpha  occ. eigenvalues --   -0.43557  -0.43345  -0.42833  -0.42210  -0.41998
 Alpha  occ. eigenvalues --   -0.40596  -0.40552  -0.40159  -0.39692  -0.38624
 Alpha  occ. eigenvalues --   -0.38302  -0.37609  -0.37410  -0.37203  -0.36506
 Alpha  occ. eigenvalues --   -0.35752  -0.35567  -0.35277  -0.33005  -0.30883
 Alpha  occ. eigenvalues --   -0.30165  -0.28510  -0.27034  -0.26466  -0.26239
 Alpha  occ. eigenvalues --   -0.25915  -0.25854  -0.25709  -0.25565  -0.24837
 Alpha  occ. eigenvalues --   -0.23242  -0.21639
 Alpha virt. eigenvalues --   -0.03493  -0.03291  -0.02663  -0.01302   0.00835
 Alpha virt. eigenvalues --    0.01046   0.01393   0.01911   0.02744   0.04161
 Alpha virt. eigenvalues --    0.05247   0.05849   0.06551   0.07188   0.07460
 Alpha virt. eigenvalues --    0.07648   0.07688   0.08412   0.08858   0.09469
 Alpha virt. eigenvalues --    0.09977   0.11002   0.11230   0.11524   0.11862
 Alpha virt. eigenvalues --    0.13005   0.13376   0.13956   0.14188   0.14411
 Alpha virt. eigenvalues --    0.15139   0.15999   0.16581   0.17026   0.17504
 Alpha virt. eigenvalues --    0.17915   0.18632   0.20776   0.21498   0.21680
 Alpha virt. eigenvalues --    0.22661   0.23315   0.24762   0.25149   0.25693
 Alpha virt. eigenvalues --    0.26232   0.27035   0.27648   0.28143   0.29079
 Alpha virt. eigenvalues --    0.29428   0.30686   0.30804   0.31387   0.31558
 Alpha virt. eigenvalues --    0.33168   0.33629   0.35300   0.35825   0.36637
 Alpha virt. eigenvalues --    0.37307   0.38228   0.39620   0.40106   0.41024
 Alpha virt. eigenvalues --    0.41446   0.42098   0.42525   0.43371   0.44313
 Alpha virt. eigenvalues --    0.44671   0.44959   0.45671   0.45749   0.46233
 Alpha virt. eigenvalues --    0.46286   0.46640   0.46743   0.47259   0.47392
 Alpha virt. eigenvalues --    0.47849   0.48020   0.48543   0.48958   0.49758
 Alpha virt. eigenvalues --    0.49952   0.50073   0.50741   0.50846   0.51358
 Alpha virt. eigenvalues --    0.51646   0.51948   0.52451   0.52631   0.53099
 Alpha virt. eigenvalues --    0.53378   0.53754   0.54245   0.55036   0.55596
 Alpha virt. eigenvalues --    0.55811   0.55990   0.56289   0.56839   0.57221
 Alpha virt. eigenvalues --    0.57619   0.58201   0.58819   0.59452   0.59747
 Alpha virt. eigenvalues --    0.59996   0.60507   0.60893   0.60993   0.61119
 Alpha virt. eigenvalues --    0.61892   0.62214   0.62810   0.63213   0.63943
 Alpha virt. eigenvalues --    0.64464   0.64605   0.65357   0.65477   0.65681
 Alpha virt. eigenvalues --    0.65926   0.66103   0.66450   0.67212   0.67651
 Alpha virt. eigenvalues --    0.68051   0.68718   0.69032   0.69484   0.69739
 Alpha virt. eigenvalues --    0.70603   0.71583   0.71685   0.72127   0.72681
 Alpha virt. eigenvalues --    0.73309   0.73756   0.74137   0.75089   0.76209
 Alpha virt. eigenvalues --    0.76827   0.77223   0.78325   0.78844   0.79218
 Alpha virt. eigenvalues --    0.79846   0.80585   0.81745   0.82662   0.83316
 Alpha virt. eigenvalues --    0.84257   0.84416   0.85304   0.85718   0.86398
 Alpha virt. eigenvalues --    0.87128   0.88249   0.88745   0.89139   0.89684
 Alpha virt. eigenvalues --    0.90057   0.90675   0.91197   0.92157   0.92730
 Alpha virt. eigenvalues --    0.93328   0.94045   0.94249   0.94961   0.95494
 Alpha virt. eigenvalues --    0.95814   0.96621   0.97487   0.98465   0.99280
 Alpha virt. eigenvalues --    0.99765   1.00096   1.00663   1.00876   1.01142
 Alpha virt. eigenvalues --    1.01556   1.02161   1.02690   1.03158   1.03618
 Alpha virt. eigenvalues --    1.04403   1.04640   1.05336   1.06403   1.06811
 Alpha virt. eigenvalues --    1.07175   1.08023   1.08226   1.08582   1.09291
 Alpha virt. eigenvalues --    1.10160   1.11832   1.12537   1.12755   1.12957
 Alpha virt. eigenvalues --    1.13394   1.14704   1.17043   1.17700   1.18424
 Alpha virt. eigenvalues --    1.18630   1.19813   1.20053   1.23027   1.23310
 Alpha virt. eigenvalues --    1.23893   1.24446   1.24812   1.25266   1.25622
 Alpha virt. eigenvalues --    1.26945   1.27598   1.29907   1.31092   1.31314
 Alpha virt. eigenvalues --    1.32326   1.32960   1.33995   1.34494   1.35469
 Alpha virt. eigenvalues --    1.35626   1.36842   1.39007   1.39404   1.39770
 Alpha virt. eigenvalues --    1.41118   1.42566   1.44136   1.44864   1.46290
 Alpha virt. eigenvalues --    1.46720   1.46774   1.47697   1.48322   1.49274
 Alpha virt. eigenvalues --    1.50074   1.50533   1.50912   1.51220   1.51918
 Alpha virt. eigenvalues --    1.52404   1.53328   1.54326   1.54961   1.56568
 Alpha virt. eigenvalues --    1.56878   1.57568   1.58331   1.58561   1.59515
 Alpha virt. eigenvalues --    1.59916   1.60242   1.60673   1.61042   1.61589
 Alpha virt. eigenvalues --    1.62250   1.62779   1.63374   1.63549   1.64073
 Alpha virt. eigenvalues --    1.64293   1.65083   1.65424   1.65692   1.66289
 Alpha virt. eigenvalues --    1.66679   1.67396   1.68241   1.68496   1.68708
 Alpha virt. eigenvalues --    1.68866   1.69627   1.70224   1.70719   1.71099
 Alpha virt. eigenvalues --    1.71962   1.72242   1.72480   1.73653   1.74323
 Alpha virt. eigenvalues --    1.75135   1.75425   1.75778   1.76519   1.77348
 Alpha virt. eigenvalues --    1.77943   1.78835   1.79247   1.79701   1.79937
 Alpha virt. eigenvalues --    1.80665   1.80977   1.81709   1.82534   1.82775
 Alpha virt. eigenvalues --    1.83276   1.84406   1.84846   1.85717   1.85874
 Alpha virt. eigenvalues --    1.86295   1.86607   1.86867   1.87846   1.88524
 Alpha virt. eigenvalues --    1.88974   1.89176   1.90202   1.90380   1.92121
 Alpha virt. eigenvalues --    1.92635   1.93595   1.93965   1.94379   1.95001
 Alpha virt. eigenvalues --    1.95518   1.96589   1.97318   1.98820   1.99360
 Alpha virt. eigenvalues --    2.00003   2.00417   2.01183   2.02293   2.02954
 Alpha virt. eigenvalues --    2.03942   2.04201   2.04538   2.05384   2.05645
 Alpha virt. eigenvalues --    2.06496   2.07274   2.09025   2.09647   2.10892
 Alpha virt. eigenvalues --    2.12213   2.12547   2.13859   2.14243   2.16456
 Alpha virt. eigenvalues --    2.17749   2.18345   2.19070   2.20069   2.21069
 Alpha virt. eigenvalues --    2.22000   2.24271   2.25528   2.25789   2.27397
 Alpha virt. eigenvalues --    2.28836   2.30592   2.31197   2.32940   2.34922
 Alpha virt. eigenvalues --    2.36734   2.37107   2.38940   2.39594   2.40158
 Alpha virt. eigenvalues --    2.41725   2.43033   2.43518   2.43653   2.43861
 Alpha virt. eigenvalues --    2.45146   2.47135   2.47253   2.48030   2.49114
 Alpha virt. eigenvalues --    2.49288   2.50671   2.51418   2.52064   2.53184
 Alpha virt. eigenvalues --    2.54045   2.54979   2.56054   2.57170   2.58735
 Alpha virt. eigenvalues --    2.59221   2.60408   2.61542   2.64797   2.65240
 Alpha virt. eigenvalues --    2.66271   2.68167   2.69807   2.71471   2.72483
 Alpha virt. eigenvalues --    2.73743   2.74479   2.74861   2.78403   2.78738
 Alpha virt. eigenvalues --    2.80603   2.81763   2.82566   2.85019   2.89585
 Alpha virt. eigenvalues --    2.91185   2.97718   2.98584   2.99419   3.01187
 Alpha virt. eigenvalues --    3.05988   3.07926   3.09055   3.12036   3.13505
 Alpha virt. eigenvalues --    3.16598   3.18650   3.42299   3.49246   3.58694
 Alpha virt. eigenvalues --    3.60802
          Condensed to atoms (all electrons):
 Mulliken atomic charges:
              1
     1  C    0.130581
     2  N   -0.137587
     3  C    0.148099
     4  C   -0.096273
     5  C    0.106485
     6  N   -0.174774
     7  C    0.048078
     8  C    0.020134
     9  C    0.109741
    10  C    0.069472
    11  C    0.057094
    12  C    0.025576
    13  N   -0.277900
    14  C    0.171094
    15  C   -0.026656
    16  C    0.072254
    17  C   -0.083011
    18  S    0.126754
    19  C   -0.142741
    20  C    0.105343
    21  O   -0.246768
    22  C    0.155035
    23  N   -0.229046
    24  N   -0.056486
    25  N   -0.181288
    26  C   -0.002597
    27  C    0.063399
    28  C    0.049448
    29  C    0.051451
    30  C    0.046047
    31  C    0.211603
    32  H    0.043052
    33  H    0.043006
    34  H    0.026019
    35  H   -0.014754
    36  H   -0.030653
    37  H   -0.055382
    38  H   -0.035565
    39  H   -0.042751
    40  H   -0.053241
    41  H    0.033635
    42  H    0.042914
    43  H   -0.037321
    44  H    0.009142
    45  H    0.015962
    46  H    0.049565
    47  H    0.048932
    48  H   -0.034694
    49  H   -0.039159
    50  H   -0.037529
    51  H   -0.043740
 Sum of Mulliken atomic charges =   0.00000
 Mulliken charges with hydrogens summed into heavy atoms:
              1
     1  C    0.242658
     2  N   -0.137587
     3  C    0.133345
     4  C   -0.096273
     5  C    0.075832
     6  N   -0.174774
     7  C    0.048078
     8  C   -0.035249
     9  C    0.074176
    10  C    0.069472
    11  C    0.014343
    12  C   -0.027665
    13  N   -0.277900
    14  C    0.247644
    15  C   -0.026656
    16  C    0.034933
    17  C   -0.073868
    18  S    0.126754
    19  C   -0.126779
    20  C    0.105343
    21  O   -0.246768
    22  C    0.253532
    23  N   -0.229046
    24  N   -0.056486
    25  N   -0.181288
    26  C   -0.002597
    27  C    0.028706
    28  C    0.010289
    29  C    0.013921
    30  C    0.002308
    31  C    0.211603
 Sum of Mulliken charges with hydrogens summed into heavy atoms =   0.00000
 Electronic spatial extent (au):  <R**2>=          19645.9860
 Charge=              0.0000 electrons
 Dipole moment (field-independent basis, Debye):
    X=             -2.2868    Y=              3.1665    Z=              0.9137  Tot=              4.0113
 Quadrupole moment (field-independent basis, Debye-Ang):
   XX=           -183.6147   YY=           -171.6605   ZZ=           -183.1611
   XY=             32.5031   XZ=              8.6044   YZ=            -13.6225
 Traceless Quadrupole moment (field-independent basis, Debye-Ang):
   XX=             -4.1359   YY=              7.8183   ZZ=             -3.6823
   XY=             32.5031   XZ=              8.6044   YZ=            -13.6225
 Octapole moment (field-independent basis, Debye-Ang**2):
  XXX=           -112.0636  YYY=             39.4162  ZZZ=             16.9250  XYY=            -59.9851
  XXY=           -146.3905  XXZ=             90.8554  XZZ=             -3.9206  YZZ=             18.0522
  YYZ=              7.5357  XYZ=            -37.8821
 Hexadecapole moment (field-independent basis, Debye-Ang**3):
 XXXX=         -18873.5134 YYYY=          -5697.9331 ZZZZ=          -1531.6503 XXXY=           1338.3066
 XXXZ=             80.4983 YYYX=            419.6614 YYYZ=           -138.6303 ZZZX=             72.1656
 ZZZY=            -74.4383 XXYY=          -3577.9975 XXZZ=          -3490.8886 YYZZ=          -1301.4237
 XXYZ=           -357.5562 YYXZ=             55.6304 ZZXY=             90.4880
 N-N= 2.921882505003D+03 E-N=-9.794238800783D+03  KE= 1.682139682282D+03
 No NMR shielding tensors so no spin-rotation constants.
 Leave Link  601 at Sat Sep  3 05:18:40 2022, MaxMem=  209715200 cpu:       3.8
 (Enter /opt/gaussian/l701.exe)
 Compute integral first derivatives.
 ... and contract with generalized density number  0.
 Leave Link  701 at Sat Sep  3 05:18:41 2022, MaxMem=  209715200 cpu:       3.3
 (Enter /opt/gaussian/l702.exe)
 L702 exits ... SP integral derivatives will be done elsewhere.
 Leave Link  702 at Sat Sep  3 05:18:41 2022, MaxMem=  209715200 cpu:       0.2
 (Enter /opt/gaussian/l703.exe)
 Compute integral first derivatives, UseDBF=F ICtDFT=           0.
 Integral derivatives from FoFDir, PRISM(SPDF).
 Calling FoFJK, ICntrl=      2127 FMM=F ISym2X=0 I1Cent= 0 IOpClX= 0 NMat=1 NMatS=1 NMatT=0.
 FoFCou: FMM=F IPFlag=           0 FMFlag=      100000 FMFlg1=         800
         NFxFlg=           0 DoJE=F BraDBF=F KetDBF=F FulRan=T
         Omega=  0.000000  0.000000  1.000000  0.000000  0.000000 ICntrl=    2127 IOpCl=  0
         NMat0=    1 NMatS0=    1 NMatT0=    0 NMatD0=    1 NMtDS0=    0 NMtDT0=    0
         I1Cent=           0 NGrid=           0.
 Symmetry not used in FoFCou.
 Leave Link  703 at Sat Sep  3 05:22:28 2022, MaxMem=  209715200 cpu:    1811.9
 (Enter /opt/gaussian/l716.exe)
 Dipole        =-8.99686712D-01 1.24578995D+00 3.59462977D-01
 ***** Axes restored to original set *****
 -------------------------------------------------------------------
 Center     Atomic                   Forces (Hartrees/Bohr)
 Number     Number              X              Y              Z
 -------------------------------------------------------------------
      1        6           0.008828944    0.006469596   -0.002103790
      2        7          -0.003782478    0.008144995   -0.000474591
      3        6          -0.002145735   -0.003495337   -0.000346468
      4        6           0.013150574    0.012264363   -0.003149666
      5        6           0.009395136   -0.012867308    0.000925510
      6        7          -0.023132920   -0.003862999    0.003901991
      7        6          -0.010087712   -0.003314226    0.001818918
      8        6           0.002988643    0.002474343    0.001144338
      9        6          -0.002150187   -0.000073052    0.002549664
     10        6           0.009792654    0.001510454   -0.002040281
     11        6          -0.002987275   -0.001166171   -0.000584578
     12        6           0.002911769   -0.000485123   -0.002349972
     13        7          -0.005279374    0.006747011   -0.003485464
     14        6           0.002837546   -0.003291653    0.013550876
     15        6           0.000872850    0.008583673   -0.022023087
     16        6          -0.008467196   -0.018935144   -0.000873248
     17        6           0.000331775   -0.008989735    0.032082510
     18       16          -0.006161583   -0.006488920   -0.023571451
     19        6           0.012786457    0.022863369    0.020615307
     20        6          -0.002832525   -0.013927449    0.008316200
     21        8           0.000361717    0.000881032   -0.001389984
     22        6          -0.001027770   -0.004640199    0.003415709
     23        7           0.000054610    0.000240203   -0.000007648
     24        7          -0.010440472    0.011156632   -0.009895645
     25        7           0.014080128   -0.018135829    0.002714131
     26        6           0.001317410   -0.007209790   -0.014557892
     27        6          -0.001610286    0.001721669   -0.001773671
     28        6          -0.004280729    0.006547024    0.001914122
     29        6           0.004309949   -0.006132794   -0.001685140
     30        6          -0.000709632   -0.000476308   -0.004965885
     31        6          -0.006949257    0.010193214    0.005341056
     32        1          -0.005418781    0.001944399    0.012982818
     33        1          -0.010814138    0.001676882   -0.008968578
     34        1           0.005020585   -0.012031119   -0.000957570
     35        1           0.005808550   -0.014568478    0.000748136
     36        1          -0.000036449    0.016651356   -0.001985634
     37        1          -0.005805689   -0.011821962   -0.004977928
     38        1           0.008000127   -0.009288420   -0.007562807
     39        1           0.005873979    0.011985866    0.004933871
     40        1          -0.007543540    0.009068283    0.007375917
     41        1           0.007747845   -0.001750633   -0.009972471
     42        1          -0.011027335    0.004477634   -0.005134992
     43        1          -0.000255352    0.003685539   -0.014050778
     44        1           0.006628389    0.014925395   -0.000261965
     45        1          -0.003810963   -0.012031641    0.009645205
     46        1           0.000771128    0.002443672   -0.013395260
     47        1           0.004710715    0.011631012    0.005514759
     48        1           0.007269063   -0.011555441   -0.004681657
     49        1           0.007818254   -0.007142683    0.009737507
     50        1           0.000548157    0.004042637    0.013649496
     51        1          -0.007459571    0.011352162    0.004350062
 -------------------------------------------------------------------
 Cartesian Forces:  Max     0.032082510 RMS     0.008751756
 Leave Link  716 at Sat Sep  3 05:22:28 2022, MaxMem=  209715200 cpu:       0.2
 (Enter /opt/gaussian/l103.exe)

 GradGradGradGradGradGradGradGradGradGradGradGradGradGradGradGradGradGrad
 Berny optimization.
 Internal  Forces:  Max     0.021787972 RMS     0.005820465
 Search for a local minimum.
 Step number   1 out of a maximum of  287
 All quantities printed in internal units (Hartrees-Bohrs-Radians)
 RMS Force = .58205D-02 SwitMx=.10000D-02 MixMth= 1
 Mixed Optimization -- RFO/linear search
 Second derivative matrix not updated -- first step.
 ITU=  0
     Eigenvalues ---    0.00441   0.00615   0.00838   0.01084   0.01112
     Eigenvalues ---    0.01179   0.01189   0.01230   0.01289   0.01301
     Eigenvalues ---    0.01641   0.01647   0.01705   0.01816   0.01829
     Eigenvalues ---    0.01844   0.01932   0.02062   0.02066   0.02095
     Eigenvalues ---    0.02096   0.02118   0.02160   0.02166   0.02181
     Eigenvalues ---    0.02183   0.02195   0.02203   0.02225   0.02234
     Eigenvalues ---    0.02238   0.02250   0.02260   0.02264   0.02264
     Eigenvalues ---    0.02282   0.02287   0.02310   0.02326   0.02344
     Eigenvalues ---    0.02377   0.02397   0.04632   0.05140   0.06418
     Eigenvalues ---    0.06595   0.07616   0.07734   0.09999   0.10435
     Eigenvalues ---    0.13263   0.13553   0.15993   0.15994   0.15995
     Eigenvalues ---    0.15996   0.15998   0.15998   0.15999   0.15999
     Eigenvalues ---    0.16000   0.16000   0.16000   0.16000   0.16000
     Eigenvalues ---    0.16000   0.16000   0.16000   0.21997   0.22000
     Eigenvalues ---    0.22000   0.22025   0.22426   0.22592   0.22961
     Eigenvalues ---    0.23359   0.23511   0.23995   0.24050   0.24533
     Eigenvalues ---    0.24959   0.24973   0.24991   0.24994   0.24998
     Eigenvalues ---    0.24998   0.24998   0.24999   0.25000   0.25000
     Eigenvalues ---    0.25000   0.25000   0.26564   0.26954   0.29930
     Eigenvalues ---    0.31209   0.35560   0.35846   0.35880   0.35885
     Eigenvalues ---    0.35961   0.36031   0.36073   0.36092   0.36401
     Eigenvalues ---    0.36882   0.36890   0.36890   0.36973   0.36995
     Eigenvalues ---    0.37009   0.37070   0.37073   0.37244   0.37310
     Eigenvalues ---    0.37627   0.37678   0.37715   0.37751   0.38785
     Eigenvalues ---    0.39607   0.39862   0.40071   0.40922   0.42959
[...]
 ,-0.00000277,0.00000366,-0.00000839,0.00000345,-0.00000586,-0.00000311
 ,0.00000065,0.00000111,0.00000116,0.00000067,-0.00000109,0.00000008,-0
 .00000571,0.00000151,0.00000246,0.00007167,-0.00005008,0.00001089,-0.0
 0000752,0.00000539,-0.00002285,-0.15041975,0.20047304,-0.00000238,-0.0
 0000255,0.00000082,0.00000480,0.00000067,-0.00000011,-0.00000330,-0.00
 000161,0.00000006,0.00000025,0.00000102,-0.00000024,-0.00000114,0.0000
 0147,0.00000037,0.00000351,0.00000060,-0.00000107,-0.00000346,-0.00000
 108,0.00000067,0.00000040,-0.00000156,-0.00000096,-0.00000077,0.000001
 81,-0.00000034,-0.00000346,0.00000076,0.00000158,-0.00000059,-0.000000
 93,0.00000071,0.00000071,0.00000142,0.00000062,0.00000007,0.00000268,0
 .00000318,-0.00000510,-0.00000018,-0.00000464,-0.00000046,-0.00000390,
 -0.00000351,-0.00000001,-0.00000068,0.00000304,0.00000200,-0.00000011,
 -0.00000142,0.00000003,0.00000348,0.00000177,0.00000346,-0.00000104,-0
 .00000046,0.00003266,0.00001855,-0.00001904,-0.00001418,-0.00001500,0.
 00000661,-0.00006317,-0.00000782,-0.00041149,-0.00069038,0.00079306,-0
 .00007351,-0.00016386,0.00019157,0.00016069,0.00145781,-0.00116288,0.0
 0161138,-0.01271285,0.01489437,0.01209781,0.05552196,-0.06696986,-0.08
 745056,0.01889146,-0.02183692,-0.00330056,-0.00069580,-0.00048252,-0.0
 0506689,-0.00026024,0.00030357,-0.00084641,-0.00198612,0.00142875,-0.0
 0251581,0.00000052,0.00000034,-0.00000069,0.00000043,0.00000011,0.0000
 0006,-0.00000001,0.00000027,0.00000020,-0.00000032,-0.00000034,0.00000
 032,-0.00000034,0.00000016,0.00000002,-0.00000007,0.00000035,0.0000005
 8,-0.00000081,-0.00000043,0.00000061,-0.00000054,0.00000041,-0.0000002
 8,-0.00000006,-0.00000034,-0.00000030,-0.00000087,-0.00000034,0.000004
 81,-0.00000174,0.00000124,0.00000294,-0.00000076,0.00000042,0.00000050
 ,-0.00000040,0.00000026,0.00000075,-0.00000418,0.00000087,-0.00000183,
 -0.00008402,0.00009547,-0.00001372,0.00002744,-0.00001945,0.00000708,-
 0.06028651,0.07324282,0.08479342,0.00000566,0.00000737,-0.00000223,-0.
 00001768,-0.00000045,0.00000076,0.00001035,0.00000646,0.00000016,-0.00
 000033,-0.00000375,0.00000136,0.00000325,-0.00000344,-0.00000137,-0.00
 000824,-0.00000520,0.00000357,0.00000672,0.00000314,-0.00000127,-0.000
 00033,0.00000390,0.00000294,-0.00000657,-0.00000607,0.00000416,0.00004
 884,0.00001897,-0.00000961,-0.00000914,-0.00000095,-0.00000061,-0.0000
 0249,-0.00000486,-0.00000151,-0.00007954,0.00001128,0.00000053,0.00000
 119,0.00000079,0.00000802,-0.00000470,0.00000422,0.00001217,-0.0000001
 1,0.00000107,0.00000247,-0.00000234,0.00000738,-0.00000166,-0.00000081
 ,-0.00000915,-0.00000677,-0.00001962,0.00000937,-0.00000730,0.00011188
 ,-0.00001419,-0.00001491,-0.00003437,0.00000881,-0.00000869,0.00005263
 ,-0.00007927,-0.00000166,-0.00004286,0.00001289,0.00006851,-0.00068612
 ,-0.00086824,0.00001482,0.00092535,0.00067759,-0.00008690,0.00496190,0
 .00350251,0.00084346,0.00453061,-0.00151958,0.00360778,-0.12153842,0.0
 8750117,-0.10034147,-0.00671318,0.00842315,-0.01427141,0.00114924,0.00
 461651,0.00190477,-0.00026283,-0.00024165,0.00079421,-0.00000189,-0.00
 000093,0.00000179,-0.00000124,-0.00000063,0.00000035,-0.00000016,-0.00
 000112,-0.00000077,0.00000010,0.00000043,-0.00000142,0.00000096,-0.000
 00061,-0.00000023,-0.00000326,-0.00000214,-0.00000189,0.00000437,0.000
 00448,0.00000011,0.00000344,-0.00000258,-0.00000062,-0.00000155,0.0000
 0113,0.00000056,0.00000052,-0.00000395,0.00000496,-0.00000253,0.000001
 52,-0.00000107,0.00000233,-0.00000085,-0.00000098,0.00000171,-0.000001
 14,-0.00000109,0.00001918,-0.00000332,-0.00000252,-0.00001613,-0.00001
 109,-0.00001681,0.00000660,-0.00001763,0.00006607,-0.00236374,-0.00280
 192,0.00002658,0.12149307,-0.00000617,-0.00000616,0.00000218,0.0000150
 7,-0.00000037,-0.00000005,-0.00000985,-0.00000460,0.00000016,0.0000012
 7,0.00000239,-0.00000093,-0.00000487,0.00000547,0.00000149,0.00001201,
 0.00000274,-0.00000368,-0.00000875,-0.00000420,0.00000083,0.00000049,-
 0.00000487,-0.00000089,0.00000516,0.00000776,-0.00000052,-0.00004171,-
 0.00001597,0.00000989,0.00000629,0.00000241,0.00000166,0.00000463,0.00
 000414,0.00000211,0.00008016,-0.00006334,0.00001027,0.00001013,0.00001
 933,-0.00001322,0.00000181,-0.00000248,-0.00001054,-0.00000304,-0.0000
 0485,-0.00000688,-0.00000418,-0.00001242,0.00000657,0.00000165,0.00000
 582,0.00000174,0.00001610,0.00000121,0.00001080,-0.00008427,0.00017150
 ,-0.00009029,0.00006492,-0.00006851,0.00010612,-0.00001318,-0.00001174
 ,-0.00003433,-0.00004151,0.00001600,-0.00001306,-0.00083533,-0.0005084
 5,0.00000159,0.00053393,0.00092244,-0.00009574,0.00363922,0.00371020,-
 0.00204346,-0.00349899,0.00620635,-0.00593632,0.08758549,-0.12391317,0
 .09845422,0.01026938,-0.00803374,0.01662312,0.00454874,-0.00016928,-0.
 00258216,-0.00029329,-0.00029917,-0.00090499,0.00000120,0.00000138,-0.
 00000168,0.00000134,0.00000029,0.00000010,-0.00000006,0.00000070,-0.00
 000010,-0.00000125,-0.00000065,0.00000038,-0.00000095,0.00000016,0.000
 00012,0.00000060,0.00000165,0.00000026,-0.00000360,-0.00000320,-0.0000
 0449,-0.00000195,0.00000149,-0.00000047,0.00000198,-0.00000122,-0.0000
 0125,-0.00000276,0.00000024,-0.00000354,0.00000226,-0.00000545,0.00000
 022,-0.00000043,0.00000055,0.00000140,0.00000041,-0.00000097,0.0000017
 8,-0.00001604,0.00000592,0.00000224,-0.00000057,-0.00000621,0.00000045
 ,0.00002015,0.00001556,0.00003140,-0.00276026,-0.00171918,0.00055436,-
 0.09772858,0.12492752,0.00000680,0.00000779,-0.00000208,-0.00001797,-0
 .00000004,0.00000015,0.00001133,0.00000595,-0.00000026,-0.00000118,-0.
 00000301,0.00000095,0.00000468,-0.00000549,-0.00000162,-0.00001204,-0.
 00000405,0.00000369,0.00000862,0.00000416,-0.00000145,-0.00000043,0.00
 000565,0.00000309,-0.00000580,-0.00000995,0.00000192,0.00004767,0.0000
 2487,-0.00001371,-0.00001056,-0.00000347,-0.00000063,-0.00000510,-0.00
 000390,-0.00000072,-0.00011436,0.00003321,0.00000603,-0.00000180,-0.00
 001951,0.00000041,-0.00000784,-0.00000189,-0.00000040,-0.00000183,0.00
 000052,0.00000946,0.00000116,0.00000564,-0.00000278,0.00000323,0.00000
 313,0.00000489,-0.00000629,0.00000364,-0.00001061,0.00014810,-0.000033
 93,-0.00002326,-0.00007364,0.00002228,0.00001348,0.00008229,-0.0001216
 8,0.00004537,-0.00007615,0.00014462,0.00049518,0.00004234,0.00002644,-
 0.00101309,-0.00114515,0.00111801,0.00008845,0.00166657,-0.00304304,-0
 .00464521,-0.01715412,0.01746639,-0.01594745,-0.10030897,0.09828687,-0
 .18517571,0.00677188,-0.00694023,0.00900331,0.00135809,-0.00192975,0.0
 0028226,0.00037493,-0.00040308,-0.00054051,-0.00000154,-0.00000143,0.0
 0000187,-0.00000150,-0.00000034,0.00000002,0.00000011,-0.00000104,-0.0
 0000015,0.00000101,0.00000076,-0.00000042,0.00000111,-0.00000040,0.,-0
 .00000183,-0.00000206,-0.00000093,0.00000549,0.00000444,0.00000158,0.0
 0000179,-0.00000140,-0.00000054,-0.00000224,0.00000121,0.00000130,0.00
 000218,-0.00000439,0.00001163,-0.00000346,0.00000684,0.00000289,0.0000
 0084,-0.00000255,-0.00000028,0.00000060,0.00000009,0.00000005,0.000001
 57,-0.00000117,-0.00000270,-0.00000027,-0.00000851,-0.00001684,-0.0000
 2342,0.00002801,-0.00000585,0.00040458,0.00011045,0.00125688,0.1077791
 7,-0.10483837,0.19502522,-0.00000286,-0.00000226,-0.00000008,0.0000017
 6,0.00000087,0.00000082,-0.00000248,-0.00000013,0.00000127,0.00000066,
 0.00000066,0.00000095,-0.00000204,0.00000302,0.00000066,0.00000611,-0.
 00000197,-0.00000007,-0.00000622,-0.00000053,0.00000095,0.00000059,-0.
 00000223,0.00000304,-0.00000184,-0.00000411,0.00000161,0.00001578,0.00
 000476,-0.00000411,-0.00000233,0.00000068,0.00000379,-0.00000031,0.000
 00042,0.00000289,-0.00001544,-0.00000862,0.00001265,0.00000463,0.00000
 382,-0.00000915,-0.00000394,-0.00000669,-0.00000648,-0.00000510,-0.000
 00551,0.00000754,-0.00000229,-0.00000307,0.00000041,0.00000431,0.00000
 912,0.00000133,0.00000331,0.00000825,0.00000089,0.00006678,0.00002350,
 -0.00004596,-0.00005452,-0.00002547,0.00005729,0.00011201,-0.00003156,
 -0.00000420,0.00135832,0.00006540,-0.00074897,-0.00101288,-0.00033453,
 -0.00023430,0.00016603,-0.00020484,0.00025417,-0.00093605,0.00034918,-
 0.00049831,0.00071510,0.00531465,0.00063709,0.00200030,0.00258309,0.01
 923445,-0.04777799,0.01423071,0.02137555,0.00457597,-0.00272945,-0.016
 85982,0.00234041,0.00554161,-0.00269647,-0.00000029,0.00000075,-0.0000
 0032,0.00000068,-0.00000035,0.00000046,-0.00000039,0.00000009,-0.00000
 072,-0.00000156,-0.00000099,-0.00000199,-0.00000040,-0.00000016,-0.000
 00079,-0.00000171,-0.00000003,-0.00000214,0.00000117,0.00000195,-0.000
 00394,0.00000029,0.00000081,-0.00000270,-0.00000099,0.00000038,-0.0000
 0145,-0.00000135,-0.00000255,0.00000601,-0.00000014,0.00000128,0.00000
 105,0.00000096,-0.00000109,0.00000230,0.00000168,-0.00000201,0.0000025
 8,-0.00000573,0.00000147,-0.00001146,-0.00002721,-0.00000006,-0.000004
 73,-0.00001185,-0.00000232,0.00000011,0.00006387,0.00020515,0.00089928
 ,-0.00130488,-0.00215212,-0.00007153,0.04176802,0.00000186,0.00000293,
 -0.00000068,-0.00000604,-0.00000134,0.00000063,0.00000317,0.00000256,0
 .00000005,0.00000049,-0.00000213,0.00000044,-0.00000012,0.00000032,-0.
 00000038,-0.00000058,-0.00000205,0.00000055,0.00000208,-0.00000033,-0.
 00000096,-0.00000149,-0.00000046,0.00000146,-0.00000111,0.00000134,0.0
 0000155,0.00000962,-0.00000190,0.00000322,-0.00000102,0.00000473,-0.00
 000053,0.00000225,-0.00000225,-0.00000176,0.00002154,-0.00003065,0.000
 00627,0.00000698,0.00002608,0.00000160,0.00000695,0.00000883,0.0000016
 3,-0.00000291,-0.00000412,-0.00001878,-0.00001460,-0.00000814,0.000017
 63,0.00000257,-0.00001453,-0.00001187,-0.00000707,0.00001479,0.0000107
 7,-0.00004866,0.00004091,-0.00001888,0.00002218,-0.00004130,0.00000418
 ,0.00000029,0.00009850,0.00003723,0.00024696,0.00128031,0.00054477,-0.
 00043125,-0.00082417,0.00033030,-0.00017857,0.00014830,-0.00023177,0.0
 0029517,-0.00083990,0.00062954,0.00538070,-0.00065782,-0.00095471,0.00
 095240,-0.00013563,-0.02236053,0.01399450,-0.05630860,-0.04865674,-0.0
 0108649,0.00612084,0.01733429,0.00555401,0.00155044,0.00210678,-0.0000
 0089,-0.00000004,0.00000063,-0.00000036,-0.00000029,0.00000028,-0.0000
 0013,-0.00000056,-0.00000064,-0.00000048,0.00000002,-0.00000086,0.0000
 0043,-0.00000044,0.00000017,-0.00000179,-0.00000091,-0.00000136,0.0000
 0019,0.00000055,-0.00000201,0.00000270,-0.00000251,0.00000060,0.000001
 08,0.00000019,0.00000005,-0.00000140,-0.00000399,-0.00000501,-0.000000
 90,-0.00000639,-0.00000367,0.00000214,-0.00000045,-0.00000267,0.000002
 20,-0.00000155,-0.00000117,0.00001597,0.00000030,0.00000924,0.00000173
 ,-0.00002503,0.00001581,-0.00000342,0.00001242,0.00000228,0.00010050,-
 0.00006977,-0.00104524,-0.00211754,-0.00083846,0.00043813,-0.01988435,
 0.05212504,0.00000522,0.00000593,-0.00000315,-0.00001803,0.00000168,0.
 00000075,0.00001056,0.00000599,0.00000120,-0.00000124,-0.00000198,0.00
 000194,0.00000467,-0.00000473,-0.00000125,-0.00001006,-0.00000573,0.00
 000489,0.00000514,0.00000550,-0.00000028,0.00000047,0.00000502,0.00000
 562,-0.00000759,-0.00001675,0.00000280,0.00006905,0.00003596,-0.000021
 22,-0.00001375,-0.00000656,0.00000190,-0.00000785,-0.00000361,0.000002
 15,-0.00016524,0.00006448,0.00001073,-0.00000601,-0.00003906,-0.000000
 88,-0.00001502,-0.00001081,0.00000587,-0.00000023,0.00000508,0.0000288
 0,0.00001211,0.00001616,-0.00002169,0.00000194,0.00001275,0.00001353,-
 0.00001364,-0.00000392,-0.00002353,0.00025334,-0.00008214,-0.00000852,
 -0.00014275,0.00004551,0.00000671,0.00016597,-0.00024217,-0.00000036,0
 .00036176,-0.00062796,-0.00069416,-0.00041406,0.00057948,-0.00029364,0
 .00020265,-0.00022425,0.00012819,-0.00010493,0.00021513,0.00054737,0.0
 0105259,-0.00149427,0.00126781,-0.00153150,0.00097493,-0.00609636,0.02
 084225,-0.04832074,-0.32782065,0.00359213,-0.00553057,-0.01530958,-0.0
 0266808,0.00234784,-0.00044010,-0.00000190,-0.00000106,0.00000198,-0.0
 0000094,-0.00000075,0.00000031,-0.00000033,-0.00000078,-0.00000068,0.0
 0000011,-0.00000001,-0.00000247,0.00000079,-0.00000036,-0.00000101,-0.
 00000238,-0.00000201,-0.00000271,0.00000697,0.00000650,0.00000027,0.00
 000118,0.00000013,-0.00000283,-0.00000442,0.00000198,0.00000031,0.0000
 0213,-0.00000240,0.00001923,-0.00000302,0.00001322,0.00000487,0.000000
 55,-0.00000252,0.00000251,-0.00000026,0.00000041,0.00000065,0.00000369
 ,-0.00000423,-0.00001631,-0.00003189,0.00001768,-0.00003159,-0.0000209
 8,0.00000692,0.00001535,-0.00009058,0.00004700,-0.00035857,0.00028623,
 0.00001253,0.00081756,-0.02181758,0.05193172,0.34733708,-0.00000646,-0
 .00000625,0.00000232,0.00001625,-0.00000217,0.00000041,-0.00001103,-0.
 00000505,0.00000025,0.00000167,0.00000127,-0.00000157,-0.00000683,0.00
 000824,0.00000183,0.00001520,0.00000309,-0.00000450,-0.00001092,-0.000
 00890,-0.00000011,-0.00000437,-0.00001149,0.00000186,0.00000812,0.0000
 1607,-0.00000084,-0.00006454,-0.00002107,0.00000977,0.00000246,0.00001
 015,0.00000258,0.00001161,0.00000342,0.00000538,0.00010234,-0.00021996
 ,0.00004095,0.00003683,0.00011409,-0.00004169,-0.00000037,-0.00001235,
 -0.00000010,-0.00002080,-0.00002596,-0.00003301,-0.00004940,-0.0000480
 3,0.00004985,0.00000022,-0.00002187,-0.00003309,0.00000814,0.00012904,
 0.00000798,0.00003190,0.00068726,-0.00061259,-0.00016198,-0.00027889,0
 .00027096,-0.00030716,-0.00004446,0.00017098,-0.00132067,-0.00135355,-
 0.00009700,0.00002863,0.00014179,0.00032809,0.00008110,0.00008156,-0.0
 0001113,0.00384354,0.00167566,-0.00033025,-0.00026486,-0.00044394,-0.0
 0024893,0.00359814,0.00419732,-0.00311984,-0.00623181,0.01044477,0.007
 73763,-0.15745164,0.13935443,0.05814148,0.00139904,0.00125603,-0.00082
 483,0.00000109,0.00000166,-0.00000169,0.00000149,0.00000030,0.00000020
 ,-0.00000008,0.00000052,-0.00000033,-0.00000184,-0.00000116,-0.0000001
 3,-0.00000072,-0.00000011,0.00000018,-0.00000051,0.00000126,-0.0000001
 7,-0.00000523,-0.00000319,-0.00000989,0.00000364,0.00000045,-0.0000037
 8,0.00000343,-0.00000104,-0.00000186,-0.00000984,-0.00001431,0.0000030
 3,-0.00000277,-0.00002126,-0.00000383,0.00000810,-0.00000674,-0.000001
 45,0.00000059,-0.00000471,0.00000189,-0.00002276,0.00005833,-0.0000132
 3,0.00002346,-0.00010989,0.00001928,0.00005110,-0.00017993,0.00020510,
 -0.00076688,-0.00062957,0.00011450,-0.00021483,0.00068934,0.00032288,-
 0.00202601,-0.00283947,0.00021275,0.15968622,-0.00001126,-0.00001182,0
 .00000255,0.00002688,-0.00000212,0.00000120,-0.00001863,-0.00000826,0.
 00000185,0.00000248,0.00000318,-0.00000223,-0.00001051,0.00001319,0.00
 000338,0.00002491,0.00000461,-0.00000599,-0.00001657,-0.00001527,-0.00
 000230,-0.00000976,-0.00002191,0.00000862,0.00002003,0.00002289,0.0000
 0469,-0.00009307,-0.00001178,0.00002690,-0.00000035,0.00002221,0.00000
 887,0.00002130,0.00000637,0.00000959,0.00016692,-0.00049106,0.00010223
 ,0.00007591,0.00016300,-0.00006775,-0.00003088,-0.00003787,0.00010960,
 0.00002618,0.00005160,-0.00002363,-0.00003931,-0.00001240,-0.00005163,
 -0.00004146,-0.00007764,-0.00003681,-0.00004504,0.00007903,-0.00002046
 ,0.00006426,0.00156127,-0.00091173,0.00007967,-0.00065392,0.00113935,-
 0.00006379,-0.00050758,-0.00019218,-0.00136528,-0.00093357,0.00077841,
 0.00026629,-0.00016354,-0.00050891,0.00014945,-0.00006100,-0.00026648,
 0.00182361,0.00369541,-0.00058954,-0.00061279,-0.00007091,0.00002066,0
 .00447538,0.00339544,0.00288880,0.00925287,-0.00803875,-0.00778064,0.1
 3818962,-0.18634904,-0.06648171,0.00312887,-0.00085476,-0.00018829,0.0
 0000151,0.00000288,-0.00000244,0.00000286,0.00000016,0.00000040,-0.000
 00050,0.00000118,-0.00000088,-0.00000351,-0.00000257,-0.00000224,-0.00
 000134,-0.00000021,-0.00000073,0.00000034,0.00000267,-0.00000227,-0.00
 000937,-0.00001186,-0.00002677,0.00000712,-0.00000038,-0.00000450,0.00
 000396,-0.00000097,-0.00000386,-0.00000806,-0.00003137,0.00001077,-0.0
 0000636,-0.00003529,-0.00000179,0.00001331,-0.00000310,-0.00000237,0.,
 -0.00000314,-0.00000433,0.00009783,0.00001233,-0.00000479,-0.00011003,
 0.00001971,-0.00008052,0.00010769,-0.00004380,0.00031824,-0.00065282,-
 0.00067285,0.00001389,0.00062667,-0.00033455,-0.00036443,-0.00294461,-
 0.00161368,0.00026987,-0.15256071,0.19201985,-0.00001669,-0.00001903,0
 .00000663,0.00005285,-0.00000321,-0.00000075,-0.00003134,-0.00001722,-
 0.00000073,0.00000369,0.00000916,-0.00000465,-0.00001476,0.00001445,0.
 00000518,0.00003204,0.00001578,-0.00001239,-0.00001658,-0.00001670,0.0
 0000021,-0.00000392,-0.00001585,-0.00000515,0.00003825,0.00003346,-0.0
 0000581,-0.00022730,-0.00005194,0.00003685,0.00002634,0.00000370,0.000
 00066,0.00001973,0.00002053,0.00000662,0.00024697,-0.00026936,0.000043
 44,0.00003056,0.00008228,-0.00010045,0.00000395,0.00002394,-0.00010139
 ,-0.00001387,-0.00004671,-0.00007904,-0.00002728,-0.00006491,0.0000831
 1,0.00003815,0.00003000,0.00002522,0.00011006,-0.00005212,0.00005629,-
 0.00051651,0.00087211,-0.00065063,0.00010482,-0.00028052,0.00050977,0.
 00028007,-0.00058399,-0.00020806,-0.00030766,0.00081669,0.00329608,0.0
 0095227,-0.00114129,-0.00067074,0.00074939,-0.00107949,-0.00196254,-0.
 00151405,0.00094952,-0.00401023,-0.00043144,0.00038516,-0.00127908,-0.
 00237417,0.00186721,-0.00198620,-0.01280077,0.01456518,0.01088465,0.05
 846839,-0.06743498,-0.08833220,0.01953810,-0.02176072,-0.00416211,0.00
 000469,0.00000384,-0.00000482,0.00000381,0.00000136,-0.00000050,0.0000
 0038,0.00000244,0.00000065,-0.00000155,-0.00000139,0.00000239,-0.00000
 267,0.00000072,0.00000091,0.00000839,0.00000660,0.00000349,-0.00001428
 ,-0.00001731,-0.00001580,-0.00001117,0.00000554,0.00000162,0.00000864,
 -0.00000475,-0.00000179,-0.00001858,-0.00000113,0.00000552,0.00000312,
 -0.00001714,0.00001209,-0.00000336,-0.00000203,0.00000248,-0.00000572,
 0.00000316,0.00000016,-0.00009070,0.00001172,0.00008027,-0.00000383,0.
 00016611,0.00003294,-0.00002710,0.00046352,-0.00026062,0.00013959,-0.0
 0002204,0.00011494,-0.00065075,0.00074896,0.00032954,0.00051813,-0.000
 11159,0.00092114,-0.06225632,0.07191229,0.08739286\\-0.00000179,-0.000
 00054,0.00000229,-0.00000192,0.00000368,0.00000349,-0.00000018,0.00000
 019,-0.00000330,-0.00000395,0.00000075,0.00000475,0.00000149,0.0000061
 5,-0.00000085,0.00000309,-0.00000103,0.00000007,0.00000272,0.00000129,
 -0.00000002,-0.00000201,-0.00000035,0.00000065,0.00000269,0.00000053,0
 .00000020,-0.00000237,-0.00000208,-0.00000198,0.00000044,0.00000219,0.
 00000246,-0.00000128,0.00000118,0.00000166,0.00000200,0.00000232,0.000
 00628,-0.00000073,-0.00000409,-0.00000137,0.00000157,0.00000564,-0.000
 00382,0.00000017,-0.00000485,0.00000064,0.00000411,0.00000440,-0.00000
 298,0.00000169,0.00000154,0.00000782,0.00000043,-0.00000632,0.00000365
 ,-0.00000176,-0.00000182,-0.00000922,-0.00000399,0.00000017,0.00000141
 ,0.00000544,-0.00000014,0.00000046,-0.00000864,0.00000949,0.00002176,0
 .00001517,-0.00002428,-0.00001231,-0.00001009,0.00001749,-0.00000418,0
 .00000032,-0.00001029,0.00000286,-0.00000302,-0.00000243,-0.00000479,0
 .00000052,-0.00000226,0.00000219,0.00000019,-0.00000233,0.00000084,0.0
 0000035,-0.00000117,-0.00000065,-0.00000068,0.00000680,-0.00001210,0.0
 0000067,0.00000242,-0.00000150,0.00000159,0.00000218,0.00000240,-0.000
 00192,0.00000324,0.00000145,-0.00000113,0.00000318,0.00000032,-0.00000
 026,-0.00000060,0.00000177,0.00000004,0.00000276,0.00000037,-0.0000015
 1,0.00000114,0.00000084,-0.00000085,-0.00000215,0.00000049,0.00000182,
 -0.00000008,-0.00000037,0.00000056,-0.00000055,0.00000091,0.00000340,-
 0.00000051,0.00000045,0.00000208,0.00000168,0.00000246,0.00000015,-0.0
 0000300,-0.00000331,0.00000046,-0.00000077,-0.00000481,-0.00000238,-0.
 00000103,0.00000142,-0.00000092,-0.00000195,-0.00000154,-0.00000186,-0
 .00000039,-0.00000033,-0.00000103,-0.00000123,-0.00000354,-0.00000038,
 -0.00000168,-0.00000293,0.00000148,-0.00000250,-0.00000045\\\@


 THE RED LIGHT IS ALWAYS LONGER THAN THE GREEN LIGHT.

                     -- PETER'S THEORY OF RELATIVITY
 Job cpu time:  0 days 18 hours 15 minutes 58.2 seconds.
 File lengths (MBytes):  RWF=   1661 Int=      0 D2E=      0 Chk=     24 Scr=      1
 Normal termination of Gaussian 09 at Sat Sep  3 12:40:48 2022.
