 Entering Gaussian System, Link 0=g09
 Input=Mol27.gjf
 Output=Mol27.log
 Initial command:
 /opt/gaussian/l1.exe /home/scr/lqcapf-6/Gau-243712.inp -scrdir=/home/scr/lqcapf-6/
 Entering Link 1 = /opt/gaussian/l1.exe PID=    243714.
  
 Copyright (c) 1988,1990,1992,1993,1995,1998,2003,2009,2011,
            Gaussian, Inc.  All Rights Reserved.
  
 This is part of the Gaussian(R) 09 program.  It is based on
 the Gaussian(R) 03 system (copyright 2003, Gaussian, Inc.),
 the Gaussian(R) 98 system (copyright 1998, Gaussian, Inc.),
 the Gaussian(R) 94 system (copyright 1995, Gaussian, Inc.),
 the Gaussian 92(TM) system (copyright 1992, Gaussian, Inc.),
 the Gaussian 90(TM) system (copyright 1990, Gaussian, Inc.),
 the Gaussian 88(TM) system (copyright 1988, Gaussian, Inc.),
 the Gaussian 86(TM) system (copyright 1986, Carnegie Mellon
 University), and the Gaussian 82(TM) system (copyright 1983,
 Carnegie Mellon University). Gaussian is a federally registered
 trademark of Gaussian, Inc.
  
 This software contains proprietary and confidential information,
 including trade secrets, belonging to Gaussian, Inc.
  
 This software is provided under written license and may be
 used, copied, transmitted, or stored only in accord with that
 written license.
  
 The following legend is applicable only to US Government
 contracts under FAR:
  
                    RESTRICTED RIGHTS LEGEND
  
 Use, reproduction and disclosure by the US Government is
 subject to restrictions as set forth in subparagraphs (a)
 and (c) of the Commercial Computer Software - Restricted
 Rights clause in FAR 52.227-19.
  
 Gaussian, Inc.
 340 Quinnipiac St., Bldg. 40, Wallingford CT 06492
  
  
 ---------------------------------------------------------------
 Warning -- This program may not be used in any manner that
 competes with the business of Gaussian, Inc. or will provide
 assistance to any competitor of Gaussian, Inc.  The licensee
 of this program is prohibited from giving any competitor of
 Gaussian, Inc. access to this program.  By using this program,
 the user acknowledges that Gaussian, Inc. is engaged in the
 business of creating and licensing software in the field of
 computational chemistry and represents and warrants to the
 licensee that it is not a competitor of Gaussian, Inc. and that
 it will not use this program in any manner prohibited above.
 ---------------------------------------------------------------
  

 Cite this work as:
 Gaussian 09, Revision C.01,
 M. J. Frisch, G. W. Trucks, H. B. Schlegel, G. E. Scuseria, 
 M. A. Robb, J. R. Cheeseman, G. Scalmani, V. Barone, B. Mennucci, 
 G. A. Petersson, H. Nakatsuji, M. Caricato, X. Li, H. P. Hratchian, 
 A. F. Izmaylov, J. Bloino, G. Zheng, J. L. Sonnenberg, M. Hada, 
 M. Ehara, K. Toyota, R. Fukuda, J. Hasegawa, M. Ishida, T. Nakajima, 
 Y. Honda, O. Kitao, H. Nakai, T. Vreven, J. A. Montgomery, Jr., 
 J. E. Peralta, F. Ogliaro, M. Bearpark, J. J. Heyd, E. Brothers, 
 K. N. Kudin, V. N. Staroverov, T. Keith, R. Kobayashi, J. Normand, 
 K. Raghavachari, A. Rendell, J. C. Burant, S. S. Iyengar, J. Tomasi, 
 M. Cossi, N. Rega, J. M. Millam, M. Klene, J. E. Knox, J. B. Cross, 
 V. Bakken, C. Adamo, J. Jaramillo, R. Gomperts, R. E. Stratmann, 
 O. Yazyev, A. J. Austin, R. Cammi, C. Pomelli, J. W. Ochterski, 
 R. L. Martin, K. Morokuma, V. G. Zakrzewski, G. A. Voth, 
 P. Salvador, J. J. Dannenberg, S. Dapprich, A. D. Daniels, 
 O. Farkas, J. B. Foresman, J. V. Ortiz, J. Cioslowski, 
 and D. J. Fox, Gaussian, Inc., Wallingford CT, 2010.
 
 ******************************************
 Gaussian 09:  EM64L-G09RevC.01 23-Sep-2011
                 5-Sep-2022 
 ******************************************
 %nprocshared=8
 Will use up to    8 processors via shared memory.
 %mem=1600MB
 -------------------------
 #p opt freq b3lyp/cc-pvdz
 -------------------------
 1/14=-1,18=20,19=15,26=3,38=1/1,3;
 2/9=110,12=2,17=6,18=5,40=1/2;
 3/5=16,11=2,16=1,25=1,30=1,71=1,74=-5/1,2,3;
 4//1;
 5/5=2,38=5/2;
 6/7=2,8=2,9=2,10=2,28=1/1;
 7//1,2,3,16;
 1/14=-1,18=20,19=15/3(2);
 2/9=110/2;
 99//99;
 2/9=110/2;
 3/5=16,11=2,16=1,25=1,30=1,71=1,74=-5/1,2,3;
 4/5=5,16=3/1;
 5/5=2,38=5/2;
 7//1,2,3,16;
 1/14=-1,18=20,19=15/3(-5);
 2/9=110/2;
 6/7=2,8=2,9=2,10=2,19=2,28=1/1;
 99/9=1/99;
 Leave Link    1 at Mon Sep  5 13:41:25 2022, MaxMem=  209715200 cpu:       0.2
 (Enter /opt/gaussian/l101.exe)
 ---------
 Mol27.log
 ---------
 Charge =  0 Multiplicity = 1
 Symbolic Z-Matrix:
 O                     1.20941  -1.34781  -0.3331 
 C                     1.33896  -0.24894  -0.84911 
 C                     2.71726   0.28833  -1.20594 
 N                     3.74988  -0.67422  -0.96748 
 N                     4.29311  -1.35565  -2.01408 
 N                     5.16483  -2.17066  -1.58317 
 C                     5.22981  -2.06768  -0.20311 
 C                     6.02634  -2.74144   0.7226 
 C                     5.8653   -2.41452   2.04631 
 C                     4.92518  -1.43772   2.44652 
 C                     4.13455  -0.7716    1.54161 
 C                     4.30936  -1.10709   0.19626 
 N                     0.26058   0.55258  -1.1224 
 C                     0.35236   1.91816  -1.64275 
 C                     0.32745   2.95896  -0.56293 
 C                    -0.59124   3.91836  -0.38569 
 S                    -0.19084   4.92637   1.0379 
 C                     1.25034   3.88288   1.25147 
 N                     1.36393   2.95705   0.37863 
 C                    -1.05515   0.08258  -0.78731 
 C                    -1.87125  -0.43988  -1.7787 
 C                    -3.1546   -0.86257  -1.47389 
 C                    -3.64556  -0.7736   -0.17204 
 C                    -2.81112  -0.25207   0.81578 
 C                    -1.52779   0.17152   0.51239 
 C                    -5.02033  -1.22821   0.15571 
 C                    -6.10937  -0.92147  -0.65742 
 C                    -7.37469  -1.36646  -0.3094 
 C                    -7.52372  -2.10791   0.85084 
 N                    -6.48929  -2.40843   1.63342 
 C                    -5.27419  -1.98594   1.29786 
 H                     2.76657   0.53037  -2.25701 
 H                     2.90857   1.18697  -0.63576 
 H                     6.72944  -3.48198   0.39863 
 H                     6.45352  -2.90642   2.79565 
 H                     4.82423  -1.21818   3.49186 
 H                     3.41062  -0.04656   1.85434 
 H                     1.25514   2.031    -2.2232 
 H                    -0.47594   2.07548  -2.3177 
 H                    -1.4672    4.11049  -0.961 
 H                     1.93761   4.05124   2.04862 
 H                    -1.49343  -0.53624  -2.77819 
 H                    -3.76442  -1.29148  -2.24513 
 H                    -3.16993  -0.16194   1.82245 
 H                    -0.89172   0.56303   1.281 
 H                    -5.97035  -0.3287   -1.54074 
 H                    -8.22569  -1.13725  -0.91894 
 H                    -8.481    -2.47001   1.16406 
 H                    -4.4766   -2.27607   1.95073 
 
 NAtoms=     49 NQM=        0 NQMF=       0 NMMI=     49 NMMIF=      0
                NMic=       0 NMicF=      0.
                    Isotopes and Nuclear Properties:
 (Nuclear quadrupole moments (NQMom) in fm**2, nuclear magnetic moments (NMagM)
  in nuclear magnetons)

  Atom         1           2           3           4           5           6           7           8           9          10
 IAtWgt=          16          12          12          14          14          14          12          12          12          12
 AtmWgt=  15.9949146  12.0000000  12.0000000  14.0030740  14.0030740  14.0030740  12.0000000  12.0000000  12.0000000  12.0000000
 NucSpn=           0           0           0           2           2           2           0           0           0           0
 AtZEff=   0.0000000   0.0000000   0.0000000   0.0000000   0.0000000   0.0000000   0.0000000   0.0000000   0.0000000   0.0000000
 NQMom=    0.0000000   0.0000000   0.0000000   2.0440000   2.0440000   2.0440000   0.0000000   0.0000000   0.0000000   0.0000000
 NMagM=    0.0000000   0.0000000   0.0000000   0.4037610   0.4037610   0.4037610   0.0000000   0.0000000   0.0000000   0.0000000

  Atom        11          12          13          14          15          16          17          18          19          20
 IAtWgt=          12          12          14          12          12          12          32          12          14          12
 AtmWgt=  12.0000000  12.0000000  14.0030740  12.0000000  12.0000000  12.0000000  31.9720718  12.0000000  14.0030740  12.0000000
 NucSpn=           0           0           2           0           0           0           0           0           2           0
 AtZEff=   0.0000000   0.0000000   0.0000000   0.0000000   0.0000000   0.0000000   0.0000000   0.0000000   0.0000000   0.0000000
 NQMom=    0.0000000   0.0000000   2.0440000   0.0000000   0.0000000   0.0000000   0.0000000   0.0000000   2.0440000   0.0000000
 NMagM=    0.0000000   0.0000000   0.4037610   0.0000000   0.0000000   0.0000000   0.0000000   0.0000000   0.4037610   0.0000000

  Atom        21          22          23          24          25          26          27          28          29          30
 IAtWgt=          12          12          12          12          12          12          12          12          12          14
 AtmWgt=  12.0000000  12.0000000  12.0000000  12.0000000  12.0000000  12.0000000  12.0000000  12.0000000  12.0000000  14.0030740
 NucSpn=           0           0           0           0           0           0           0           0           0           2
 AtZEff=   0.0000000   0.0000000   0.0000000   0.0000000   0.0000000   0.0000000   0.0000000   0.0000000   0.0000000   0.0000000
 NQMom=    0.0000000   0.0000000   0.0000000   0.0000000   0.0000000   0.0000000   0.0000000   0.0000000   0.0000000   2.0440000
 NMagM=    0.0000000   0.0000000   0.0000000   0.0000000   0.0000000   0.0000000   0.0000000   0.0000000   0.0000000   0.4037610

  Atom        31          32          33          34          35          36          37          38          39          40
 IAtWgt=          12           1           1           1           1           1           1           1           1           1
 AtmWgt=  12.0000000   1.0078250   1.0078250   1.0078250   1.0078250   1.0078250   1.0078250   1.0078250   1.0078250   1.0078250
 NucSpn=           0           1           1           1           1           1           1           1           1           1
 AtZEff=   0.0000000   0.0000000   0.0000000   0.0000000   0.0000000   0.0000000   0.0000000   0.0000000   0.0000000   0.0000000
 NQMom=    0.0000000   0.0000000   0.0000000   0.0000000   0.0000000   0.0000000   0.0000000   0.0000000   0.0000000   0.0000000
 NMagM=    0.0000000   2.7928460   2.7928460   2.7928460   2.7928460   2.7928460   2.7928460   2.7928460   2.7928460   2.7928460

  Atom        41          42          43          44          45          46          47          48          49
 IAtWgt=           1           1           1           1           1           1           1           1           1
 AtmWgt=   1.0078250   1.0078250   1.0078250   1.0078250   1.0078250   1.0078250   1.0078250   1.0078250   1.0078250
 NucSpn=           1           1           1           1           1           1           1           1           1
 AtZEff=   0.0000000   0.0000000   0.0000000   0.0000000   0.0000000   0.0000000   0.0000000   0.0000000   0.0000000
 NQMom=    0.0000000   0.0000000   0.0000000   0.0000000   0.0000000   0.0000000   0.0000000   0.0000000   0.0000000
 NMagM=    2.7928460   2.7928460   2.7928460   2.7928460   2.7928460   2.7928460   2.7928460   2.7928460   2.7928460
 Leave Link  101 at Mon Sep  5 13:41:25 2022, MaxMem=  209715200 cpu:       0.9
 (Enter /opt/gaussian/l103.exe)

 GradGradGradGradGradGradGradGradGradGradGradGradGradGradGradGradGradGrad
 Berny optimization.
 Initialization pass.
                           ----------------------------
                           !    Initial Parameters    !
                           ! (Angstroms and Degrees)  !
 --------------------------                            --------------------------
 ! Name  Definition              Value          Derivative Info.                !
 --------------------------------------------------------------------------------
 ! R1    R(1,2)                  1.2209         estimate D2E/DX2                !
 ! R2    R(2,3)                  1.5217         estimate D2E/DX2                !
 ! R3    R(2,13)                 1.3711         estimate D2E/DX2                !
 ! R4    R(3,4)                  1.4317         estimate D2E/DX2                !
 ! R5    R(3,32)                 1.0797         estimate D2E/DX2                !
 ! R6    R(3,33)                 1.0813         estimate D2E/DX2                !
 ! R7    R(4,5)                  1.3619         estimate D2E/DX2                !
 ! R8    R(4,12)                 1.3619         estimate D2E/DX2                !
 ! R9    R(5,6)                  1.2688         estimate D2E/DX2                !
 ! R10   R(6,7)                  1.3854         estimate D2E/DX2                !
 ! R11   R(7,8)                  1.3948         estimate D2E/DX2                !
 ! R12   R(7,12)                 1.389          estimate D2E/DX2                !
 ! R13   R(8,9)                  1.373          estimate D2E/DX2                !
 ! R14   R(8,34)                 1.0713         estimate D2E/DX2                !
 ! R15   R(9,10)                 1.4136         estimate D2E/DX2                !
 ! R16   R(9,35)                 1.0721         estimate D2E/DX2                !
 ! R17   R(10,11)                1.3739         estimate D2E/DX2                !
 ! R18   R(10,36)                1.0729         estimate D2E/DX2                !
 ! R19   R(11,12)                1.3975         estimate D2E/DX2                !
 ! R20   R(11,37)                1.0712         estimate D2E/DX2                !
 ! R21   R(13,14)                1.4642         estimate D2E/DX2                !
 ! R22   R(13,20)                1.4368         estimate D2E/DX2                !
 ! R23   R(14,15)                1.5            estimate D2E/DX2                !
 ! R24   R(14,38)                1.0792         estimate D2E/DX2                !
 ! R25   R(14,39)                1.08           estimate D2E/DX2                !
 ! R26   R(15,16)                1.3401         estimate D2E/DX2                !
 ! R27   R(15,19)                1.4003         estimate D2E/DX2                !
 ! R28   R(16,17)                1.7897         estimate D2E/DX2                !
 ! R29   R(16,40)                1.0655         estimate D2E/DX2                !
 ! R30   R(17,18)                1.7921         estimate D2E/DX2                !
 ! R31   R(18,19)                1.2775         estimate D2E/DX2                !
 ! R32   R(18,41)                1.0659         estimate D2E/DX2                !
 ! R33   R(20,21)                1.3863         estimate D2E/DX2                !
 ! R34   R(20,25)                1.3858         estimate D2E/DX2                !
 ! R35   R(21,22)                1.3851         estimate D2E/DX2                !
 ! R36   R(21,42)                1.0729         estimate D2E/DX2                !
 ! R37   R(22,23)                1.3942         estimate D2E/DX2                !
 ! R38   R(22,43)                1.0727         estimate D2E/DX2                !
 ! R39   R(23,24)                1.3943         estimate D2E/DX2                !
 ! R40   R(23,26)                1.4846         estimate D2E/DX2                !
 ! R41   R(24,25)                1.3851         estimate D2E/DX2                !
 ! R42   R(24,44)                1.0725         estimate D2E/DX2                !
 ! R43   R(25,45)                1.0717         estimate D2E/DX2                !
 ! R44   R(26,27)                1.3933         estimate D2E/DX2                !
 ! R45   R(26,31)                1.394          estimate D2E/DX2                !
 ! R46   R(27,28)                1.3857         estimate D2E/DX2                !
 ! R47   R(27,46)                1.0728         estimate D2E/DX2                !
 ! R48   R(28,29)                1.385          estimate D2E/DX2                !
 ! R49   R(28,47)                1.0716         estimate D2E/DX2                !
 ! R50   R(29,30)                1.3315         estimate D2E/DX2                !
 ! R51   R(29,48)                1.0703         estimate D2E/DX2                !
 ! R52   R(30,31)                1.3295         estimate D2E/DX2                !
 ! R53   R(31,49)                1.0708         estimate D2E/DX2                !
 ! A1    A(1,2,3)              120.8634         estimate D2E/DX2                !
 ! A2    A(1,2,13)             121.7982         estimate D2E/DX2                !
 ! A3    A(3,2,13)             117.337          estimate D2E/DX2                !
 ! A4    A(2,3,4)              112.1389         estimate D2E/DX2                !
 ! A5    A(2,3,32)             110.4128         estimate D2E/DX2                !
 ! A6    A(2,3,33)             109.2697         estimate D2E/DX2                !
 ! A7    A(4,3,32)             106.2555         estimate D2E/DX2                !
 ! A8    A(4,3,33)             110.0784         estimate D2E/DX2                !
 ! A9    A(32,3,33)            108.5985         estimate D2E/DX2                !
 ! A10   A(3,4,5)              119.7419         estimate D2E/DX2                !
 ! A11   A(3,4,12)             130.7183         estimate D2E/DX2                !
 ! A12   A(5,4,12)             109.4982         estimate D2E/DX2                !
 ! A13   A(4,5,6)              109.5392         estimate D2E/DX2                !
 ! A14   A(5,6,7)              108.8315         estimate D2E/DX2                !
 ! A15   A(6,7,8)              130.6938         estimate D2E/DX2                !
 ! A16   A(6,7,12)             107.8619         estimate D2E/DX2                !
 ! A17   A(8,7,12)             121.4442         estimate D2E/DX2                !
 ! A18   A(7,8,9)              117.251          estimate D2E/DX2                !
 ! A19   A(7,8,34)             120.5316         estimate D2E/DX2                !
 ! A20   A(9,8,34)             122.2174         estimate D2E/DX2                !
 ! A21   A(8,9,10)             121.0322         estimate D2E/DX2                !
 ! A22   A(8,9,35)             120.0166         estimate D2E/DX2                !
 ! A23   A(10,9,35)            118.9504         estimate D2E/DX2                !
 ! A24   A(9,10,11)            122.0917         estimate D2E/DX2                !
 ! A25   A(9,10,36)            118.674          estimate D2E/DX2                !
 ! A26   A(11,10,36)           119.2327         estimate D2E/DX2                !
 ! A27   A(10,11,12)           116.4663         estimate D2E/DX2                !
 ! A28   A(10,11,37)           121.6515         estimate D2E/DX2                !
 ! A29   A(12,11,37)           121.8733         estimate D2E/DX2                !
 ! A30   A(4,12,7)             104.2616         estimate D2E/DX2                !
 ! A31   A(4,12,11)            134.0212         estimate D2E/DX2                !
 ! A32   A(7,12,11)            121.7139         estimate D2E/DX2                !
 ! A33   A(2,13,14)            124.5212         estimate D2E/DX2                !
 ! A34   A(2,13,20)            118.8498         estimate D2E/DX2                !
 ! A35   A(14,13,20)           116.4464         estimate D2E/DX2                !
 ! A36   A(13,14,15)           112.9705         estimate D2E/DX2                !
 ! A37   A(13,14,38)           109.9431         estimate D2E/DX2                !
 ! A38   A(13,14,39)           108.0515         estimate D2E/DX2                !
 ! A39   A(15,14,38)           109.1801         estimate D2E/DX2                !
 ! A40   A(15,14,39)           109.6389         estimate D2E/DX2                !
 ! A41   A(38,14,39)           106.8704         estimate D2E/DX2                !
 ! A42   A(14,15,16)           127.1111         estimate D2E/DX2                !
 ! A43   A(14,15,19)           118.0875         estimate D2E/DX2                !
 ! A44   A(16,15,19)           114.8013         estimate D2E/DX2                !
 ! A45   A(15,16,17)           110.797          estimate D2E/DX2                !
 ! A46   A(15,16,40)           128.4109         estimate D2E/DX2                !
 ! A47   A(17,16,40)           120.7889         estimate D2E/DX2                !
 ! A48   A(16,17,18)            86.948          estimate D2E/DX2                !
 ! A49   A(17,18,19)           114.3359         estimate D2E/DX2                !
 ! A50   A(17,18,41)           121.0436         estimate D2E/DX2                !
 ! A51   A(19,18,41)           124.6199         estimate D2E/DX2                !
 ! A52   A(15,19,18)           113.1176         estimate D2E/DX2                !
 ! A53   A(13,20,21)           119.7086         estimate D2E/DX2                !
 ! A54   A(13,20,25)           120.6674         estimate D2E/DX2                !
 ! A55   A(21,20,25)           119.6105         estimate D2E/DX2                !
 ! A56   A(20,21,22)           120.2033         estimate D2E/DX2                !
 ! A57   A(20,21,42)           119.5225         estimate D2E/DX2                !
 ! A58   A(22,21,42)           120.2578         estimate D2E/DX2                !
 ! A59   A(21,22,23)           120.816          estimate D2E/DX2                !
 ! A60   A(21,22,43)           119.3753         estimate D2E/DX2                !
 ! A61   A(23,22,43)           119.7807         estimate D2E/DX2                !
 ! A62   A(22,23,24)           118.3377         estimate D2E/DX2                !
 ! A63   A(22,23,26)           120.8434         estimate D2E/DX2                !
 ! A64   A(24,23,26)           120.8184         estimate D2E/DX2                !
 ! A65   A(23,24,25)           120.9115         estimate D2E/DX2                !
 ! A66   A(23,24,44)           119.7489         estimate D2E/DX2                !
 ! A67   A(25,24,44)           119.3327         estimate D2E/DX2                !
 ! A68   A(20,25,24)           120.1194         estimate D2E/DX2                !
 ! A69   A(20,25,45)           119.5789         estimate D2E/DX2                !
 ! A70   A(24,25,45)           120.3001         estimate D2E/DX2                !
 ! A71   A(23,26,27)           121.8396         estimate D2E/DX2                !
 ! A72   A(23,26,31)           121.0629         estimate D2E/DX2                !
 ! A73   A(27,26,31)           117.0975         estimate D2E/DX2                !
 ! A74   A(26,27,28)           119.7657         estimate D2E/DX2                !
 ! A75   A(26,27,46)           120.0575         estimate D2E/DX2                !
 ! A76   A(28,27,46)           120.1686         estimate D2E/DX2                !
 ! A77   A(27,28,29)           118.7231         estimate D2E/DX2                !
 ! A78   A(27,28,47)           120.9049         estimate D2E/DX2                !
 ! A79   A(29,28,47)           120.3703         estimate D2E/DX2                !
 ! A80   A(28,29,30)           121.9801         estimate D2E/DX2                !
 ! A81   A(28,29,48)           121.5009         estimate D2E/DX2                !
 ! A82   A(30,29,48)           116.519          estimate D2E/DX2                !
 ! A83   A(29,30,31)           119.3399         estimate D2E/DX2                !
 ! A84   A(26,31,30)           123.0923         estimate D2E/DX2                !
 ! A85   A(26,31,49)           120.7445         estimate D2E/DX2                !
 ! A86   A(30,31,49)           116.1539         estimate D2E/DX2                !
 ! D1    D(1,2,3,4)              4.7981         estimate D2E/DX2                !
 ! D2    D(1,2,3,32)           123.0831         estimate D2E/DX2                !
 ! D3    D(1,2,3,33)          -117.5365         estimate D2E/DX2                !
 ! D4    D(13,2,3,4)          -175.6216         estimate D2E/DX2                !
 ! D5    D(13,2,3,32)          -57.3366         estimate D2E/DX2                !
 ! D6    D(13,2,3,33)           62.0437         estimate D2E/DX2                !
 ! D7    D(1,2,13,14)          175.0541         estimate D2E/DX2                !
 ! D8    D(1,2,13,20)            0.1489         estimate D2E/DX2                !
 ! D9    D(3,2,13,14)           -4.522          estimate D2E/DX2                !
 ! D10   D(3,2,13,20)         -179.4272         estimate D2E/DX2                !
 ! D11   D(2,3,4,5)            102.7768         estimate D2E/DX2                !
 ! D12   D(2,3,4,12)           -74.6081         estimate D2E/DX2                !
 ! D13   D(32,3,4,5)           -17.9436         estimate D2E/DX2                !
 ! D14   D(32,3,4,12)          164.6715         estimate D2E/DX2                !
 ! D15   D(33,3,4,5)          -135.3494         estimate D2E/DX2                !
 ! D16   D(33,3,4,12)           47.2656         estimate D2E/DX2                !
 ! D17   D(3,4,5,6)           -178.7415         estimate D2E/DX2                !
 ! D18   D(12,4,5,6)            -0.8438         estimate D2E/DX2                !
 ! D19   D(3,4,12,7)           178.4564         estimate D2E/DX2                !
 ! D20   D(3,4,12,11)           -2.2182         estimate D2E/DX2                !
 ! D21   D(5,4,12,7)             0.865          estimate D2E/DX2                !
 ! D22   D(5,4,12,11)         -179.8096         estimate D2E/DX2                !
 ! D23   D(4,5,6,7)              0.4349         estimate D2E/DX2                !
 ! D24   D(5,6,7,8)           -179.7576         estimate D2E/DX2                !
 ! D25   D(5,6,7,12)             0.1151         estimate D2E/DX2                !
 ! D26   D(6,7,8,9)            179.7411         estimate D2E/DX2                !
 ! D27   D(6,7,8,34)            -0.337          estimate D2E/DX2                !
 ! D28   D(12,7,8,9)            -0.1169         estimate D2E/DX2                !
 ! D29   D(12,7,8,34)          179.805          estimate D2E/DX2                !
 ! D30   D(6,7,12,4)            -0.6012         estimate D2E/DX2                !
 ! D31   D(6,7,12,11)          179.969          estimate D2E/DX2                !
 ! D32   D(8,7,12,4)           179.2856         estimate D2E/DX2                !
 ! D33   D(8,7,12,11)           -0.1442         estimate D2E/DX2                !
 ! D34   D(7,8,9,10)             0.2287         estimate D2E/DX2                !
 ! D35   D(7,8,9,35)           179.8849         estimate D2E/DX2                !
 ! D36   D(34,8,9,10)         -179.6917         estimate D2E/DX2                !
 ! D37   D(34,8,9,35)           -0.0356         estimate D2E/DX2                !
 ! D38   D(8,9,10,11)           -0.0873         estimate D2E/DX2                !
 ! D39   D(8,9,10,36)          179.4471         estimate D2E/DX2                !
 ! D40   D(35,9,10,11)        -179.7471         estimate D2E/DX2                !
 ! D41   D(35,9,10,36)          -0.2127         estimate D2E/DX2                !
 ! D42   D(9,10,11,12)          -0.1684         estimate D2E/DX2                !
 ! D43   D(9,10,11,37)         178.7651         estimate D2E/DX2                !
 ! D44   D(36,10,11,12)       -179.7003         estimate D2E/DX2                !
 ! D45   D(36,10,11,37)         -0.7668         estimate D2E/DX2                !
 ! D46   D(10,11,12,4)        -178.9502         estimate D2E/DX2                !
 ! D47   D(10,11,12,7)           0.2812         estimate D2E/DX2                !
 ! D48   D(37,11,12,4)           2.1188         estimate D2E/DX2                !
 ! D49   D(37,11,12,7)        -178.6498         estimate D2E/DX2                !
 ! D50   D(2,13,14,15)         -94.0844         estimate D2E/DX2                !
 ! D51   D(2,13,14,38)          28.1509         estimate D2E/DX2                !
 ! D52   D(2,13,14,39)         144.4438         estimate D2E/DX2                !
 ! D53   D(20,13,14,15)         80.9318         estimate D2E/DX2                !
 ! D54   D(20,13,14,38)       -156.8329         estimate D2E/DX2                !
 ! D55   D(20,13,14,39)        -40.54           estimate D2E/DX2                !
 ! D56   D(2,13,20,21)        -101.0718         estimate D2E/DX2                !
 ! D57   D(2,13,20,25)          80.273          estimate D2E/DX2                !
 ! D58   D(14,13,20,21)         83.6156         estimate D2E/DX2                !
 ! D59   D(14,13,20,25)        -95.0396         estimate D2E/DX2                !
 ! D60   D(13,14,15,16)       -117.783          estimate D2E/DX2                !
 ! D61   D(13,14,15,19)         62.3007         estimate D2E/DX2                !
 ! D62   D(38,14,15,16)        119.5554         estimate D2E/DX2                !
 ! D63   D(38,14,15,19)        -60.3609         estimate D2E/DX2                !
 ! D64   D(39,14,15,16)          2.7878         estimate D2E/DX2                !
 ! D65   D(39,14,15,19)       -177.1285         estimate D2E/DX2                !
 ! D66   D(14,15,16,17)       -179.8017         estimate D2E/DX2                !
 ! D67   D(14,15,16,40)          0.8474         estimate D2E/DX2                !
 ! D68   D(19,15,16,17)          0.117          estimate D2E/DX2                !
 ! D69   D(19,15,16,40)       -179.234          estimate D2E/DX2                !
 ! D70   D(14,15,19,18)        179.8733         estimate D2E/DX2                !
 ! D71   D(16,15,19,18)         -0.0532         estimate D2E/DX2                !
 ! D72   D(15,16,17,18)         -0.1102         estimate D2E/DX2                !
 ! D73   D(40,16,17,18)        179.2978         estimate D2E/DX2                !
 ! D74   D(16,17,18,19)          0.0855         estimate D2E/DX2                !
 ! D75   D(16,17,18,41)        179.8273         estimate D2E/DX2                !
 ! D76   D(17,18,19,15)         -0.0386         estimate D2E/DX2                !
 ! D77   D(41,18,19,15)       -179.7698         estimate D2E/DX2                !
 ! D78   D(13,20,21,22)       -178.2542         estimate D2E/DX2                !
 ! D79   D(13,20,21,42)          3.2137         estimate D2E/DX2                !
 ! D80   D(25,20,21,22)          0.4154         estimate D2E/DX2                !
 ! D81   D(25,20,21,42)       -178.1167         estimate D2E/DX2                !
 ! D82   D(13,20,25,24)        178.2683         estimate D2E/DX2                !
 ! D83   D(13,20,25,45)         -2.1789         estimate D2E/DX2                !
 ! D84   D(21,20,25,24)         -0.3883         estimate D2E/DX2                !
 ! D85   D(21,20,25,45)        179.1645         estimate D2E/DX2                !
 ! D86   D(20,21,22,23)         -0.1313         estimate D2E/DX2                !
 ! D87   D(20,21,22,43)       -178.2023         estimate D2E/DX2                !
 ! D88   D(42,21,22,23)        178.3899         estimate D2E/DX2                !
 ! D89   D(42,21,22,43)          0.319          estimate D2E/DX2                !
 ! D90   D(21,22,23,24)         -0.1774         estimate D2E/DX2                !
 ! D91   D(21,22,23,26)       -179.9147         estimate D2E/DX2                !
 ! D92   D(43,22,23,24)        177.8858         estimate D2E/DX2                !
 ! D93   D(43,22,23,26)         -1.8516         estimate D2E/DX2                !
 ! D94   D(22,23,24,25)          0.2045         estimate D2E/DX2                !
 ! D95   D(22,23,24,44)        179.2373         estimate D2E/DX2                !
 ! D96   D(26,23,24,25)        179.9419         estimate D2E/DX2                !
 ! D97   D(26,23,24,44)         -1.0253         estimate D2E/DX2                !
 ! D98   D(22,23,26,27)        -43.8363         estimate D2E/DX2                !
 ! D99   D(22,23,26,31)        136.1071         estimate D2E/DX2                !
 ! D100  D(24,23,26,27)        136.4329         estimate D2E/DX2                !
 ! D101  D(24,23,26,31)        -43.6237         estimate D2E/DX2                !
 ! D102  D(23,24,25,20)          0.0771         estimate D2E/DX2                !
 ! D103  D(23,24,25,45)       -179.4725         estimate D2E/DX2                !
 ! D104  D(44,24,25,20)       -178.9596         estimate D2E/DX2                !
 ! D105  D(44,24,25,45)          1.4908         estimate D2E/DX2                !
 ! D106  D(23,26,27,28)       -179.9101         estimate D2E/DX2                !
 ! D107  D(23,26,27,46)         -0.9477         estimate D2E/DX2                !
 ! D108  D(31,26,27,28)          0.1444         estimate D2E/DX2                !
 ! D109  D(31,26,27,46)        179.1068         estimate D2E/DX2                !
 ! D110  D(23,26,31,30)        179.6592         estimate D2E/DX2                !
 ! D111  D(23,26,31,49)         -1.5007         estimate D2E/DX2                !
 ! D112  D(27,26,31,30)         -0.3948         estimate D2E/DX2                !
 ! D113  D(27,26,31,49)        178.4452         estimate D2E/DX2                !
 ! D114  D(26,27,28,29)          0.1894         estimate D2E/DX2                !
 ! D115  D(26,27,28,47)        179.7097         estimate D2E/DX2                !
 ! D116  D(46,27,28,29)       -178.7719         estimate D2E/DX2                !
 ! D117  D(46,27,28,47)          0.7484         estimate D2E/DX2                !
 ! D118  D(27,28,29,30)         -0.315          estimate D2E/DX2                !
 ! D119  D(27,28,29,48)        179.7204         estimate D2E/DX2                !
 ! D120  D(47,28,29,30)       -179.838          estimate D2E/DX2                !
 ! D121  D(47,28,29,48)          0.1974         estimate D2E/DX2                !
 ! D122  D(28,29,30,31)          0.0811         estimate D2E/DX2                !
 ! D123  D(48,29,30,31)       -179.9526         estimate D2E/DX2                !
 ! D124  D(29,30,31,26)          0.2858         estimate D2E/DX2                !
 ! D125  D(29,30,31,49)       -178.6036         estimate D2E/DX2                !
 --------------------------------------------------------------------------------
 Trust Radius=3.00D-01 FncErr=1.00D-07 GrdErr=1.00D-06
 Number of steps in this run=    274 maximum allowed number of steps=    294.
 GradGradGradGradGradGradGradGradGradGradGradGradGradGradGradGradGradGrad

 Leave Link  103 at Mon Sep  5 13:41:25 2022, MaxMem=  209715200 cpu:       0.1
 (Enter /opt/gaussian/l202.exe)
                          Input orientation:                          
 ---------------------------------------------------------------------
 Center     Atomic      Atomic             Coordinates (Angstroms)
 Number     Number       Type             X           Y           Z
 ---------------------------------------------------------------------
      1          8           0        1.209410   -1.347810   -0.333100
      2          6           0        1.338960   -0.248940   -0.849110
      3          6           0        2.717260    0.288330   -1.205940
      4          7           0        3.749880   -0.674220   -0.967480
      5          7           0        4.293110   -1.355650   -2.014080
      6          7           0        5.164830   -2.170660   -1.583170
      7          6           0        5.229810   -2.067680   -0.203110
      8          6           0        6.026340   -2.741440    0.722600
      9          6           0        5.865300   -2.414520    2.046310
     10          6           0        4.925180   -1.437720    2.446520
     11          6           0        4.134550   -0.771600    1.541610
     12          6           0        4.309360   -1.107090    0.196260
     13          7           0        0.260580    0.552580   -1.122400
     14          6           0        0.352360    1.918160   -1.642750
     15          6           0        0.327450    2.958960   -0.562930
     16          6           0       -0.591240    3.918360   -0.385690
     17         16           0       -0.190840    4.926370    1.037900
     18          6           0        1.250340    3.882880    1.251470
     19          7           0        1.363930    2.957050    0.378630
     20          6           0       -1.055150    0.082580   -0.787310
     21          6           0       -1.871250   -0.439880   -1.778700
     22          6           0       -3.154600   -0.862570   -1.473890
     23          6           0       -3.645560   -0.773600   -0.172040
     24          6           0       -2.811120   -0.252070    0.815780
     25          6           0       -1.527790    0.171520    0.512390
     26          6           0       -5.020330   -1.228210    0.155710
     27          6           0       -6.109370   -0.921470   -0.657420
     28          6           0       -7.374690   -1.366460   -0.309400
     29          6           0       -7.523720   -2.107910    0.850840
     30          7           0       -6.489290   -2.408430    1.633420
     31          6           0       -5.274190   -1.985940    1.297860
     32          1           0        2.766570    0.530370   -2.257010
     33          1           0        2.908570    1.186970   -0.635760
     34          1           0        6.729440   -3.481980    0.398630
     35          1           0        6.453520   -2.906420    2.795650
     36          1           0        4.824230   -1.218180    3.491860
     37          1           0        3.410620   -0.046560    1.854340
     38          1           0        1.255140    2.031000   -2.223200
     39          1           0       -0.475940    2.075480   -2.317700
     40          1           0       -1.467200    4.110490   -0.961000
     41          1           0        1.937610    4.051240    2.048620
     42          1           0       -1.493430   -0.536240   -2.778190
     43          1           0       -3.764420   -1.291480   -2.245130
     44          1           0       -3.169930   -0.161940    1.822450
     45          1           0       -0.891720    0.563030    1.281000
     46          1           0       -5.970350   -0.328700   -1.540740
     47          1           0       -8.225690   -1.137250   -0.918940
     48          1           0       -8.481000   -2.470010    1.164060
     49          1           0       -4.476600   -2.276070    1.950730
 ---------------------------------------------------------------------
                    Distance matrix (angstroms):
                    1          2          3          4          5
     1  O    0.000000
     2  C    1.220887   0.000000
     3  C    2.390066   1.521742   0.000000
     4  N    2.703729   2.451002   1.431667   0.000000
     5  N    3.512116   3.362880   2.416415   1.361917   0.000000
     6  N    4.229078   4.343862   3.489919   2.149533   1.268787
     7  C    4.086408   4.343253   3.587389   2.171678   2.159631
     8  C    5.124405   5.536638   4.883522   3.508852   3.523339
     9  C    5.336363   5.793181   5.271877   4.072662   4.481044
    10  C    4.641263   5.013517   4.603762   3.690482   4.505907
    11  C    3.521789   3.715379   3.268210   2.540273   3.606825
    12  C    3.154023   3.263816   2.539320   1.361868   2.224331
    13  N    2.266000   1.371140   2.472263   3.701926   4.549476
    14  C    3.621640   2.509894   2.905151   4.326611   5.136655
    15  C    4.402152   3.375748   3.641005   5.007663   6.037231
    16  C    5.565757   4.615931   4.979568   6.346306   7.370462
    17  S    6.573102   5.717073   5.916357   7.135645   8.299648
    18  C    5.465588   4.635971   4.594726   5.651425   6.882184
    19  N    4.366034   3.433124   3.385917   4.548724   5.736248
    20  C    2.716718   2.417744   3.801139   4.867599   5.672509
    21  C    3.522011   3.347543   4.681108   5.684197   6.236455
    22  C    4.536678   4.578097   5.989583   6.925588   7.483536
    23  C    4.891461   5.057582   6.533156   7.438759   8.170335
    24  C    4.322642   4.471581   5.911207   6.812118   7.726324
    25  C    3.242758   3.201363   4.581130   5.546088   6.526728
    26  C    6.250032   6.512235   8.001518   8.859179   9.563702
    27  C    7.338357   7.481087   8.926023   9.867223  10.499554
    28  C    8.584153   8.801581  10.265942  11.165497  11.791675
    29  C    8.845735   9.213723  10.716808  11.508945  12.182411
    30  N    8.016364   8.491634  10.004751  10.705735  11.431218
    31  C    6.715974   7.166617   8.677822   9.396074  10.143936
    32  H    3.107046   2.151180   1.079705   2.020105   2.438526
    33  H    3.066571   2.137997   1.081323   2.069268   3.206499
    34  H    5.963291   6.408329   5.734760   4.315965   4.034619
    35  H    6.302304   6.819472   6.338674   5.143300   5.495977
    36  H    5.264413   5.650713   5.364534   4.619073   5.533205
    37  H    3.365037   3.411946   3.155664   2.910622   4.178179
    38  H    3.871812   2.663320   2.491889   3.888287   4.554382
    39  H    4.300925   3.294472   3.824453   5.219339   5.882914
    40  H    6.111590   5.185719   5.672619   7.078942   8.010545
    41  H    5.945806   5.219844   5.035822   5.891617   7.161590
    42  H    3.733960   3.438942   4.569660   5.548875   5.894009
    43  H    5.328979   5.392611   6.751881   7.647098   8.061097
    44  H    5.023077   5.241650   6.635729   7.478630   8.475899
    45  H    3.266707   3.189451   4.391477   5.303857   6.435942
    46  H    7.351594   7.342392   8.715927   9.743248  10.325565
    47  H    9.455615   9.606066  11.039149  11.984616  12.568508
    48  H    9.869390  10.267308  11.773970  12.544431  13.210612
    49  H    6.197439   6.765286   8.263918   8.874505   9.668232
                    6          7          8          9         10
     6  N    0.000000
     7  C    1.385422   0.000000
     8  C    2.526770   1.394759   0.000000
     9  C    3.704491   2.363056   1.372960   0.000000
    10  C    4.102808   2.740472   2.425725   1.413553   0.000000
    11  C    3.575346   2.433817   2.851301   2.439140   1.373926
    12  C    2.242628   1.389049   2.428200   2.748274   2.356315
    13  N    5.628500   5.692460   6.891921   7.089238   6.201369
    14  C    6.315209   6.461347   7.713676   7.922991   6.992478
    15  C    7.124194   7.030627   8.162383   8.145563   7.037521
    16  C    8.464187   8.351684   9.453762   9.365196   8.193894
    17  S    9.269360   8.935339   9.876642   9.569869   8.286104
    18  C    7.746210   7.304872   8.183611   7.847730   6.575818
    19  N    6.677493   6.366425   7.370832   7.203975   6.022680
    20  C    6.663230   6.668255   7.771899   7.884005   6.966586
    21  C    7.248466   7.453675   8.598000   8.853480   8.064715
    22  C    8.422349   8.565366   9.625195   9.806067   8.999070
    23  C    9.031392   8.969270   9.910521   9.903038   8.986406
    24  C    8.547030   8.306090   9.181849   9.026110   7.994712
    25  C    7.393804   7.154797   8.099037   7.981121   6.926134
    26  C   10.375423  10.290716  11.164235  11.112094  10.208079
    27  C   11.380908  11.406016  12.348773  12.366571  11.474417
    28  C   12.629679  12.624438  13.510855  13.488704  12.605038
    29  C   12.920048  12.797068  13.565468  13.445781  12.568630
    30  N   12.092208  11.867024  12.553146  12.361489  11.484491
    31  C   10.830863  10.611014  11.340356  11.172828  10.278478
    32  H    3.674408   4.127459   5.496264   6.065729   5.536801
    33  H    4.154753   4.020956   5.195964   5.376475   4.522849
    34  H    2.845188   2.147376   1.071310   2.145008   3.410016
    35  H    4.623433   3.345671   2.123026   1.072137   2.148207
    36  H    5.174858   3.812997   3.381448   2.145850   1.072905
    37  H    4.405171   3.409909   3.922398   3.416071   2.140069
    38  H    5.774882   6.056232   7.363306   7.697073   6.878045
    39  H    7.098417   7.361579   8.644408   8.911566   8.013268
    40  H    9.155532   9.142982  10.292550  10.265731   9.124492
    41  H    7.894105   7.304112   8.038442   7.565237   6.261995
    42  H    6.959298   7.360591   8.582854   8.997480   8.325192
    43  H    8.996814   9.255728  10.332898  10.602320   9.876341
    44  H    9.225044   8.848185   9.614306   9.314484   8.218752
    45  H    7.235906   6.826152   7.687060   7.423532   6.260812
    46  H   11.286578  11.413014  12.444460  12.541937  11.655074
    47  H   13.446753  13.506613  14.435665  14.456145  13.577996
    48  H   13.922843  13.784678  14.516593  14.373509  13.506887
    49  H   10.269213   9.944689  10.584735  10.343268   9.452095
                   11         12         13         14         15
    11  C    0.000000
    12  C    1.397526   0.000000
    13  N    4.884470   4.570119   0.000000
    14  C    5.628492   5.309609   1.464239   0.000000
    15  C    5.730635   5.741493   2.471466   1.499965   0.000000
    16  C    6.931328   7.043415   3.549199   2.543891   1.340095
    17  S    7.171442   7.573823   4.899052   4.065744   2.588819
    18  C    5.483341   5.947342   4.207824   3.611510   2.235487
    19  N    4.788704   5.022554   3.041702   2.487678   1.400296
    20  C    5.752085   5.582176   1.436778   2.466215   3.199295
    21  C    6.870526   6.522697   2.441394   3.243960   4.226641
    22  C    7.888804   7.652443   3.713442   4.478810   5.249630
    23  C    7.966600   7.970421   4.233186   5.039040   5.465309
    24  C    7.002790   7.198340   3.720127   4.556520   4.697039
    25  C    5.831883   5.983904   2.452756   3.351171   3.516824
    26  C    9.270439   9.330564   5.717761   6.480733   6.829904
    27  C   10.478363  10.455293   6.554792   7.126593   7.516603
    28  C   11.672305  11.697863   7.914609   8.501403   8.837222
    29  C   11.754920  11.893355   8.459741   9.190205   9.450544
    30  N   10.749587  10.971315   7.869109   8.732746   8.949904
    31  C    9.489912   9.686606   6.552513   7.453003   7.700191
    32  H    4.242170   3.328665   2.750967   2.851611   3.836308
    33  H    3.174896   2.813749   2.766066   2.843040   3.131682
    34  H    3.922501   3.396740   7.774147   8.602087   9.132129
    35  H    3.392299   3.819927   8.103598   8.955452   9.122032
    36  H    2.116263   3.337426   6.727101   7.496564   7.356008
    37  H    1.071241   2.163721   4.375237   5.044077   4.937842
    38  H    5.506302   5.002965   2.094430   1.079197   2.116179
    39  H    6.652575   6.272786   2.071335   1.079994   2.122543
    40  H    7.840757   7.869628   3.958535   2.929487   2.169159
    41  H    5.323851   5.972002   5.010830   4.548545   3.256668
    42  H    7.098607   6.545655   2.646454   3.274178   4.520996
    43  H    8.775158   8.436842   4.567462   5.254762   6.135099
    44  H    7.335256   7.712171   4.577235   5.361059   5.259441
    45  H    5.206971   5.569308   2.665377   3.454334   3.259898
    46  H   10.573838  10.454449   6.306834   6.710846   7.171269
    47  H   12.608074  12.584596   8.655270   9.134680   9.490094
    48  H   12.734961  12.899128   9.527810  10.254875  10.490234
    49  H    8.751155   9.035362   6.315557   7.336451   7.536771
                   16         17         18         19         20
    16  C    0.000000
    17  S    1.789696   0.000000
    18  C    2.464339   1.792061   0.000000
    19  N    2.308894   2.594257   1.277464   0.000000
    20  C    3.884549   5.247926   4.890214   3.933693   0.000000
    21  C    4.751122   6.289169   6.132904   5.163293   1.386304
    22  C    5.532837   6.971713   7.024983   6.199874   2.402580
    23  C    5.602589   6.774120   6.905000   6.270245   2.796753
    24  C    4.874821   5.807878   5.812323   5.283994   2.401108
    25  C    3.965159   4.967111   4.694512   4.017352   1.385828
    26  C    6.811544   7.872807   8.163653   7.637072   4.281368
    27  C    7.344900   8.491192   8.993941   8.483309   5.154622
    28  C    8.599438   9.644824  10.216801   9.773925   6.501131
    29  C    9.268453  10.163032  10.631754  10.240465   7.023118
    30  N    8.882121   9.686300   9.981400   9.593536   6.449414
    31  C    7.721730   8.584175   8.775801   8.327231   5.140721
    32  H    5.123983   6.239192   5.084064   3.847437   4.118990
    33  H    4.446538   5.137177   3.685009   2.558922   4.117490
    34  H   10.438992  10.908680   9.218950   8.381540   8.643633
    35  H   10.311508  10.420643   8.692075   8.131801   8.840353
    36  H    8.411109   8.302309   6.619128   6.252873   7.387177
    37  H    6.062442   6.194120   4.524462   3.922797   5.190192
    38  H    3.216783   4.594431   3.937361   2.763860   3.345977
    39  H    2.672483   4.412358   4.357260   3.381195   2.578610
    40  H    1.065458   2.508058   3.511674   3.337713   4.052655
    41  H    3.512635   2.513505   1.065896   2.077312   5.722707
    42  H    5.136289   6.789653   6.579898   5.507549   2.130406
    43  H    6.377227   7.887358   8.009247   7.157800   3.369484
    44  H    5.307954   5.948226   6.018752   5.689341   3.367927
    45  H    3.758508   4.425954   3.951037   3.410801   2.129659
    46  H    6.950287   8.226049   8.813184   8.262675   4.989589
    47  H    9.172152  10.254537  10.941094  10.507511   7.274748
    48  H   10.269436  11.110765  11.621783  11.269096   8.091156
    49  H    7.676317   8.430667   8.439163   7.998052   4.976586
                   21         22         23         24         25
    21  C    0.000000
    22  C    1.385122   0.000000
    23  C    2.416796   1.394192   0.000000
    24  C    2.765855   2.394426   1.394300   0.000000
    25  C    2.396011   2.767880   2.417984   1.385067   0.000000
    26  C    3.778903   2.504044   1.484615   2.503827   3.779458
    27  C    4.410313   3.066066   2.515516   3.673808   4.853242
    28  C    5.771070   4.406711   3.778460   4.830535   6.101390
    29  C    6.453466   5.103376   4.226913   5.064975   6.423514
    30  N    6.069930   4.813026   3.744216   4.341354   5.703449
    31  C    4.841025   3.665681   2.506553   3.050479   4.393986
    32  H    4.762304   6.133010   6.867521   6.415986   5.122487
    33  H    5.176836   6.454851   6.856784   6.073933   4.693685
    34  H    9.379073  10.395282  10.737859  10.081102   9.030108
    35  H    9.813781  10.710848  10.739996   9.838649   8.853717
    36  H    8.556518   9.404619   9.239002   8.148211   7.152389
    37  H    6.422759   7.405748   7.377295   6.311172   5.122136
    38  H    4.009631   5.327290   6.007487   5.566173   4.322710
    39  H    2.926508   4.064403   4.771541   4.548544   3.569434
    40  H    4.640879   5.276524   5.405742   4.898469   4.205952
    41  H    7.023244   7.904695   7.705985   6.526010   5.424134
    42  H    1.072853   2.137095   3.388218   3.838448   3.366010
    43  H    2.127645   1.072686   2.140100   3.370211   3.840156
    44  H    3.838242   3.370011   2.139706   1.072498   2.126988
    45  H    3.365572   3.839581   3.388442   2.136566   1.071740
    46  H    4.107506   2.866694   2.734214   3.942054   4.919543
    47  H    6.450149   5.108754   4.654857   5.754161   6.973052
    48  H    7.514656   6.157368   5.295701   6.098204   7.466558
    49  H    4.905924   3.933661   2.730237   2.856311   4.093287
                   26         27         28         29         30
    26  C    0.000000
    27  C    1.393298   0.000000
    28  C    2.403841   1.385702   0.000000
    29  C    2.742998   2.383878   1.384960   0.000000
    30  N    2.394659   2.757415   2.375749   1.331461   0.000000
    31  C    1.393953   2.377760   2.716457   2.296756   1.329499
    32  H    8.339642   9.135034  10.499348  11.068393  10.461498
    33  H    8.326282   9.261168  10.600564  11.040783  10.314836
    34  H   11.966436  13.134173  14.279468  14.326379  13.319611
    35  H   11.892641  13.179147  14.255953  14.134466  13.004426
    36  H   10.394487  11.698212  12.778310  12.658534  11.526761
    37  H    8.681161   9.884565  11.079116  11.172107  10.180150
    38  H    7.460777   8.087321   9.469917  10.180800   9.724107
    39  H    6.138697   6.593464   7.966993   8.787013   8.478041
    40  H    6.509492   6.852921   8.082079   8.867508   8.628367
    41  H    8.936925   9.838922  11.028629  11.352822  10.626023
    42  H    4.639571   5.094406   6.432216   7.211408   6.922862
    43  H    2.710230   2.855962   4.097160   4.938008   4.869871
    44  H    2.709047   3.920070   4.865764   4.866859   4.012555
    45  H    4.638991   5.760650   6.948468   7.162568   6.347170
    46  H    2.142335   1.072827   2.136660   3.361280   3.830126
    47  H    3.381934   2.143307   1.071577   2.137069   3.338491
    48  H    3.812489   3.367550   2.147750   1.070331   2.047193
    49  H    2.148430   3.362042   3.786093   3.243914   2.041844
                   31         32         33         34         35
    31  C    0.000000
    32  H    9.144547   0.000000
    33  H    8.986868   1.754919   0.000000
    34  H   12.129876   6.233435   6.121120   0.000000
    35  H   11.858745   7.136841   6.410701   2.480546   0.000000
    36  H   10.362489   6.351449   5.147013   4.280501   2.447335
    37  H    8.916097   4.201291   2.823871   4.993573   4.280666
    38  H    8.435984   2.130130   2.442577   8.199689   8.751578
    39  H    7.251938   3.592342   3.882432   9.496384   9.949025
    40  H    7.534061   5.694006   5.272581  11.255181  11.228858
    41  H    9.435107   5.623358   4.043847   9.079290   8.328297
    42  H    5.745429   4.422317   5.190093   9.294362   9.991970
    43  H    3.913369   6.780347   7.298053  11.041234  11.507554
    44  H    2.833740   7.236250   6.694066  10.537906  10.054356
    45  H    5.069869   5.089368   4.301799   8.673106   8.263401
    46  H    3.359871   8.808224   9.052705  13.228341  13.409007
    47  H    3.787589  11.198266  11.377783  15.195054  15.244912
    48  H    3.245898  12.133171  12.096907  15.263271  15.029718
    49  H    1.070778   8.834291   8.557062  11.377107  10.980836
                   36         37         38         39         40
    36  H    0.000000
    37  H    2.460174   0.000000
    38  H    7.480474   5.058526   0.000000
    39  H    8.525901   6.083940   1.734228   0.000000
    40  H    9.370420   7.000024   3.650830   2.639033   0.000000
    41  H    6.179183   4.358838   4.774472   5.365967   4.544673
    42  H    8.927004   6.763862   3.801759   2.840496   4.989486
    43  H   10.328763   8.356834   6.019579   4.706993   6.008951
    44  H    8.234632   6.581639   6.384161   5.422589   5.375922
    45  H    6.382217   4.382973   4.363870   3.925687   4.235825
    46  H   11.943249   9.980419   7.631621   6.047503   6.349871
    47  H   13.775417  12.011844  10.080925   8.505104   8.556736
    48  H   13.565208  12.155666  11.248335   9.842008   9.849480
    49  H    9.486815   8.196844   8.296107   7.291143   7.636937
                   41         42         43         44         45
    41  H    0.000000
    42  H    7.491001   0.000000
    43  H    8.915946   2.451925   0.000000
    44  H    6.624878   4.910870   4.263154   0.000000
    45  H    4.556529   4.248232   4.911742   2.451324   0.000000
    46  H    9.726418   4.649427   2.507835   4.379636   5.877915
    47  H   11.790653   7.010089   4.656769   5.833280   7.843329
    48  H   12.323010   8.252693   5.937814   5.828218   8.173749
    49  H    9.010356   5.855681   4.368279   2.488652   4.621730
                   46         47         48         49
    46  H    0.000000
    47  H    2.475267   0.000000
    48  H    4.266675   2.486025   0.000000
    49  H    4.267775   4.856706   4.085545   0.000000
 Stoichiometry    C23H18N6OS
 Framework group  C1[X(C23H18N6OS)]
 Deg. of freedom   141
 Full point group                 C1      NOp   1
 Largest Abelian subgroup         C1      NOp   1
 Largest concise Abelian subgroup C1      NOp   1
                         Standard orientation:                         
 ---------------------------------------------------------------------
 Center     Atomic      Atomic             Coordinates (Angstroms)
 Number     Number       Type             X           Y           Z
 ---------------------------------------------------------------------
      1          8           0        1.209411   -1.347810   -0.333100
      2          6           0        1.338960   -0.248940   -0.849110
      3          6           0        2.717260    0.288331   -1.205940
      4          7           0        3.749880   -0.674219   -0.967480
      5          7           0        4.293111   -1.355649   -2.014080
      6          7           0        5.164831   -2.170659   -1.583170
      7          6           0        5.229811   -2.067679   -0.203110
      8          6           0        6.026341   -2.741439    0.722600
      9          6           0        5.865301   -2.414519    2.046310
     10          6           0        4.925181   -1.437719    2.446520
     11          6           0        4.134550   -0.771599    1.541610
     12          6           0        4.309361   -1.107089    0.196260
     13          7           0        0.260580    0.552580   -1.122400
     14          6           0        0.352360    1.918160   -1.642750
     15          6           0        0.327450    2.958960   -0.562930
     16          6           0       -0.591241    3.918360   -0.385690
     17         16           0       -0.190841    4.926370    1.037900
     18          6           0        1.250339    3.882880    1.251470
     19          7           0        1.363930    2.957050    0.378630
     20          6           0       -1.055150    0.082580   -0.787310
     21          6           0       -1.871250   -0.439881   -1.778700
     22          6           0       -3.154600   -0.862571   -1.473890
     23          6           0       -3.645560   -0.773601   -0.172040
     24          6           0       -2.811120   -0.252071    0.815780
     25          6           0       -1.527790    0.171520    0.512390
     26          6           0       -5.020329   -1.228211    0.155710
     27          6           0       -6.109369   -0.921472   -0.657420
     28          6           0       -7.374689   -1.366462   -0.309400
     29          6           0       -7.523719   -2.107912    0.850840
     30          7           0       -6.489289   -2.408432    1.633420
     31          6           0       -5.274189   -1.985941    1.297860
     32          1           0        2.766570    0.530371   -2.257010
     33          1           0        2.908570    1.186971   -0.635760
     34          1           0        6.729441   -3.481978    0.398630
     35          1           0        6.453521   -2.906418    2.795650
     36          1           0        4.824231   -1.218179    3.491860
     37          1           0        3.410620   -0.046559    1.854340
     38          1           0        1.255140    2.031000   -2.223200
     39          1           0       -0.475940    2.075480   -2.317700
     40          1           0       -1.467201    4.110490   -0.961000
     41          1           0        1.937609    4.051240    2.048620
     42          1           0       -1.493430   -0.536240   -2.778190
     43          1           0       -3.764419   -1.291481   -2.245130
     44          1           0       -3.169930   -0.161941    1.822450
     45          1           0       -0.891720    0.563030    1.281000
     46          1           0       -5.970350   -0.328702   -1.540740
     47          1           0       -8.225689   -1.137252   -0.918940
     48          1           0       -8.480999   -2.470012    1.164060
     49          1           0       -4.476599   -2.276071    1.950730
 ---------------------------------------------------------------------
 Rotational constants (GHZ):      0.1827379      0.0685361      0.0568895
 Leave Link  202 at Mon Sep  5 13:41:25 2022, MaxMem=  209715200 cpu:       0.0
 (Enter /opt/gaussian/l301.exe)
 Standard basis: CC-pVDZ (5D, 7F)
 Ernie: Thresh=  0.10000D-02 Tol=  0.10000D-05 Strict=F.
 Ernie:  70 primitive shells out of 800 were deleted.
 There are   528 symmetry adapted basis functions of A   symmetry.
 Integral buffers will be    131072 words long.
 Raffenetti 2 integral format.
 Two-electron integral symmetry is turned on.
   528 basis functions,  1187 primitive gaussians,   559 cartesian basis functions
   111 alpha electrons      111 beta electrons
       nuclear repulsion energy      2904.3561821095 Hartrees.
 IExCor=  402 DFT=T Ex+Corr=B3LYP ExCW=0 ScaHFX=  0.200000
 ScaDFX=  0.800000  0.720000  1.000000  0.810000 ScalE2=  1.000000  1.000000
 IRadAn=      0 IRanWt=     -1 IRanGd=            0 ICorTp=0
 NAtoms=   49 NActive=   49 NUniq=   49 SFac= 1.00D+00 NAtFMM=   60 NAOKFM=F Big=F
 Leave Link  301 at Mon Sep  5 13:41:25 2022, MaxMem=  209715200 cpu:       0.3
 (Enter /opt/gaussian/l302.exe)
 NPDir=0 NMtPBC=     1 NCelOv=     1 NCel=       1 NClECP=     1 NCelD=      1
         NCelK=      1 NCelE2=     1 NClLst=     1 CellRange=     0.0.
 One-electron integrals computed using PRISM.
 NBasis=   528 RedAO= T  NBF=   528
 NBsUse=   528 1.00D-06 NBFU=   528
 Precomputing XC quadrature grid using
 IXCGrd= 2 IRadAn=           0 IRanWt=          -1 IRanGd=           0 AccXCQ= 0.00D+00.
 NRdTot=    3163 NPtTot=      404528 NUsed=      427319 NTot=      427351
 NSgBfM=   541   541   541   541   541 NAtAll=    49    49.
 Leave Link  302 at Mon Sep  5 13:41:26 2022, MaxMem=  209715200 cpu:       7.7
 (Enter /opt/gaussian/l303.exe)
 DipDrv:  MaxL=1.
 Leave Link  303 at Mon Sep  5 13:41:26 2022, MaxMem=  209715200 cpu:       1.1
 (Enter /opt/gaussian/l401.exe)
 Harris functional with IExCor=  402 diagonalized for initial guess.
 ExpMin= 1.22D-01 ExpMax= 1.11D+05 ExpMxC= 1.07D+03 IAcc=2 IRadAn=         4 AccDes= 0.00D+00
 HarFok:  IExCor=  402 AccDes= 0.00D+00 IRadAn=         4 IDoV= 1
 ScaDFX=  1.000000  1.000000  1.000000  1.000000
 FoFCou: FMM=F IPFlag=           0 FMFlag=      100000 FMFlg1=           0
         NFxFlg=           0 DoJE=T BraDBF=F KetDBF=T FulRan=T
         Omega=  0.000000  0.000000  1.000000  0.000000  0.000000 ICntrl=     500 IOpCl=  0
         NMat0=    1 NMatS0=    1 NMatT0=    0 NMatD0=    1 NMtDS0=    0 NMtDT0=    0
         I1Cent=           4 NGrid=           0.
 Petite list used in FoFCou.
 Harris En= -1689.04015460069    
 Initial guess orbital symmetries:
       Occupied  (A) (A) (A) (A) (A) (A) (A) (A) (A) (A) (A) (A)
                 (A) (A) (A) (A) (A) (A) (A) (A) (A) (A) (A) (A)
                 (A) (A) (A) (A) (A) (A) (A) (A) (A) (A) (A) (A)
                 (A) (A) (A) (A) (A) (A) (A) (A) (A) (A) (A) (A)
                 (A) (A) (A) (A) (A) (A) (A) (A) (A) (A) (A) (A)
                 (A) (A) (A) (A) (A) (A) (A) (A) (A) (A) (A) (A)
                 (A) (A) (A) (A) (A) (A) (A) (A) (A) (A) (A) (A)
                 (A) (A) (A) (A) (A) (A) (A) (A) (A) (A) (A) (A)
                 (A) (A) (A) (A) (A) (A) (A) (A) (A) (A) (A) (A)
                 (A) (A) (A)
       Virtual   (A) (A) (A) (A) (A) (A) (A) (A) (A) (A) (A) (A)
                 (A) (A) (A) (A) (A) (A) (A) (A) (A) (A) (A) (A)
                 (A) (A) (A) (A) (A) (A) (A) (A) (A) (A) (A) (A)
                 (A) (A) (A) (A) (A) (A) (A) (A) (A) (A) (A) (A)
                 (A) (A) (A) (A) (A) (A) (A) (A) (A) (A) (A) (A)
                 (A) (A) (A) (A) (A) (A) (A) (A) (A) (A) (A) (A)
                 (A) (A) (A) (A) (A) (A) (A) (A) (A) (A) (A) (A)
                 (A) (A) (A) (A) (A) (A) (A) (A) (A) (A) (A) (A)
                 (A) (A) (A) (A) (A) (A) (A) (A) (A) (A) (A) (A)
                 (A) (A) (A) (A) (A) (A) (A) (A) (A) (A) (A) (A)
                 (A) (A) (A) (A) (A) (A) (A) (A) (A) (A) (A) (A)
                 (A) (A) (A) (A) (A) (A) (A) (A) (A) (A) (A) (A)
                 (A) (A) (A) (A) (A) (A) (A) (A) (A) (A) (A) (A)
                 (A) (A) (A) (A) (A) (A) (A) (A) (A) (A) (A) (A)
                 (A) (A) (A) (A) (A) (A) (A) (A) (A) (A) (A) (A)
                 (A) (A) (A) (A) (A) (A) (A) (A) (A) (A) (A) (A)
                 (A) (A) (A) (A) (A) (A) (A) (A) (A) (A) (A) (A)
                 (A) (A) (A) (A) (A) (A) (A) (A) (A) (A) (A) (A)
                 (A) (A) (A) (A) (A) (A) (A) (A) (A) (A) (A) (A)
                 (A) (A) (A) (A) (A) (A) (A) (A) (A) (A) (A) (A)
                 (A) (A) (A) (A) (A) (A) (A) (A) (A) (A) (A) (A)
                 (A) (A) (A) (A) (A) (A) (A) (A) (A) (A) (A) (A)
                 (A) (A) (A) (A) (A) (A) (A) (A) (A) (A) (A) (A)
                 (A) (A) (A) (A) (A) (A) (A) (A) (A) (A) (A) (A)
                 (A) (A) (A) (A) (A) (A) (A) (A) (A) (A) (A) (A)
                 (A) (A) (A) (A) (A) (A) (A) (A) (A) (A) (A) (A)
                 (A) (A) (A) (A) (A) (A) (A) (A) (A) (A) (A) (A)
                 (A) (A) (A) (A) (A) (A) (A) (A) (A) (A) (A) (A)
                 (A) (A) (A) (A) (A) (A) (A) (A) (A) (A) (A) (A)
                 (A) (A) (A) (A) (A) (A) (A) (A) (A) (A) (A) (A)
                 (A) (A) (A) (A) (A) (A) (A) (A) (A) (A) (A) (A)
                 (A) (A) (A) (A) (A) (A) (A) (A) (A) (A) (A) (A)
                 (A) (A) (A) (A) (A) (A) (A) (A) (A) (A) (A) (A)
                 (A) (A) (A) (A) (A) (A) (A) (A) (A) (A) (A) (A)
                 (A) (A) (A) (A) (A) (A) (A) (A) (A)
 The electronic state of the initial guess is 1-A.
 Leave Link  401 at Mon Sep  5 13:41:29 2022, MaxMem=  209715200 cpu:      22.8
 (Enter /opt/gaussian/l502.exe)
 Closed shell SCF:
 Requested convergence on RMS density matrix=1.00D-08 within 128 cycles.
 Requested convergence on MAX density matrix=1.00D-06.
 Requested convergence on             energy=1.00D-06.
 No special actions if energy rises.
 Using DIIS extrapolation, IDIIS=  1040.
 Integral symmetry usage will be decided dynamically.
       426865 words used for storage of precomputed grid.
 IEnd=     1391148 IEndB=     1391148 NGot=   209715200 MDV=   208653733
 LenX=   208653733 LenY=   208340693
 Fock matrices will be formed incrementally for  20 cycles.
 Integral accuracy reduced to 1.0D-05 until final iterations.

 Cycle   1  Pass 0  IDiag  1:
 FoFCou: FMM=F IPFlag=           0 FMFlag=      100000 FMFlg1=           0
         NFxFlg=           0 DoJE=F BraDBF=F KetDBF=F FulRan=T
         Omega=  0.000000  0.000000  1.000000  0.000000  0.000000 ICntrl=       0 IOpCl=  0
         NMat0=    1 NMatS0=    1 NMatT0=    0 NMatD0=    1 NMtDS0=    0 NMtDT0=    0
         I1Cent=           0 NGrid=           0.
 Symmetry not used in FoFCou.
 E= -1688.63956356250    
 DIIS: error= 2.14D-02 at cycle   1 NSaved=   1.
 NSaved= 1 IEnMin= 1 EnMin= -1688.63956356250     IErMin= 1 ErrMin= 2.14D-02
 ErrMax= 2.14D-02 EMaxC= 1.00D-01 BMatC= 5.68D-01 BMatP= 5.68D-01
 IDIUse=3 WtCom= 7.86D-01 WtEn= 2.14D-01
 Coeff-Com:  0.100D+01
 Coeff-En:   0.100D+01
 Coeff:      0.100D+01
 Gap=     0.361 Goal=   None    Shift=    0.000
 GapD=    0.361 DampG=1.000 DampE=0.500 DampFc=0.5000 IDamp=-1.
 Damping current iteration by 5.00D-01
 RMSDP=4.37D-03 MaxDP=2.16D-01              OVMax= 3.13D-01

 Cycle   2  Pass 0  IDiag  1:
 RMSU=  1.53D-03    CP:  9.80D-01
 E= -1688.78139868893     Delta-E=       -0.141835126435 Rises=F Damp=T
 DIIS: error= 8.74D-03 at cycle   2 NSaved=   2.
 NSaved= 2 IEnMin= 2 EnMin= -1688.78139868893     IErMin= 2 ErrMin= 8.74D-03
 ErrMax= 8.74D-03 EMaxC= 1.00D-01 BMatC= 1.18D-01 BMatP= 5.68D-01
 IDIUse=3 WtCom= 9.13D-01 WtEn= 8.74D-02
 Coeff-Com:  0.248D+00 0.752D+00
 Coeff-En:   0.377D+00 0.623D+00
 Coeff:      0.260D+00 0.740D+00
 Gap=     0.249 Goal=   None    Shift=    0.000
 RMSDP=1.51D-03 MaxDP=8.34D-02 DE=-1.42D-01 OVMax= 2.95D-01

 Cycle   3  Pass 0  IDiag  1:
 RMSU=  9.79D-04    CP:  9.66D-01  7.42D-01
 E= -1689.18068604063     Delta-E=       -0.399287351696 Rises=F Damp=F
 DIIS: error= 1.14D-02 at cycle   3 NSaved=   3.
 NSaved= 3 IEnMin= 3 EnMin= -1689.18068604063     IErMin= 2 ErrMin= 8.74D-03
 ErrMax= 1.14D-02 EMaxC= 1.00D-01 BMatC= 8.71D-02 BMatP= 1.18D-01
 IDIUse=3 WtCom= 8.86D-01 WtEn= 1.14D-01
 Coeff-Com:  0.659D-01 0.453D+00 0.481D+00
 Coeff-En:   0.000D+00 0.000D+00 0.100D+01
 Coeff:      0.584D-01 0.402D+00 0.540D+00
 Gap=     0.176 Goal=   None    Shift=    0.000
 RMSDP=7.19D-04 MaxDP=5.08D-02 DE=-3.99D-01 OVMax= 8.46D-02

 Cycle   4  Pass 0  IDiag  1:
 RMSU=  3.50D-04    CP:  9.70D-01  8.34D-01  6.54D-01
 E= -1689.24888883945     Delta-E=       -0.068202798824 Rises=F Damp=F
 DIIS: error= 4.24D-03 at cycle   4 NSaved=   4.
 NSaved= 4 IEnMin= 4 EnMin= -1689.24888883945     IErMin= 4 ErrMin= 4.24D-03
 ErrMax= 4.24D-03 EMaxC= 1.00D-01 BMatC= 1.50D-02 BMatP= 8.71D-02
 IDIUse=3 WtCom= 9.58D-01 WtEn= 4.24D-02
 Coeff-Com:  0.132D-01 0.115D+00 0.314D+00 0.558D+00
 Coeff-En:   0.000D+00 0.000D+00 0.150D+00 0.850D+00
 Coeff:      0.127D-01 0.110D+00 0.307D+00 0.571D+00
 Gap=     0.179 Goal=   None    Shift=    0.000
 RMSDP=2.65D-04 MaxDP=1.71D-02 DE=-6.82D-02 OVMax= 2.39D-02

 Cycle   5  Pass 0  IDiag  1:
 RMSU=  1.23D-04    CP:  9.69D-01  8.03D-01  7.20D-01  6.69D-01
 E= -1689.26048860565     Delta-E=       -0.011599766201 Rises=F Damp=F
 DIIS: error= 9.25D-04 at cycle   5 NSaved=   5.
 NSaved= 5 IEnMin= 5 EnMin= -1689.26048860565     IErMin= 5 ErrMin= 9.25D-04
 ErrMax= 9.25D-04 EMaxC= 1.00D-01 BMatC= 1.45D-03 BMatP= 1.50D-02
 IDIUse=3 WtCom= 9.91D-01 WtEn= 9.25D-03
 Coeff-Com:  0.252D-02 0.229D-01 0.136D+00 0.349D+00 0.490D+00
 Coeff-En:   0.000D+00 0.000D+00 0.000D+00 0.467D-01 0.953D+00
 Coeff:      0.250D-02 0.227D-01 0.134D+00 0.346D+00 0.495D+00
 Gap=     0.176 Goal=   None    Shift=    0.000
 RMSDP=1.03D-04 MaxDP=5.84D-03 DE=-1.16D-02 OVMax= 1.20D-02

 Cycle   6  Pass 0  IDiag  1:
 RMSU=  3.77D-05    CP:  9.69D-01  8.06D-01  7.33D-01  7.19D-01  5.23D-01
 E= -1689.26181589046     Delta-E=       -0.001327284809 Rises=F Damp=F
 DIIS: error= 5.17D-04 at cycle   6 NSaved=   6.
 NSaved= 6 IEnMin= 6 EnMin= -1689.26181589046     IErMin= 6 ErrMin= 5.17D-04
 ErrMax= 5.17D-04 EMaxC= 1.00D-01 BMatC= 2.12D-04 BMatP= 1.45D-03
 IDIUse=3 WtCom= 9.95D-01 WtEn= 5.17D-03
 Coeff-Com:  0.193D-03-0.261D-02 0.455D-01 0.152D+00 0.322D+00 0.483D+00
 Coeff-En:   0.000D+00 0.000D+00 0.000D+00 0.000D+00 0.952D-01 0.905D+00
 Coeff:      0.192D-03-0.259D-02 0.453D-01 0.151D+00 0.320D+00 0.485D+00
 Gap=     0.176 Goal=   None    Shift=    0.000
 RMSDP=3.31D-05 MaxDP=2.10D-03 DE=-1.33D-03 OVMax= 4.54D-03

 Cycle   7  Pass 0  IDiag  1:
 RMSU=  1.44D-05    CP:  9.69D-01  8.06D-01  7.33D-01  7.14D-01  6.02D-01
                    CP:  5.87D-01
 E= -1689.26199521534     Delta-E=       -0.000179324878 Rises=F Damp=F
 DIIS: error= 2.43D-04 at cycle   7 NSaved=   7.
 NSaved= 7 IEnMin= 7 EnMin= -1689.26199521534     IErMin= 7 ErrMin= 2.43D-04
 ErrMax= 2.43D-04 EMaxC= 1.00D-01 BMatC= 3.08D-05 BMatP= 2.12D-04
 IDIUse=3 WtCom= 9.98D-01 WtEn= 2.43D-03
 Coeff-Com:  0.178D-04-0.407D-02 0.130D-01 0.530D-01 0.143D+00 0.321D+00
 Coeff-Com:  0.474D+00
 Coeff-En:   0.000D+00 0.000D+00 0.000D+00 0.000D+00 0.000D+00 0.121D+00
 Coeff-En:   0.879D+00
 Coeff:      0.178D-04-0.406D-02 0.130D-01 0.528D-01 0.143D+00 0.321D+00
 Coeff:      0.475D+00
 Gap=     0.176 Goal=   None    Shift=    0.000
 RMSDP=1.13D-05 MaxDP=6.73D-04 DE=-1.79D-04 OVMax= 1.30D-03

 Cycle   8  Pass 0  IDiag  1:
 RMSU=  4.16D-06    CP:  9.69D-01  8.05D-01  7.33D-01  7.18D-01  6.03D-01
                    CP:  6.49D-01  5.74D-01
 E= -1689.26202747672     Delta-E=       -0.000032261374 Rises=F Damp=F
 DIIS: error= 4.10D-05 at cycle   8 NSaved=   8.
 NSaved= 8 IEnMin= 8 EnMin= -1689.26202747672     IErMin= 8 ErrMin= 4.10D-05
 ErrMax= 4.10D-05 EMaxC= 1.00D-01 BMatC= 1.22D-06 BMatP= 3.08D-05
 IDIUse=1 WtCom= 1.00D+00 WtEn= 0.00D+00
 Coeff-Com:  0.973D-04-0.211D-02 0.385D-02 0.168D-01 0.510D-01 0.129D+00
 Coeff-Com:  0.240D+00 0.562D+00
 Coeff:      0.973D-04-0.211D-02 0.385D-02 0.168D-01 0.510D-01 0.129D+00
 Coeff:      0.240D+00 0.562D+00
 Gap=     0.176 Goal=   None    Shift=    0.000
 RMSDP=3.18D-06 MaxDP=1.46D-04 DE=-3.23D-05 OVMax= 4.53D-04

 Initial convergence to 1.0D-05 achieved.  Increase integral accuracy.
 Cycle   9  Pass 1  IDiag  1:
 E= -1689.26205224214     Delta-E=       -0.000024765428 Rises=F Damp=F
 DIIS: error= 1.62D-04 at cycle   1 NSaved=   1.
 NSaved= 1 IEnMin= 1 EnMin= -1689.26205224214     IErMin= 1 ErrMin= 1.62D-04
 ErrMax= 1.62D-04 EMaxC= 1.00D-01 BMatC= 9.27D-06 BMatP= 9.27D-06
 IDIUse=3 WtCom= 9.98D-01 WtEn= 1.62D-03
 Coeff-Com:  0.100D+01
 Coeff-En:   0.100D+01
 Coeff:      0.100D+01
 Gap=     0.176 Goal=   None    Shift=    0.000
 RMSDP=3.18D-06 MaxDP=1.46D-04 DE=-2.48D-05 OVMax= 7.18D-04

 Cycle  10  Pass 1  IDiag  1:
 RMSU=  8.57D-05    CP:  1.00D+00
 E= -1689.26205975549     Delta-E=       -0.000007513347 Rises=F Damp=F
 DIIS: error= 3.93D-05 at cycle   2 NSaved=   2.
 NSaved= 2 IEnMin= 2 EnMin= -1689.26205975549     IErMin= 2 ErrMin= 3.93D-05
 ErrMax= 3.93D-05 EMaxC= 1.00D-01 BMatC= 1.34D-06 BMatP= 9.27D-06
 IDIUse=1 WtCom= 1.00D+00 WtEn= 0.00D+00
 Coeff-Com:  0.162D+00 0.838D+00
 Coeff:      0.162D+00 0.838D+00
 Gap=     0.176 Goal=   None    Shift=    0.000
 RMSDP=6.22D-06 MaxDP=3.42D-04 DE=-7.51D-06 OVMax= 9.03D-04

 Cycle  11  Pass 1  IDiag  1:
 RMSU=  4.33D-06    CP:  1.00D+00  1.01D+00
 E= -1689.26205734849     Delta-E=        0.000002407006 Rises=F Damp=F
 DIIS: error= 6.97D-05 at cycle   3 NSaved=   3.
 NSaved= 3 IEnMin= 2 EnMin= -1689.26205975549     IErMin= 2 ErrMin= 3.93D-05
 ErrMax= 6.97D-05 EMaxC= 1.00D-01 BMatC= 3.53D-06 BMatP= 1.34D-06
 IDIUse=1 WtCom= 1.00D+00 WtEn= 0.00D+00
 Coeff-Com: -0.342D-02 0.621D+00 0.382D+00
 Coeff:     -0.342D-02 0.621D+00 0.382D+00
 Gap=     0.176 Goal=   None    Shift=    0.000
 RMSDP=3.86D-06 MaxDP=2.07D-04 DE= 2.41D-06 OVMax= 5.76D-04

 Cycle  12  Pass 1  IDiag  1:
 RMSU=  4.39D-07    CP:  1.00D+00  1.01D+00  3.81D-01
 E= -1689.26206120966     Delta-E=       -0.000003861178 Rises=F Damp=F
 DIIS: error= 6.58D-06 at cycle   4 NSaved=   4.
 NSaved= 4 IEnMin= 4 EnMin= -1689.26206120966     IErMin= 4 ErrMin= 6.58D-06
 ErrMax= 6.58D-06 EMaxC= 1.00D-01 BMatC= 4.13D-08 BMatP= 1.34D-06
 IDIUse=1 WtCom= 1.00D+00 WtEn= 0.00D+00
 Coeff-Com: -0.421D-02 0.397D+00 0.250D+00 0.357D+00
 Coeff:     -0.421D-02 0.397D+00 0.250D+00 0.357D+00
 Gap=     0.176 Goal=   None    Shift=    0.000
 RMSDP=3.71D-07 MaxDP=1.99D-05 DE=-3.86D-06 OVMax= 3.91D-05

 Cycle  13  Pass 1  IDiag  1:
 RMSU=  1.65D-07    CP:  1.00D+00  1.01D+00  3.90D-01  5.44D-01
 E= -1689.26206124894     Delta-E=       -0.000000039276 Rises=F Damp=F
 DIIS: error= 1.02D-06 at cycle   5 NSaved=   5.
 NSaved= 5 IEnMin= 5 EnMin= -1689.26206124894     IErMin= 5 ErrMin= 1.02D-06
 ErrMax= 1.02D-06 EMaxC= 1.00D-01 BMatC= 1.04D-09 BMatP= 4.13D-08
 IDIUse=1 WtCom= 1.00D+00 WtEn= 0.00D+00
 Coeff-Com: -0.219D-02 0.194D+00 0.123D+00 0.204D+00 0.482D+00
 Coeff:     -0.219D-02 0.194D+00 0.123D+00 0.204D+00 0.482D+00
 Gap=     0.176 Goal=   None    Shift=    0.000
 RMSDP=8.50D-08 MaxDP=5.62D-06 DE=-3.93D-08 OVMax= 1.06D-05

 Cycle  14  Pass 1  IDiag  1:
 RMSU=  5.05D-08    CP:  1.00D+00  1.01D+00  3.91D-01  5.75D-01  8.23D-01
 E= -1689.26206124981     Delta-E=       -0.000000000869 Rises=F Damp=F
 DIIS: error= 4.17D-07 at cycle   6 NSaved=   6.
 NSaved= 6 IEnMin= 6 EnMin= -1689.26206124981     IErMin= 6 ErrMin= 4.17D-07
 ErrMax= 4.17D-07 EMaxC= 1.00D-01 BMatC= 1.43D-10 BMatP= 1.04D-09
 IDIUse=1 WtCom= 1.00D+00 WtEn= 0.00D+00
 Coeff-Com: -0.594D-03 0.476D-01 0.303D-01 0.606D-01 0.292D+00 0.570D+00
 Coeff:     -0.594D-03 0.476D-01 0.303D-01 0.606D-01 0.292D+00 0.570D+00
 Gap=     0.176 Goal=   None    Shift=    0.000
 RMSDP=2.91D-08 MaxDP=2.22D-06 DE=-8.69D-10 OVMax= 3.73D-06

 Cycle  15  Pass 1  IDiag  1:
 RMSU=  1.45D-08    CP:  1.00D+00  1.01D+00  3.91D-01  5.77D-01  8.63D-01
                    CP:  7.44D-01
 E= -1689.26206124992     Delta-E=       -0.000000000112 Rises=F Damp=F
 DIIS: error= 1.75D-07 at cycle   7 NSaved=   7.
 NSaved= 7 IEnMin= 7 EnMin= -1689.26206124992     IErMin= 7 ErrMin= 1.75D-07
 ErrMax= 1.75D-07 EMaxC= 1.00D-01 BMatC= 2.35D-11 BMatP= 1.43D-10
 IDIUse=1 WtCom= 1.00D+00 WtEn= 0.00D+00
 Coeff-Com: -0.439D-04 0.923D-03 0.633D-03 0.719D-02 0.110D+00 0.353D+00
 Coeff-Com:  0.529D+00
 Coeff:     -0.439D-04 0.923D-03 0.633D-03 0.719D-02 0.110D+00 0.353D+00
 Coeff:      0.529D+00
 Gap=     0.176 Goal=   None    Shift=    0.000
 RMSDP=1.18D-08 MaxDP=7.52D-07 DE=-1.12D-10 OVMax= 1.60D-06

 Cycle  16  Pass 1  IDiag  1:
 RMSU=  5.20D-09    CP:  1.00D+00  1.01D+00  3.91D-01  5.80D-01  8.73D-01
                    CP:  7.70D-01  5.91D-01
 E= -1689.26206124994     Delta-E=       -0.000000000018 Rises=F Damp=F
 DIIS: error= 5.89D-08 at cycle   8 NSaved=   8.
 NSaved= 8 IEnMin= 8 EnMin= -1689.26206124994     IErMin= 8 ErrMin= 5.89D-08
 ErrMax= 5.89D-08 EMaxC= 1.00D-01 BMatC= 3.32D-12 BMatP= 2.35D-11
 IDIUse=1 WtCom= 1.00D+00 WtEn= 0.00D+00
 Coeff-Com:  0.420D-04-0.504D-02-0.321D-02-0.261D-02 0.363D-01 0.158D+00
 Coeff-Com:  0.337D+00 0.480D+00
 Coeff:      0.420D-04-0.504D-02-0.321D-02-0.261D-02 0.363D-01 0.158D+00
 Coeff:      0.337D+00 0.480D+00
 Gap=     0.176 Goal=   None    Shift=    0.000
 RMSDP=3.88D-09 MaxDP=1.86D-07 DE=-1.82D-11 OVMax= 5.13D-07

 SCF Done:  E(RB3LYP) =  -1689.26206125     A.U. after   16 cycles
             Convg  =    0.3881D-08             -V/T =  2.0049
 KE= 1.681007366251D+03 PE=-9.756633203675D+03 EE= 3.482007594064D+03
 Leave Link  502 at Mon Sep  5 13:52:31 2022, MaxMem=  209715200 cpu:    5283.6
 (Enter /opt/gaussian/l601.exe)
 Copying SCF densities to generalized density rwf, IOpCl= 0 IROHF=0.

 **********************************************************************

            Population analysis using the SCF density.

 **********************************************************************

 Orbital symmetries:
       Occupied  (A) (A) (A) (A) (A) (A) (A) (A) (A) (A) (A) (A)
                 (A) (A) (A) (A) (A) (A) (A) (A) (A) (A) (A) (A)
                 (A) (A) (A) (A) (A) (A) (A) (A) (A) (A) (A) (A)
                 (A) (A) (A) (A) (A) (A) (A) (A) (A) (A) (A) (A)
                 (A) (A) (A) (A) (A) (A) (A) (A) (A) (A) (A) (A)
                 (A) (A) (A) (A) (A) (A) (A) (A) (A) (A) (A) (A)
                 (A) (A) (A) (A) (A) (A) (A) (A) (A) (A) (A) (A)
                 (A) (A) (A) (A) (A) (A) (A) (A) (A) (A) (A) (A)
                 (A) (A) (A) (A) (A) (A) (A) (A) (A) (A) (A) (A)
                 (A) (A) (A)
       Virtual   (A) (A) (A) (A) (A) (A) (A) (A) (A) (A) (A) (A)
                 (A) (A) (A) (A) (A) (A) (A) (A) (A) (A) (A) (A)
                 (A) (A) (A) (A) (A) (A) (A) (A) (A) (A) (A) (A)
                 (A) (A) (A) (A) (A) (A) (A) (A) (A) (A) (A) (A)
                 (A) (A) (A) (A) (A) (A) (A) (A) (A) (A) (A) (A)
                 (A) (A) (A) (A) (A) (A) (A) (A) (A) (A) (A) (A)
                 (A) (A) (A) (A) (A) (A) (A) (A) (A) (A) (A) (A)
                 (A) (A) (A) (A) (A) (A) (A) (A) (A) (A) (A) (A)
                 (A) (A) (A) (A) (A) (A) (A) (A) (A) (A) (A) (A)
                 (A) (A) (A) (A) (A) (A) (A) (A) (A) (A) (A) (A)
                 (A) (A) (A) (A) (A) (A) (A) (A) (A) (A) (A) (A)
                 (A) (A) (A) (A) (A) (A) (A) (A) (A) (A) (A) (A)
                 (A) (A) (A) (A) (A) (A) (A) (A) (A) (A) (A) (A)
                 (A) (A) (A) (A) (A) (A) (A) (A) (A) (A) (A) (A)
                 (A) (A) (A) (A) (A) (A) (A) (A) (A) (A) (A) (A)
                 (A) (A) (A) (A) (A) (A) (A) (A) (A) (A) (A) (A)
                 (A) (A) (A) (A) (A) (A) (A) (A) (A) (A) (A) (A)
                 (A) (A) (A) (A) (A) (A) (A) (A) (A) (A) (A) (A)
                 (A) (A) (A) (A) (A) (A) (A) (A) (A) (A) (A) (A)
                 (A) (A) (A) (A) (A) (A) (A) (A) (A) (A) (A) (A)
                 (A) (A) (A) (A) (A) (A) (A) (A) (A) (A) (A) (A)
                 (A) (A) (A) (A) (A) (A) (A) (A) (A) (A) (A) (A)
                 (A) (A) (A) (A) (A) (A) (A) (A) (A) (A) (A) (A)
                 (A) (A) (A) (A) (A) (A) (A) (A) (A) (A) (A) (A)
                 (A) (A) (A) (A) (A) (A) (A) (A) (A) (A) (A) (A)
                 (A) (A) (A) (A) (A) (A) (A) (A) (A) (A) (A) (A)
                 (A) (A) (A) (A) (A) (A) (A) (A) (A) (A) (A) (A)
                 (A) (A) (A) (A) (A) (A) (A) (A) (A) (A) (A) (A)
                 (A) (A) (A) (A) (A) (A) (A) (A) (A) (A) (A) (A)
                 (A) (A) (A) (A) (A) (A) (A) (A) (A) (A) (A) (A)
[...]
 1110,0.00002852,0.00001487,-0.00000092,0.00001033,0.00000636,-0.000001
 44,0.00000330,0.00000144,0.00000106,-0.00000708,-0.00000506,-0.0000068
 1,0.00000771,-0.00000018,0.00000524,-0.00001554,-0.00000907,0.00006485
 ,-0.00005802,0.00012905,-0.00025312,0.00000424,-0.00046231,0.00060005,
 0.00031705,0.00078767,-0.00024389,-0.00135825,-0.00214335,-0.00027749,
 0.00010441,0.00000032,-0.00000886,0.00012006,-0.00017966,-0.00429140,-
 0.00461349,0.00936640,-0.02006378,-0.19336516,0.14706479,0.00154357,-0
 .00239481,0.00739784,-0.00229411,0.00507969,0.00352382,-0.00004868,-0.
 00184643,-0.00216856,0.00284228,0.00441162,0.00359949,-0.00000014,0.00
 000043,-0.00000068,-0.00000278,0.00000233,0.00000053,-0.00000039,0.000
 00023,0.00000025,-0.00000091,0.00000034,-0.00000066,-0.00000035,-0.000
 00051,-0.00000107,0.00000046,0.00000036,0.00000161,-0.00000127,-0.0000
 0429,-0.00000090,0.00000255,0.00000836,-0.00000230,-0.00000511,0.00000
 254,0.00000244,-0.00000008,-0.00000105,0.,0.00004094,0.00004396,0.0000
 0577,0.00010232,0.00000010,-0.00066236,-0.00006302,-0.00007092,-0.0000
 6852,0.00000398,-0.00002626,-0.00000717,0.02246013,0.19622515,0.000022
 14,-0.00003408,0.00001769,-0.00004760,0.00004004,-0.00001974,-0.000006
 74,0.00000833,-0.00000534,0.00000757,-0.00000695,-0.00000323,-0.000007
 96,0.00000681,0.00000918,0.00000729,-0.00000748,0.00000332,0.00000119,
 -0.00000064,-0.00000264,-0.00000020,-0.00000023,0.00000061,0.00000058,
 -0.00000143,-0.00000022,-0.00000138,0.00000040,-0.00000103,-0.00000195
 ,0.00000069,0.00000316,-0.00000180,0.00000015,-0.00000857,0.00003785,0
 .00000026,-0.00000654,0.00000296,0.00001433,0.00001374,-0.00000693,0.0
 0001499,0.00000532,0.00000416,0.00000628,-0.00000809,0.00000227,-0.000
 01631,-0.00000849,-0.00000885,0.00001528,0.00000269,0.00001514,-0.0000
 1846,-0.00000464,0.00007622,-0.00000884,0.00039909,-0.00037945,-0.0002
 0227,0.00000488,0.00077992,-0.00044906,0.00016934,0.00231837,-0.001475
 93,-0.00208528,-0.00097665,-0.00023398,-0.00016646,0.00025855,0.000252
 38,-0.00033704,0.00249353,0.01031552,-0.00512117,0.01771007,0.14626468
 ,-0.18076661,-0.00111441,0.00649714,-0.00168522,0.00191389,0.00342466,
 0.00555658,-0.00039282,-0.00219003,-0.00174966,-0.00315820,0.00396114,
 0.00371067,0.00000100,0.00000097,0.00000243,-0.00000247,0.00000080,0.0
 0000098,0.00000076,-0.00000011,-0.00000011,0.00000084,-0.00000005,0.00
 000056,0.00000008,0.00000080,0.00000021,0.00000037,0.00000061,-0.00000
 141,0.00000160,-0.00000343,-0.00000167,-0.00000311,0.00000119,0.000004
 39,-0.00001071,-0.00000609,0.00001248,0.00000052,-0.00000195,-0.000000
 16,0.00001401,-0.00002219,-0.00001022,0.00069772,0.00007734,0.00000050
 ,0.00001753,-0.00003503,0.00003819,-0.00002938,0.00000223,0.00000546,-
 0.02059187,-0.16401865,0.18472461,-0.00005316,0.00002666,-0.00000306,0
 .00010317,-0.00005730,0.00004083,0.00001172,-0.00001596,0.00000101,-0.
 00002457,0.00001125,0.00000688,0.00001558,-0.00002088,-0.00002093,-0.0
 0001833,0.00001633,-0.00000863,-0.00000245,0.00000318,0.00000609,0.000
 00076,-0.00000146,-0.00000155,-0.00000214,0.00000116,0.00000110,0.0000
 0165,-0.00000345,0.00000326,-0.00000093,-0.00000317,-0.00000620,0.0000
 0859,0.00000079,0.00002127,-0.00012403,-0.00001442,0.00001940,-0.00001
 343,0.00006384,-0.00002233,0.00000277,0.00000466,0.00001921,-0.0000086
 9,0.00000336,0.00000546,0.00000429,-0.00001058,-0.00001215,-0.00001171
 ,0.00001353,0.00000346,0.00000633,-0.00002787,-0.00001285,0.00008805,0
 .00001884,-0.00002976,-0.00001891,-0.00000941,0.00001983,-0.00005842,-
 0.00007105,-0.00007470,-0.00022208,0.00083799,-0.00103834,-0.00032315,
 -0.00009529,0.00027472,-0.00003088,-0.00008366,-0.00008588,-0.00293871
 ,-0.00308288,0.00251878,-0.01732219,0.01264363,-0.01344972,-0.24813628
 ,0.08749457,-0.09865664,0.00486967,-0.00272926,0.00300320,0.00176161,-
 0.00063270,0.00038524,-0.00003957,-0.00074550,0.00078624,-0.00000314,0
 .00000089,-0.00000246,-0.00000830,0.00000383,0.00000123,-0.00000067,0.
 00000111,0.00000020,-0.00000068,0.00000118,-0.00000127,0.00000118,0.00
 000019,-0.00000052,0.00000162,0.00000402,0.00000265,-0.00001061,-0.000
 01642,0.00000055,0.00000322,0.00000551,-0.00000686,-0.00000411,0.00000
 798,-0.00000219,0.00000107,-0.00000002,-0.00000115,-0.00002462,-0.0000
 0697,0.00002011,0.00001162,0.00002441,0.00000602,0.00001201,0.00003261
 ,-0.00000410,-0.00004078,-0.00001588,0.00000515,0.00108873,0.00006729,
 0.00025897,0.26100405,0.00000791,-0.00000705,0.00000023,-0.00001571,0.
 00001116,-0.00000452,-0.00000293,0.00000349,-0.00000075,0.00000461,-0.
 00000338,-0.00000194,-0.00000494,0.00000467,0.00000383,0.00000461,-0.0
 0000426,0.00000216,0.00000051,-0.00000030,-0.00000151,-0.00000008,0.00
 000021,0.00000092,0.00000065,-0.00000038,-0.00000093,-0.00000065,0.000
 00099,-0.00000064,-0.00000022,0.00000081,0.00000175,-0.00000072,-0.000
 00045,-0.00000369,0.00002163,-0.00001324,-0.00000044,-0.00000315,0.000
 00212,0.00000261,-0.00000197,0.00000314,0.00000129,0.00000092,0.000001
 83,-0.00000221,0.00000061,-0.00000474,-0.00000168,-0.00000348,0.000005
 12,0.00000018,0.00000598,-0.00000519,-0.00000120,-0.00001817,0.0000035
 7,0.00001956,0.00000848,-0.00000230,0.00001959,0.00002847,-0.00007229,
 -0.00004716,-0.00034839,0.00048854,-0.00014994,-0.00005538,-0.00011438
 ,0.00003408,0.00001773,-0.00000225,-0.00006995,-0.00269822,0.00399727,
 0.00427811,-0.00935759,0.00692724,-0.00462431,0.08758881,-0.08829853,0
 .05639089,0.02014188,-0.00313220,0.00514240,-0.00005943,0.00062019,0.0
 0735520,-0.00164719,-0.00075870,0.00039408,0.00000019,0.00000035,0.000
 00077,-0.00000045,0.00000026,0.00000028,0.00000021,-0.00000025,-0.0000
 0007,0.00000002,-0.00000021,0.00000030,-0.00000053,-0.00000006,-0.0000
 0027,-0.00000003,-0.00000067,-0.00000036,0.00000108,-0.00000058,-0.000
 00038,-0.00000086,-0.00000029,0.00000142,-0.00000321,-0.00000082,0.000
 00249,-0.00000002,-0.00000092,0.00000021,-0.00000148,0.00000319,0.0000
 0003,0.00003988,0.00002272,0.00001861,0.00000141,0.00000032,-0.0000258
 7,-0.00001077,0.00000377,0.00000499,0.00046882,-0.00156850,-0.00259433
 ,-0.09412419,0.08388452,-0.00001352,0.00000104,-0.00000083,0.00002177,
 -0.00000554,0.00000530,0.00000327,-0.00000398,0.00000221,-0.00000562,0
 .00000284,0.00000094,0.00000210,-0.00000460,-0.00000575,-0.00000410,0.
 00000291,-0.00000179,-0.00000056,0.00000126,0.00000101,0.00000050,-0.0
 0000085,0.00000021,-0.00000025,-0.00000027,-0.00000020,-0.00000008,-0.
 00000062,0.00000078,-0.00000073,-0.00000055,-0.00000104,0.00000281,0.0
 0000007,0.00000550,-0.00001789,-0.00001405,-0.00000585,-0.00000057,0.0
 0001463,0.00000098,0.00000086,0.00000260,0.00000556,0.00000069,0.00000
 259,0.00000309,0.00000098,-0.00000392,-0.00000255,-0.00000644,0.000006
 48,-0.00000018,0.00000199,-0.00001093,-0.00000753,0.00001072,0.0000029
 1,0.00000592,0.00000545,0.00002006,-0.00000445,-0.00002847,-0.00004325
 ,0.00000153,0.00040523,0.00000926,0.00045264,0.00016119,-0.00001420,-0
 .00008604,0.00003132,0.00002925,0.00001915,0.00187378,0.00402130,0.004
 20651,0.00854077,-0.00373733,0.00688130,-0.09872436,0.05615162,-0.0977
 1152,-0.02050668,0.00434917,-0.00428941,0.00023074,0.00753195,0.000200
 73,0.00162777,0.00033201,-0.00058600,-0.00000047,0.00000043,-0.0000004
 8,-0.00000226,0.00000131,0.00000048,-0.00000001,0.00000035,0.00000015,
 -0.00000018,0.00000045,-0.00000039,0.00000032,0.00000013,-0.00000034,0
 .00000050,0.00000104,0.00000077,-0.00000178,-0.00000414,0.00000005,0.0
 0000013,0.00000169,-0.00000146,-0.00000080,0.00000229,0.00000133,-0.00
 000018,-0.00000006,-0.00000007,0.00000267,0.00000027,0.00000249,0.0000
 3885,-0.00000065,-0.00001978,0.00000869,-0.00000576,-0.00000530,0.0000
 0828,0.00000957,-0.00000183,-0.00018851,-0.00254202,-0.00165743,0.1062
 9444,-0.06331247,0.09455816,-0.00004786,0.00002164,-0.00000193,0.00008
 984,-0.00004580,0.00002666,0.00001294,-0.00001711,0.00000423,-0.000022
 95,0.00001272,0.00000660,0.00001448,-0.00001938,-0.00002158,-0.0000174
 2,0.00001536,-0.00000835,-0.00000238,0.00000289,0.00000621,0.00000112,
 -0.00000154,-0.00000106,-0.00000177,0.00000089,0.00000097,0.00000150,-
 0.00000314,0.00000332,-0.00000068,-0.00000296,-0.00000587,0.00000812,0
 .00000075,0.00002031,-0.00009930,-0.00000961,0.00000649,-0.00000432,0.
 00004345,-0.00001036,0.00000338,0.00000192,0.00001226,-0.00000556,0.00
 000212,0.00000735,0.00000216,-0.00000364,-0.00000666,-0.00000699,0.000
 00661,0.00000159,-0.00000091,-0.00001776,-0.00001114,0.00007068,0.0000
 1612,-0.00001012,-0.00001967,0.00001134,0.00002498,-0.00008131,-0.0000
 4894,-0.00001415,0.00019514,-0.00005014,0.00018600,-0.00003643,-0.0000
 2442,-0.00001367,0.00002958,-0.00002693,0.00001548,-0.00004919,0.00009
 285,-0.00015098,0.00142669,-0.00025917,0.00004408,0.00111632,0.0010214
 0,-0.00136945,-0.26316978,-0.08696556,0.07820445,-0.03099086,-0.002231
 71,0.00094544,-0.00090447,0.00154797,-0.00205498,-0.00000222,0.0000005
 5,-0.00000282,-0.00000597,0.00000289,0.00000077,-0.00000079,0.00000116
 ,0.00000040,-0.00000102,0.00000128,-0.00000164,0.00000130,-0.00000002,
 -0.00000080,0.00000146,0.00000348,0.00000262,-0.00000770,-0.00001147,0
 .00000075,0.00000269,0.00000494,-0.00000589,0.00000039,0.00000670,-0.0
 0000287,0.00000047,0.00000075,-0.00000058,-0.00001496,-0.00000269,0.00
 001417,0.00001060,-0.00000486,-0.00000978,0.00002466,0.00003624,0.0000
 4149,-0.00000852,-0.00000242,-0.00000439,-0.00004171,0.00012067,-0.000
 09097,0.00044556,-0.00022602,0.00039465,0.29276705,-0.00001362,0.00001
 398,-0.00000637,0.00003587,-0.00002991,0.00002135,0.00000464,-0.000005
 03,0.00000053,-0.00000909,0.00000449,0.00000188,0.00000421,-0.00000695
 ,-0.00000848,-0.00000617,0.00000504,-0.00000290,-0.00000097,0.00000153
 ,0.00000203,0.00000050,-0.00000080,0.00000003,-0.00000063,0.00000015,-
 0.00000020,0.00000033,-0.00000089,0.00000120,-0.00000048,-0.00000076,-
 0.00000191,0.00000366,-0.00000008,0.00000841,-0.00005049,0.00000405,-0
 .00001008,0.00000005,0.00001927,-0.00000387,0.00000209,0.00000152,0.00
 000673,-0.00000067,0.00000201,0.00000443,0.00000118,-0.00000311,-0.000
 00297,-0.00000589,0.00000533,-0.00000006,0.00000063,-0.00001042,-0.000
 00761,0.00004878,-0.00001958,0.00011172,-0.00011842,0.00003061,-0.0001
 1715,0.00024796,0.00006317,0.00005225,0.00021533,-0.00069789,-0.001006
 32,-0.00024704,-0.00002624,0.00005014,0.00006544,0.00006018,-0.0001050
 5,0.00050671,-0.00061684,0.00020234,0.00057020,0.00081876,0.00630811,-
 0.01975669,-0.00126794,0.00681263,-0.08735254,-0.08328548,0.03925635,0
 .01557900,0.00382346,-0.00741937,0.00316214,0.00536819,0.00524551,-0.0
 0000061,0.00000054,-0.00000104,-0.00000283,0.00000139,0.00000063,-0.00
 000015,0.00000047,0.00000009,-0.00000034,0.00000054,-0.00000054,0.0000
 0024,0.00000004,-0.00000059,0.00000054,0.00000100,0.00000120,-0.000003
 43,-0.00000499,-0.00000015,0.00000070,0.00000212,-0.00000258,0.0000001
 8,0.00000359,-0.00000051,-0.00000024,0.00000009,-0.00000012,0.00001475
 ,-0.00000286,-0.00000200,0.00000535,-0.00000020,-0.00005782,-0.0000276
 0,-0.00001420,-0.00003165,-0.00000602,-0.00000940,-0.00000268,-0.00103
 282,-0.00049188,0.00010905,0.00036011,-0.00115376,-0.00187007,0.087358
 24,0.07702774,0.00000624,0.00000045,-0.00000339,-0.00000299,-0.0000044
 8,0.00001000,-0.00000070,0.00000123,-0.00000167,0.00000037,-0.00000106
 ,-0.00000129,-0.00000217,0.00000163,0.00000016,0.00000152,-0.00000137,
 0.00000069,-0.00000009,0.00000002,-0.00000049,0.00000016,0.,0.00000066
 ,0.00000034,-0.00000027,-0.00000080,-0.00000040,0.00000054,0.00000005,
 -0.00000036,0.00000053,0.00000056,0.00000059,-0.00000062,0.00000001,-0
 .00000530,0.00000111,-0.00000413,-0.00000273,0.00000474,-0.00000230,-0
 .00000056,0.00000201,0.00000280,0.00000050,0.00000185,-0.00000148,0.00
 000076,-0.00000380,-0.00000191,-0.00000170,0.00000298,0.00000046,0.000
 00303,-0.00000336,-0.00000183,0.00002416,-0.00002068,0.00016098,-0.000
 16198,0.00000108,-0.00006833,0.00022366,0.00002705,-0.00003894,0.00026
 605,-0.00089533,-0.00074547,-0.00023825,-0.00005144,0.00000463,0.00011
 740,0.00009183,-0.00009140,-0.00072910,-0.00013130,-0.00039413,-0.0008
 3600,0.00640421,0.00039470,0.01995234,0.00754030,-0.00043714,0.0782869
 1,0.03960807,-0.07732848,-0.01705245,-0.00870787,0.00387285,-0.0037005
 6,0.00544787,0.00459696,0.00000009,0.00000039,0.00000024,-0.00000114,0
 .00000024,0.00000051,0.00000017,-0.00000013,0.00000001,-0.00000007,-0.
 00000005,0.00000015,-0.00000029,-0.00000006,-0.00000033,0.00000008,-0.
 00000029,0.00000014,-0.00000022,-0.00000173,-0.00000017,-0.00000138,-0
 .00000043,0.00000083,-0.00000211,-0.00000130,0.00000162,-0.00000027,-0
 .00000060,0.00000026,0.00001199,-0.00000197,-0.00000598,-0.00000657,0.
 00002666,0.00002677,-0.00000947,-0.00000287,-0.00000042,0.00000020,-0.
 00000732,-0.00000249,0.00104450,0.00015348,-0.00037540,-0.00022659,-0.
 00185829,-0.00112628,-0.07644549,-0.04771347,0.07112913,0.00001299,-0.
 00002143,0.00001046,-0.00003787,0.00003898,-0.00003082,-0.00000642,0.0
 0000787,-0.00000131,0.00001053,-0.00000594,-0.00000153,-0.00000577,0.0
 0000667,0.00001130,0.00000649,-0.00000722,0.00000339,0.00000176,-0.000
 00112,-0.00000226,-0.00000089,0.00000019,-0.00000047,0.00000012,-0.000
 00105,0.00000119,-0.00000083,0.00000019,-0.00000163,-0.00000015,0.0000
 0014,0.00000257,-0.00000433,0.00000122,-0.00001102,0.00004961,-0.00001
 605,0.00001639,0.00000121,-0.00001022,0.00000559,-0.00000187,-0.000000
 74,-0.00000698,0.00000025,-0.00000193,-0.00000181,-0.00000021,0.000002
 15,0.00000204,0.00000110,-0.00000017,0.00000136,0.00000242,0.00000271,
 0.00000591,-0.00009335,0.00007958,-0.00012940,0.00008646,-0.00001708,0
 .00004947,0.00011835,0.00009992,-0.00006036,0.00034070,-0.00024666,0.0
 0031346,-0.00023833,-0.00068968,-0.00040921,-0.00016284,-0.00001820,0.
 00031510,0.00456984,-0.00309102,0.00252709,0.00075992,-0.00112410,0.00
 082804,-0.00025947,0.00003339,0.00009257,-0.00228699,-0.00172738,0.001
 32738,-0.03394678,0.00770981,-0.00890227,-0.20535093,0.09675066,-0.096
 94372,0.00000079,0.00000011,0.00000167,0.00000277,-0.00000079,-0.00000
 092,0.00000069,0.00000003,-0.00000017,0.00000107,-0.00000007,0.0000005
 0,0.00000047,0.00000072,0.00000094,-0.00000020,-0.00000030,-0.00000197
 ,0.00000349,0.00000437,0.00000023,0.00000148,-0.00000243,0.00000315,-0
 .00000069,-0.00000150,0.00000032,0.00000098,0.00000049,-0.00000031,0.0
 0001243,0.00000633,-0.00000837,-0.00000805,-0.00000244,0.00002366,-0.0
 0052750,-0.00078702,0.00030591,0.00002926,-0.00005104,-0.00001379,0.00
 032781,-0.00024305,0.00018829,-0.00000075,0.00024134,-0.00016701,-0.00
 068140,0.00044790,-0.00051208,0.23727267,0.00006961,-0.00003157,-0.000
 01794,-0.00011772,0.00005093,-0.00000706,-0.00001671,0.00002575,-0.000
 00248,0.00002873,-0.00001619,-0.00000998,-0.00002222,0.00002596,0.0000
 2647,0.00002336,-0.00002247,0.00001106,0.00000292,-0.00000279,-0.00000
 869,-0.00000057,0.00000049,0.00000236,0.00000213,-0.00000240,-0.000002
 22,-0.00000287,0.00000432,-0.00000375,-0.00000108,0.00000554,0.0000087
 6,-0.00000856,-0.00000165,-0.00002443,0.00010547,0.00002535,-0.0000631
 2,0.00001307,-0.00006087,0.00000483,-0.00000271,-0.00000352,-0.0000112
 7,0.00001151,-0.00000064,-0.00000671,-0.00000234,0.00000283,0.00000917
 ,0.00000618,-0.00000783,-0.00000455,-0.00000124,0.00002233,0.00000649,
 -0.00002396,-0.00006343,0.00011402,-0.00008136,0.00007190,-0.00013803,
 0.00000398,0.00021813,-0.00008972,0.00040463,-0.00090267,-0.00130451,-
 0.00032679,-0.00034375,0.00093143,-0.00018259,0.00013035,-0.00047185,0
 .01774340,-0.00283319,0.00994585,-0.00216516,0.00025285,0.00580774,-0.
 00052489,-0.00019643,-0.00033499,-0.00345569,0.00549730,0.00494167,-0.
 01056578,0.00541302,-0.00968529,0.09643250,-0.10800888,0.06769456,0.00
 000333,0.00000007,0.00000311,0.00000737,-0.00000320,-0.00000053,0.0000
 0170,-0.00000111,-0.00000061,0.00000178,-0.00000121,0.00000205,-0.0000
 0201,0.00000061,0.00000003,-0.00000202,-0.00000538,-0.00000259,0.00001
 044,0.00001731,-0.00000224,-0.00000503,-0.00000548,0.00000758,0.000002
 39,-0.00000750,0.00000397,-0.00000244,-0.00000125,0.00000129,0.0000039
 0,-0.00002483,-0.00001449,0.00004891,-0.00003877,-0.00013254,-0.000811
 64,-0.00060847,-0.00064104,-0.00002813,-0.00002130,0.00002506,0.001032
 59,-0.00052718,0.00031147,0.00011936,-0.00083973,-0.00092422,-0.000359
 65,0.00038995,0.00009179,-0.09736614,0.10242867,-0.00003181,-0.0000206
 6,0.00000941,0.00005547,0.00000022,0.00000618,0.00000912,-0.00001656,0
 .00000270,-0.00001623,0.00000796,0.00000270,0.00000569,-0.00001297,-0.
 00001833,-0.00001129,0.00000816,-0.00000501,-0.00000178,0.00000288,0.0
 0000358,0.00000171,-0.00000211,0.00000117,-0.00000075,-0.00000026,-0.0
 0000141,-0.00000005,-0.00000119,0.00000373,-0.00000187,-0.00000124,-0.
 00000337,0.00000942,-0.00000019,0.00001738,-0.00009805,-0.00000127,0.0
 0002275,0.00000782,0.00004760,0.00000005,-0.00000057,0.00000587,0.0000
 1141,-0.00000412,0.00000448,0.00000413,0.00000395,-0.00001082,-0.00000
 963,-0.00000907,0.00001197,0.00000316,0.00000626,-0.00002284,-0.000013
 04,0.00023021,0.00002874,0.00048673,-0.00058614,-0.00009695,-0.0000974
 3,0.00068960,0.00025895,-0.00073040,-0.00219657,-0.00195947,-0.0006041
 9,-0.00018206,-0.00059004,0.00019257,0.00057644,-0.00003013,-0.0002680
 9,-0.01595838,0.01071859,-0.00429839,0.00119605,0.00589438,0.00052731,
 0.00091017,0.00009783,-0.00052790,0.00288032,0.00460395,0.00658862,0.0
 0859762,-0.00883674,0.00446405,-0.09623305,0.06644061,-0.10831548,-0.0
 0000233,0.00000169,-0.00000112,-0.00000853,0.00000297,0.00000159,0.000
 00004,0.00000095,0.00000031,-0.00000104,0.00000120,-0.00000112,0.00000
 013,-0.00000026,-0.00000186,0.00000164,0.00000247,0.00000308,-0.000005
 96,-0.00000800,-0.00000217,-0.00000272,0.00000313,-0.00000642,-0.00000
 391,0.00000329,0.00000036,-0.00000023,-0.00000077,0.,0.00000852,0.0000
 1098,-0.00000283,0.00001399,0.00000492,0.00005469,-0.00032342,0.000031
 03,0.00049786,-0.00000540,-0.00000963,-0.00000564,-0.00092501,0.000267
 32,-0.00065975,-0.00003745,-0.00097305,-0.00084026,0.00027425,0.000178
 94,0.00042908,0.10116942,-0.07604592,0.10307924\\-0.00000003,0.0000057
 8,-0.00000342,-0.00000236,-0.00001148,0.00000650,-0.00000190,0.0000066
 5,0.00000892,0.00001222,-0.00000140,-0.00001016,-0.00001137,0.00000861
 ,-0.00000358,0.00000617,-0.00000240,0.00000438,0.00000085,0.00000138,-
 0.00000009,-0.00000008,0.00000063,-0.00000069,-0.00000247,0.00000174,-
 0.00000144,0.00000268,-0.00000299,-0.00000197,0.00000002,-0.00000066,-
 0.00000205,-0.00000478,-0.00000637,0.00000682,-0.00000297,-0.00000059,
 -0.00000611,0.00000200,0.00000836,0.00000868,-0.00000299,-0.00000784,-
 0.00000319,0.00000503,0.00000713,0.00001219,-0.00000046,-0.00000809,-0
 .00000298,-0.00000780,-0.00000308,-0.00000005,0.00000545,0.00000474,-0
 .00000209,-0.00000137,-0.00000278,0.00000358,0.00000179,0.00000047,0.0
 0000187,-0.00000115,0.00000039,-0.00000168,0.00000783,0.00000134,-0.00
 000179,0.00000072,0.00000049,0.00000137,0.00000014,-0.00000006,-0.0000
 0546,-0.00000557,-0.00000046,0.00000029,-0.00000021,0.00000091,0.00000
 017,-0.00000198,-0.00000352,0.00000277,0.00000531,0.00000354,-0.000006
 46,-0.00000111,-0.00000601,0.00000249,-0.00000268,0.00000079,-0.000002
 32,-0.00000250,-0.00000013,-0.00000421,0.00000193,0.00000188,-0.000001
 99,0.00000121,-0.00000079,-0.00000219,0.00000067,-0.00000160,0.0000004
 2,0.00000010,-0.00000123,0.00000121,-0.00000069,0.00000081,-0.00000040
 ,0.00000263,-0.00000065,0.00000054,-0.00000258,0.00000061,-0.00000001,
 -0.00000170,0.00000390,0.00000187,-0.00000010,0.00000284,0.00000371,0.
 00000260,0.00000238,-0.00000138,-0.00000219,0.00000007,0.00000106,-0.0
 0000306,-0.00000212,-0.00000034,0.00000257,0.00000066,0.00000065,0.000
 00295,0.00000060,-0.00000194,-0.00000169,-0.00000015,0.00000049,-0.000
 00319,-0.00000124,-0.00000118,0.00000413,-0.00000108,-0.00000083\\\@


 THE DIFFERENCE BETWEEN A NOOSE AND A HALO IS ONLY 12 INCHES.
 Job cpu time:  0 days 19 hours 22 minutes  1.9 seconds.
 File lengths (MBytes):  RWF=   1611 Int=      0 D2E=      0 Chk=     23 Scr=      1
 Normal termination of Gaussian 09 at Mon Sep  5 20:09:44 2022.
