 Entering Gaussian System, Link 0=g09
 Input=Mol22.gjf
 Output=Mol22.log
 Initial command:
 /opt/gaussian/l1.exe /home/scr/lqcapf-6/Gau-202534.inp -scrdir=/home/scr/lqcapf-6/
 Entering Link 1 = /opt/gaussian/l1.exe PID=    202536.
  
 Copyright (c) 1988,1990,1992,1993,1995,1998,2003,2009,2011,
            Gaussian, Inc.  All Rights Reserved.
  
 This is part of the Gaussian(R) 09 program.  It is based on
 the Gaussian(R) 03 system (copyright 2003, Gaussian, Inc.),
 the Gaussian(R) 98 system (copyright 1998, Gaussian, Inc.),
 the Gaussian(R) 94 system (copyright 1995, Gaussian, Inc.),
 the Gaussian 92(TM) system (copyright 1992, Gaussian, Inc.),
 the Gaussian 90(TM) system (copyright 1990, Gaussian, Inc.),
 the Gaussian 88(TM) system (copyright 1988, Gaussian, Inc.),
 the Gaussian 86(TM) system (copyright 1986, Carnegie Mellon
 University), and the Gaussian 82(TM) system (copyright 1983,
 Carnegie Mellon University). Gaussian is a federally registered
 trademark of Gaussian, Inc.
  
 This software contains proprietary and confidential information,
 including trade secrets, belonging to Gaussian, Inc.
  
 This software is provided under written license and may be
 used, copied, transmitted, or stored only in accord with that
 written license.
  
 The following legend is applicable only to US Government
 contracts under FAR:
  
                    RESTRICTED RIGHTS LEGEND
  
 Use, reproduction and disclosure by the US Government is
 subject to restrictions as set forth in subparagraphs (a)
 and (c) of the Commercial Computer Software - Restricted
 Rights clause in FAR 52.227-19.
  
 Gaussian, Inc.
 340 Quinnipiac St., Bldg. 40, Wallingford CT 06492
  
  
 ---------------------------------------------------------------
 Warning -- This program may not be used in any manner that
 competes with the business of Gaussian, Inc. or will provide
 assistance to any competitor of Gaussian, Inc.  The licensee
 of this program is prohibited from giving any competitor of
 Gaussian, Inc. access to this program.  By using this program,
 the user acknowledges that Gaussian, Inc. is engaged in the
 business of creating and licensing software in the field of
 computational chemistry and represents and warrants to the
 licensee that it is not a competitor of Gaussian, Inc. and that
 it will not use this program in any manner prohibited above.
 ---------------------------------------------------------------
  

 Cite this work as:
 Gaussian 09, Revision C.01,
 M. J. Frisch, G. W. Trucks, H. B. Schlegel, G. E. Scuseria, 
 M. A. Robb, J. R. Cheeseman, G. Scalmani, V. Barone, B. Mennucci, 
 G. A. Petersson, H. Nakatsuji, M. Caricato, X. Li, H. P. Hratchian, 
 A. F. Izmaylov, J. Bloino, G. Zheng, J. L. Sonnenberg, M. Hada, 
 M. Ehara, K. Toyota, R. Fukuda, J. Hasegawa, M. Ishida, T. Nakajima, 
 Y. Honda, O. Kitao, H. Nakai, T. Vreven, J. A. Montgomery, Jr., 
 J. E. Peralta, F. Ogliaro, M. Bearpark, J. J. Heyd, E. Brothers, 
 K. N. Kudin, V. N. Staroverov, T. Keith, R. Kobayashi, J. Normand, 
 K. Raghavachari, A. Rendell, J. C. Burant, S. S. Iyengar, J. Tomasi, 
 M. Cossi, N. Rega, J. M. Millam, M. Klene, J. E. Knox, J. B. Cross, 
 V. Bakken, C. Adamo, J. Jaramillo, R. Gomperts, R. E. Stratmann, 
 O. Yazyev, A. J. Austin, R. Cammi, C. Pomelli, J. W. Ochterski, 
 R. L. Martin, K. Morokuma, V. G. Zakrzewski, G. A. Voth, 
 P. Salvador, J. J. Dannenberg, S. Dapprich, A. D. Daniels, 
 O. Farkas, J. B. Foresman, J. V. Ortiz, J. Cioslowski, 
 and D. J. Fox, Gaussian, Inc., Wallingford CT, 2010.
 
 ******************************************
 Gaussian 09:  EM64L-G09RevC.01 23-Sep-2011
                 4-Sep-2022 
 ******************************************
 %nprocshared=8
 Will use up to    8 processors via shared memory.
 %mem=1600MB
 -------------------------
 #p opt freq b3lyp/cc-pvdz
 -------------------------
 1/14=-1,18=20,19=15,26=3,38=1/1,3;
 2/9=110,12=2,17=6,18=5,40=1/2;
 3/5=16,11=2,16=1,25=1,30=1,71=1,74=-5/1,2,3;
 4//1;
 5/5=2,38=5/2;
 6/7=2,8=2,9=2,10=2,28=1/1;
 7//1,2,3,16;
 1/14=-1,18=20,19=15/3(2);
 2/9=110/2;
 99//99;
 2/9=110/2;
 3/5=16,11=2,16=1,25=1,30=1,71=1,74=-5/1,2,3;
 4/5=5,16=3/1;
 5/5=2,38=5/2;
 7//1,2,3,16;
 1/14=-1,18=20,19=15/3(-5);
 2/9=110/2;
 6/7=2,8=2,9=2,10=2,19=2,28=1/1;
 99/9=1/99;
 Leave Link    1 at Sun Sep  4 06:31:20 2022, MaxMem=  209715200 cpu:       0.2
 (Enter /opt/gaussian/l101.exe)
 ---------
 Mol22.log
 ---------
 Charge =  0 Multiplicity = 1
 Symbolic Z-Matrix:
 C                     1.69596   5.1501   -0.12377 
 C                     0.39486   4.61369   0.49228 
 C                     0.15598   5.247     1.87007 
 C                     0.38518   3.07766   0.60681 
 C                     0.39797   2.35081  -0.74204 
 N                     0.26209   0.89053  -0.6055 
 C                     1.30918   0.01456  -0.5879 
 O                     1.16021  -1.186    -0.40794 
 C                     2.70254   0.59717  -0.78634 
 N                     3.72068  -0.4085   -0.82028 
 N                     4.34506  -0.68306  -2.00175 
 N                     5.20788  -1.59432  -1.82334 
 C                     5.18893  -1.97513  -0.49141 
 C                     5.94951  -2.92412   0.19102 
 C                     5.70734  -3.07662   1.53372 
 C                     4.72069  -2.3043    2.18731 
 C                     3.96404  -1.37084   1.52101 
 C                     4.22208  -1.2162    0.15627 
 C                    -1.07      0.37748  -0.44465 
 C                    -1.51263  -0.08009   0.78715 
 C                    -2.80835  -0.54597   0.93204 
 C                    -3.68988  -0.5623   -0.14794 
 C                    -3.23155  -0.10324  -1.38145 
 C                    -1.9335    0.35766  -1.52935 
 C                    -5.0786   -1.06227   0.01043 
 C                    -5.36104  -2.23681   0.70506 
 C                    -6.67358  -2.6644    0.82549 
 C                    -7.67727  -1.90718   0.24422 
 N                    -7.41779  -0.78288  -0.42022 
 C                    -6.15888  -0.37059  -0.53384 
 H                     2.55475   4.85059   0.47018 
 H                     1.84944   4.79757  -1.13732 
 H                     1.68311   6.23355  -0.15981 
 H                    -0.43101   4.905    -0.15494 
 H                     0.95234   4.98327   2.55964 
 H                     0.12337   6.32843   1.79979 
 H                    -0.78206   4.91288   2.2995 
 H                     1.23663   2.75692   1.20359 
 H                    -0.50431   2.771     1.14696 
 H                    -0.42956   2.6971   -1.34664 
 H                     1.29513   2.57753  -1.29513 
 H                     2.76156   1.11166  -1.7332 
 H                     2.91836   1.31276  -0.00218 
 H                     6.6883   -3.50266  -0.32579 
 H                     6.2657   -3.7942    2.10171 
 H                     4.55439  -2.46129   3.23548 
 H                     3.19995  -0.81148   2.02103 
 H                    -0.84273  -0.08167   1.62355 
 H                    -3.14093  -0.88182   1.89502 
 H                    -3.87962  -0.13394  -2.23555 
 H                    -1.58482   0.68281  -2.49039 
 H                    -4.56285  -2.81641   1.12663 
 H                    -6.91155  -3.56822   1.34956 
 H                    -8.70518  -2.1989    0.30684 
 H                    -6.00956   0.54882  -1.06246 
 
 NAtoms=     55 NQM=        0 NQMF=       0 NMMI=     55 NMMIF=      0
                NMic=       0 NMicF=      0.
                    Isotopes and Nuclear Properties:
 (Nuclear quadrupole moments (NQMom) in fm**2, nuclear magnetic moments (NMagM)
  in nuclear magnetons)

  Atom         1           2           3           4           5           6           7           8           9          10
 IAtWgt=          12          12          12          12          12          14          12          16          12          14
 AtmWgt=  12.0000000  12.0000000  12.0000000  12.0000000  12.0000000  14.0030740  12.0000000  15.9949146  12.0000000  14.0030740
 NucSpn=           0           0           0           0           0           2           0           0           0           2
 AtZEff=   0.0000000   0.0000000   0.0000000   0.0000000   0.0000000   0.0000000   0.0000000   0.0000000   0.0000000   0.0000000
 NQMom=    0.0000000   0.0000000   0.0000000   0.0000000   0.0000000   2.0440000   0.0000000   0.0000000   0.0000000   2.0440000
 NMagM=    0.0000000   0.0000000   0.0000000   0.0000000   0.0000000   0.4037610   0.0000000   0.0000000   0.0000000   0.4037610

  Atom        11          12          13          14          15          16          17          18          19          20
 IAtWgt=          14          14          12          12          12          12          12          12          12          12
 AtmWgt=  14.0030740  14.0030740  12.0000000  12.0000000  12.0000000  12.0000000  12.0000000  12.0000000  12.0000000  12.0000000
 NucSpn=           2           2           0           0           0           0           0           0           0           0
 AtZEff=   0.0000000   0.0000000   0.0000000   0.0000000   0.0000000   0.0000000   0.0000000   0.0000000   0.0000000   0.0000000
 NQMom=    2.0440000   2.0440000   0.0000000   0.0000000   0.0000000   0.0000000   0.0000000   0.0000000   0.0000000   0.0000000
 NMagM=    0.4037610   0.4037610   0.0000000   0.0000000   0.0000000   0.0000000   0.0000000   0.0000000   0.0000000   0.0000000

  Atom        21          22          23          24          25          26          27          28          29          30
 IAtWgt=          12          12          12          12          12          12          12          12          14          12
 AtmWgt=  12.0000000  12.0000000  12.0000000  12.0000000  12.0000000  12.0000000  12.0000000  12.0000000  14.0030740  12.0000000
 NucSpn=           0           0           0           0           0           0           0           0           2           0
 AtZEff=   0.0000000   0.0000000   0.0000000   0.0000000   0.0000000   0.0000000   0.0000000   0.0000000   0.0000000   0.0000000
 NQMom=    0.0000000   0.0000000   0.0000000   0.0000000   0.0000000   0.0000000   0.0000000   0.0000000   2.0440000   0.0000000
 NMagM=    0.0000000   0.0000000   0.0000000   0.0000000   0.0000000   0.0000000   0.0000000   0.0000000   0.4037610   0.0000000

  Atom        31          32          33          34          35          36          37          38          39          40
 IAtWgt=           1           1           1           1           1           1           1           1           1           1
 AtmWgt=   1.0078250   1.0078250   1.0078250   1.0078250   1.0078250   1.0078250   1.0078250   1.0078250   1.0078250   1.0078250
 NucSpn=           1           1           1           1           1           1           1           1           1           1
 AtZEff=   0.0000000   0.0000000   0.0000000   0.0000000   0.0000000   0.0000000   0.0000000   0.0000000   0.0000000   0.0000000
 NQMom=    0.0000000   0.0000000   0.0000000   0.0000000   0.0000000   0.0000000   0.0000000   0.0000000   0.0000000   0.0000000
 NMagM=    2.7928460   2.7928460   2.7928460   2.7928460   2.7928460   2.7928460   2.7928460   2.7928460   2.7928460   2.7928460

  Atom        41          42          43          44          45          46          47          48          49          50
 IAtWgt=           1           1           1           1           1           1           1           1           1           1
 AtmWgt=   1.0078250   1.0078250   1.0078250   1.0078250   1.0078250   1.0078250   1.0078250   1.0078250   1.0078250   1.0078250
 NucSpn=           1           1           1           1           1           1           1           1           1           1
 AtZEff=   0.0000000   0.0000000   0.0000000   0.0000000   0.0000000   0.0000000   0.0000000   0.0000000   0.0000000   0.0000000
 NQMom=    0.0000000   0.0000000   0.0000000   0.0000000   0.0000000   0.0000000   0.0000000   0.0000000   0.0000000   0.0000000
 NMagM=    2.7928460   2.7928460   2.7928460   2.7928460   2.7928460   2.7928460   2.7928460   2.7928460   2.7928460   2.7928460

  Atom        51          52          53          54          55
 IAtWgt=           1           1           1           1           1
 AtmWgt=   1.0078250   1.0078250   1.0078250   1.0078250   1.0078250
 NucSpn=           1           1           1           1           1
 AtZEff=   0.0000000   0.0000000   0.0000000   0.0000000   0.0000000
 NQMom=    0.0000000   0.0000000   0.0000000   0.0000000   0.0000000
 NMagM=    2.7928460   2.7928460   2.7928460   2.7928460   2.7928460
 Leave Link  101 at Sun Sep  4 06:31:20 2022, MaxMem=  209715200 cpu:       0.9
 (Enter /opt/gaussian/l103.exe)

 GradGradGradGradGradGradGradGradGradGradGradGradGradGradGradGradGradGrad
 Berny optimization.
 Initialization pass.
                           ----------------------------
                           !    Initial Parameters    !
                           ! (Angstroms and Degrees)  !
 --------------------------                            --------------------------
 ! Name  Definition              Value          Derivative Info.                !
 --------------------------------------------------------------------------------
 ! R1    R(1,2)                  1.5363         estimate D2E/DX2                !
 ! R2    R(1,31)                 1.0863         estimate D2E/DX2                !
 ! R3    R(1,32)                 1.084          estimate D2E/DX2                !
 ! R4    R(1,33)                 1.0841         estimate D2E/DX2                !
 ! R5    R(2,3)                  1.5351         estimate D2E/DX2                !
 ! R6    R(2,4)                  1.5403         estimate D2E/DX2                !
 ! R7    R(2,34)                 1.089          estimate D2E/DX2                !
 ! R8    R(3,35)                 1.0859         estimate D2E/DX2                !
 ! R9    R(3,36)                 1.0842         estimate D2E/DX2                !
 ! R10   R(3,37)                 1.0844         estimate D2E/DX2                !
 ! R11   R(4,5)                  1.5323         estimate D2E/DX2                !
 ! R12   R(4,38)                 1.0881         estimate D2E/DX2                !
 ! R13   R(4,39)                 1.0849         estimate D2E/DX2                !
 ! R14   R(5,6)                  1.4729         estimate D2E/DX2                !
 ! R15   R(5,40)                 1.0818         estimate D2E/DX2                !
 ! R16   R(5,41)                 1.0781         estimate D2E/DX2                !
 ! R17   R(6,7)                  1.3653         estimate D2E/DX2                !
 ! R18   R(6,19)                 1.4365         estimate D2E/DX2                !
 ! R19   R(7,8)                  1.2231         estimate D2E/DX2                !
 ! R20   R(7,9)                  1.5232         estimate D2E/DX2                !
 ! R21   R(9,10)                 1.4315         estimate D2E/DX2                !
 ! R22   R(9,42)                 1.0792         estimate D2E/DX2                !
 ! R23   R(9,43)                 1.0833         estimate D2E/DX2                !
 ! R24   R(10,11)                1.3642         estimate D2E/DX2                !
 ! R25   R(10,18)                1.3629         estimate D2E/DX2                !
 ! R26   R(11,12)                1.2676         estimate D2E/DX2                !
 ! R27   R(12,13)                1.3854         estimate D2E/DX2                !
 ! R28   R(13,14)                1.3946         estimate D2E/DX2                !
 ! R29   R(13,18)                1.3893         estimate D2E/DX2                !
 ! R30   R(14,15)                1.3729         estimate D2E/DX2                !
 ! R31   R(14,44)                1.0713         estimate D2E/DX2                !
 ! R32   R(15,16)                1.4132         estimate D2E/DX2                !
 ! R33   R(15,45)                1.0721         estimate D2E/DX2                !
 ! R34   R(16,17)                1.374          estimate D2E/DX2                !
 ! R35   R(16,46)                1.0728         estimate D2E/DX2                !
 ! R36   R(17,18)                1.3975         estimate D2E/DX2                !
 ! R37   R(17,47)                1.0709         estimate D2E/DX2                !
 ! R38   R(19,20)                1.3866         estimate D2E/DX2                !
 ! R39   R(19,24)                1.3866         estimate D2E/DX2                !
 ! R40   R(20,21)                1.3845         estimate D2E/DX2                !
 ! R41   R(20,48)                1.0716         estimate D2E/DX2                !
 ! R42   R(21,22)                1.3942         estimate D2E/DX2                !
 ! R43   R(21,49)                1.0727         estimate D2E/DX2                !
 ! R44   R(22,23)                1.3937         estimate D2E/DX2                !
 ! R45   R(22,25)                1.4845         estimate D2E/DX2                !
 ! R46   R(23,24)                1.3854         estimate D2E/DX2                !
 ! R47   R(23,50)                1.0726         estimate D2E/DX2                !
 ! R48   R(24,51)                1.0728         estimate D2E/DX2                !
 ! R49   R(25,26)                1.3935         estimate D2E/DX2                !
 ! R50   R(25,30)                1.3934         estimate D2E/DX2                !
 ! R51   R(26,27)                1.3857         estimate D2E/DX2                !
 ! R52   R(26,52)                1.0727         estimate D2E/DX2                !
 ! R53   R(27,28)                1.3852         estimate D2E/DX2                !
 ! R54   R(27,53)                1.0715         estimate D2E/DX2                !
 ! R55   R(28,29)                1.3315         estimate D2E/DX2                !
 ! R56   R(28,54)                1.0703         estimate D2E/DX2                !
 ! R57   R(29,30)                1.3296         estimate D2E/DX2                !
 ! R58   R(30,55)                1.071          estimate D2E/DX2                !
 ! A1    A(2,1,31)             110.7339         estimate D2E/DX2                !
 ! A2    A(2,1,32)             112.4138         estimate D2E/DX2                !
 ! A3    A(2,1,33)             110.6244         estimate D2E/DX2                !
 ! A4    A(31,1,32)            108.0368         estimate D2E/DX2                !
 ! A5    A(31,1,33)            107.6437         estimate D2E/DX2                !
 ! A6    A(32,1,33)            107.1934         estimate D2E/DX2                !
 ! A7    A(1,2,3)              110.3443         estimate D2E/DX2                !
 ! A8    A(1,2,4)              112.5401         estimate D2E/DX2                !
 ! A9    A(1,2,34)             108.0936         estimate D2E/DX2                !
 ! A10   A(3,2,4)              110.1022         estimate D2E/DX2                !
 ! A11   A(3,2,34)             107.7623         estimate D2E/DX2                !
 ! A12   A(4,2,34)             107.8301         estimate D2E/DX2                !
 ! A13   A(2,3,35)             110.8319         estimate D2E/DX2                !
 ! A14   A(2,3,36)             110.9778         estimate D2E/DX2                !
 ! A15   A(2,3,37)             111.2797         estimate D2E/DX2                !
 ! A16   A(35,3,36)            107.7858         estimate D2E/DX2                !
 ! A17   A(35,3,37)            107.9426         estimate D2E/DX2                !
 ! A18   A(36,3,37)            107.877          estimate D2E/DX2                !
 ! A19   A(2,4,5)              114.0498         estimate D2E/DX2                !
 ! A20   A(2,4,38)             109.2571         estimate D2E/DX2                !
 ! A21   A(2,4,39)             108.9079         estimate D2E/DX2                !
 ! A22   A(5,4,38)             109.6603         estimate D2E/DX2                !
 ! A23   A(5,4,39)             108.122          estimate D2E/DX2                !
 ! A24   A(38,4,39)            106.5694         estimate D2E/DX2                !
 ! A25   A(4,5,6)              112.8247         estimate D2E/DX2                !
 ! A26   A(4,5,40)             109.4968         estimate D2E/DX2                !
 ! A27   A(4,5,41)             111.0274         estimate D2E/DX2                !
 ! A28   A(6,5,40)             107.3735         estimate D2E/DX2                !
 ! A29   A(6,5,41)             109.4406         estimate D2E/DX2                !
 ! A30   A(40,5,41)            106.4125         estimate D2E/DX2                !
 ! A31   A(5,6,7)              124.5087         estimate D2E/DX2                !
 ! A32   A(5,6,19)             116.7443         estimate D2E/DX2                !
 ! A33   A(7,6,19)             118.7243         estimate D2E/DX2                !
 ! A34   A(6,7,8)              122.5659         estimate D2E/DX2                !
 ! A35   A(6,7,9)              117.0303         estimate D2E/DX2                !
 ! A36   A(8,7,9)              120.3991         estimate D2E/DX2                !
 ! A37   A(7,9,10)             112.6429         estimate D2E/DX2                !
 ! A38   A(7,9,42)             110.283          estimate D2E/DX2                !
 ! A39   A(7,9,43)             109.9127         estimate D2E/DX2                !
 ! A40   A(10,9,42)            105.975          estimate D2E/DX2                !
 ! A41   A(10,9,43)            109.8485         estimate D2E/DX2                !
 ! A42   A(42,9,43)            108.0158         estimate D2E/DX2                !
 ! A43   A(9,10,11)            119.1732         estimate D2E/DX2                !
 ! A44   A(9,10,18)            131.3788         estimate D2E/DX2                !
 ! A45   A(11,10,18)           109.4445         estimate D2E/DX2                !
 ! A46   A(10,11,12)           109.532          estimate D2E/DX2                !
 ! A47   A(11,12,13)           108.8815         estimate D2E/DX2                !
 ! A48   A(12,13,14)           130.545          estimate D2E/DX2                !
 ! A49   A(12,13,18)           107.9115         estimate D2E/DX2                !
 ! A50   A(14,13,18)           121.5431         estimate D2E/DX2                !
 ! A51   A(13,14,15)           117.2574         estimate D2E/DX2                !
 ! A52   A(13,14,44)           120.5009         estimate D2E/DX2                !
 ! A53   A(15,14,44)           122.2417         estimate D2E/DX2                !
 ! A54   A(14,15,16)           120.9826         estimate D2E/DX2                !
 ! A55   A(14,15,45)           120.0433         estimate D2E/DX2                !
 ! A56   A(16,15,45)           118.973          estimate D2E/DX2                !
 ! A57   A(15,16,17)           122.1059         estimate D2E/DX2                !
 ! A58   A(15,16,46)           118.6926         estimate D2E/DX2                !
 ! A59   A(17,16,46)           119.1992         estimate D2E/DX2                !
 ! A60   A(16,17,18)           116.5556         estimate D2E/DX2                !
 ! A61   A(16,17,47)           121.4248         estimate D2E/DX2                !
 ! A62   A(18,17,47)           122.0011         estimate D2E/DX2                !
 ! A63   A(10,18,13)           104.2245         estimate D2E/DX2                !
 ! A64   A(10,18,17)           134.2177         estimate D2E/DX2                !
 ! A65   A(13,18,17)           121.5538         estimate D2E/DX2                !
 ! A66   A(6,19,20)            120.8873         estimate D2E/DX2                !
 ! A67   A(6,19,24)            119.6697         estimate D2E/DX2                !
 ! A68   A(20,19,24)           119.4355         estimate D2E/DX2                !
 ! A69   A(19,20,21)           120.1823         estimate D2E/DX2                !
 ! A70   A(19,20,48)           119.6243         estimate D2E/DX2                !
 ! A71   A(21,20,48)           120.1895         estimate D2E/DX2                !
 ! A72   A(20,21,22)           120.9716         estimate D2E/DX2                !
 ! A73   A(20,21,49)           119.3036         estimate D2E/DX2                !
 ! A74   A(22,21,49)           119.7153         estimate D2E/DX2                !
 ! A75   A(21,22,23)           118.2822         estimate D2E/DX2                !
 ! A76   A(21,22,25)           120.852          estimate D2E/DX2                !
 ! A77   A(23,22,25)           120.8651         estimate D2E/DX2                !
 ! A78   A(22,23,24)           120.8111         estimate D2E/DX2                !
 ! A79   A(22,23,50)           119.779          estimate D2E/DX2                !
 ! A80   A(24,23,50)           119.383          estimate D2E/DX2                !
 ! A81   A(19,24,23)           120.3144         estimate D2E/DX2                !
 ! A82   A(19,24,51)           119.6072         estimate D2E/DX2                !
 ! A83   A(23,24,51)           120.0665         estimate D2E/DX2                !
 ! A84   A(22,25,26)           121.7813         estimate D2E/DX2                !
 ! A85   A(22,25,30)           121.0919         estimate D2E/DX2                !
 ! A86   A(26,25,30)           117.1268         estimate D2E/DX2                !
 ! A87   A(25,26,27)           119.6963         estimate D2E/DX2                !
 ! A88   A(25,26,52)           120.0324         estimate D2E/DX2                !
 ! A89   A(27,26,52)           120.2595         estimate D2E/DX2                !
 ! A90   A(26,27,28)           118.7638         estimate D2E/DX2                !
 ! A91   A(26,27,53)           120.8741         estimate D2E/DX2                !
 ! A92   A(28,27,53)           120.3597         estimate D2E/DX2                !
 ! A93   A(27,28,29)           121.9921         estimate D2E/DX2                !
 ! A94   A(27,28,54)           121.4892         estimate D2E/DX2                !
 ! A95   A(29,28,54)           116.5187         estimate D2E/DX2                !
 ! A96   A(28,29,30)           119.2755         estimate D2E/DX2                !
 ! A97   A(25,30,29)           123.1451         estimate D2E/DX2                !
 ! A98   A(25,30,55)           120.7188         estimate D2E/DX2                !
 ! A99   A(29,30,55)           116.1289         estimate D2E/DX2                !
 ! D1    D(31,1,2,3)            64.533          estimate D2E/DX2                !
 ! D2    D(31,1,2,4)           -58.8868         estimate D2E/DX2                !
 ! D3    D(31,1,2,34)         -177.8578         estimate D2E/DX2                !
 ! D4    D(32,1,2,3)          -174.5192         estimate D2E/DX2                !
 ! D5    D(32,1,2,4)            62.061          estimate D2E/DX2                !
 ! D6    D(32,1,2,34)          -56.91           estimate D2E/DX2                !
 ! D7    D(33,1,2,3)           -54.7253         estimate D2E/DX2                !
 ! D8    D(33,1,2,4)          -178.1451         estimate D2E/DX2                !
 ! D9    D(33,1,2,34)           62.8838         estimate D2E/DX2                !
 ! D10   D(1,2,3,35)           -62.4527         estimate D2E/DX2                !
 ! D11   D(1,2,3,36)            57.2774         estimate D2E/DX2                !
 ! D12   D(1,2,3,37)           177.4199         estimate D2E/DX2                !
 ! D13   D(4,2,3,35)            62.3715         estimate D2E/DX2                !
 ! D14   D(4,2,3,36)          -177.8984         estimate D2E/DX2                !
 ! D15   D(4,2,3,37)           -57.7559         estimate D2E/DX2                !
 ! D16   D(34,2,3,35)          179.7342         estimate D2E/DX2                !
 ! D17   D(34,2,3,36)          -60.5358         estimate D2E/DX2                !
 ! D18   D(34,2,3,37)           59.6067         estimate D2E/DX2                !
 ! D19   D(1,2,4,5)            -65.4333         estimate D2E/DX2                !
 ! D20   D(1,2,4,38)            57.6712         estimate D2E/DX2                !
 ! D21   D(1,2,4,39)           173.7096         estimate D2E/DX2                !
 ! D22   D(3,2,4,5)            171.0121         estimate D2E/DX2                !
 ! D23   D(3,2,4,38)           -65.8833         estimate D2E/DX2                !
 ! D24   D(3,2,4,39)            50.1551         estimate D2E/DX2                !
 ! D25   D(34,2,4,5)            53.6916         estimate D2E/DX2                !
 ! D26   D(34,2,4,38)          176.7961         estimate D2E/DX2                !
 ! D27   D(34,2,4,39)          -67.1655         estimate D2E/DX2                !
 ! D28   D(2,4,5,6)           -174.6609         estimate D2E/DX2                !
 ! D29   D(2,4,5,40)           -55.1438         estimate D2E/DX2                !
 ! D30   D(2,4,5,41)            62.0644         estimate D2E/DX2                !
 ! D31   D(38,4,5,6)            62.4539         estimate D2E/DX2                !
 ! D32   D(38,4,5,40)         -178.0289         estimate D2E/DX2                !
 ! D33   D(38,4,5,41)          -60.8208         estimate D2E/DX2                !
 ! D34   D(39,4,5,6)           -53.3672         estimate D2E/DX2                !
 ! D35   D(39,4,5,40)           66.15           estimate D2E/DX2                !
 ! D36   D(39,4,5,41)         -176.6419         estimate D2E/DX2                !
 ! D37   D(4,5,6,7)            -96.0187         estimate D2E/DX2                !
 ! D38   D(4,5,6,19)            82.2177         estimate D2E/DX2                !
 ! D39   D(40,5,6,7)           143.2444         estimate D2E/DX2                !
 ! D40   D(40,5,6,19)          -38.5192         estimate D2E/DX2                !
 ! D41   D(41,5,6,7)            28.1327         estimate D2E/DX2                !
 ! D42   D(41,5,6,19)         -153.631          estimate D2E/DX2                !
 ! D43   D(5,6,7,8)            176.3722         estimate D2E/DX2                !
 ! D44   D(5,6,7,9)             -2.8427         estimate D2E/DX2                !
 ! D45   D(19,6,7,8)            -1.8318         estimate D2E/DX2                !
 ! D46   D(19,6,7,9)           178.9533         estimate D2E/DX2                !
 ! D47   D(5,6,19,20)         -105.7442         estimate D2E/DX2                !
 ! D48   D(5,6,19,24)           73.248          estimate D2E/DX2                !
 ! D49   D(7,6,19,20)           72.5985         estimate D2E/DX2                !
 ! D50   D(7,6,19,24)         -108.4092         estimate D2E/DX2                !
 ! D51   D(6,7,9,10)          -176.9736         estimate D2E/DX2                !
 ! D52   D(6,7,9,42)           -58.8043         estimate D2E/DX2                !
 ! D53   D(6,7,9,43)            60.1799         estimate D2E/DX2                !
 ! D54   D(8,7,9,10)             3.7935         estimate D2E/DX2                !
 ! D55   D(8,7,9,42)           121.9629         estimate D2E/DX2                !
 ! D56   D(8,7,9,43)          -119.053          estimate D2E/DX2                !
 ! D57   D(7,9,10,11)          109.3374         estimate D2E/DX2                !
 ! D58   D(7,9,10,18)          -69.9009         estimate D2E/DX2                !
 ! D59   D(42,9,10,11)         -11.3339         estimate D2E/DX2                !
 ! D60   D(42,9,10,18)         169.4278         estimate D2E/DX2                !
 ! D61   D(43,9,10,11)        -127.7802         estimate D2E/DX2                !
 ! D62   D(43,9,10,18)          52.9815         estimate D2E/DX2                !
 ! D63   D(9,10,11,12)         179.9312         estimate D2E/DX2                !
 ! D64   D(18,10,11,12)         -0.6749         estimate D2E/DX2                !
 ! D65   D(9,10,18,13)        -179.927          estimate D2E/DX2                !
 ! D66   D(9,10,18,17)          -0.6745         estimate D2E/DX2                !
 ! D67   D(11,10,18,13)          0.7783         estimate D2E/DX2                !
 ! D68   D(11,10,18,17)       -179.9692         estimate D2E/DX2                !
 ! D69   D(10,11,12,13)          0.2587         estimate D2E/DX2                !
 ! D70   D(11,12,13,14)       -179.555          estimate D2E/DX2                !
 ! D71   D(11,12,13,18)          0.2368         estimate D2E/DX2                !
 ! D72   D(12,13,14,15)        179.571          estimate D2E/DX2                !
 ! D73   D(12,13,14,44)         -0.4532         estimate D2E/DX2                !
 ! D74   D(18,13,14,15)         -0.1965         estimate D2E/DX2                !
 ! D75   D(18,13,14,44)        179.7793         estimate D2E/DX2                !
 ! D76   D(12,13,18,10)         -0.6186         estimate D2E/DX2                !
 ! D77   D(12,13,18,17)       -179.99           estimate D2E/DX2                !
 ! D78   D(14,13,18,10)        179.1957         estimate D2E/DX2                !
 ! D79   D(14,13,18,17)         -0.1757         estimate D2E/DX2                !
 ! D80   D(13,14,15,16)          0.3376         estimate D2E/DX2                !
 ! D81   D(13,14,15,45)        179.9408         estimate D2E/DX2                !
 ! D82   D(44,14,15,16)       -179.6378         estimate D2E/DX2                !
 ! D83   D(44,14,15,45)         -0.0346         estimate D2E/DX2                !
 ! D84   D(14,15,16,17)         -0.1167         estimate D2E/DX2                !
 ! D85   D(14,15,16,46)        179.3264         estimate D2E/DX2                !
 ! D86   D(45,15,16,17)       -179.7241         estimate D2E/DX2                !
 ! D87   D(45,15,16,46)         -0.281          estimate D2E/DX2                !
 ! D88   D(15,16,17,18)         -0.2494         estimate D2E/DX2                !
 ! D89   D(15,16,17,47)        178.2194         estimate D2E/DX2                !
 ! D90   D(46,16,17,18)       -179.6899         estimate D2E/DX2                !
 ! D91   D(46,16,17,47)         -1.221          estimate D2E/DX2                !
 ! D92   D(16,17,18,10)       -178.7584         estimate D2E/DX2                !
 ! D93   D(16,17,18,13)          0.3914         estimate D2E/DX2                !
 ! D94   D(47,17,18,10)          2.7823         estimate D2E/DX2                !
 ! D95   D(47,17,18,13)       -178.0679         estimate D2E/DX2                !
 ! D96   D(6,19,20,21)         178.6659         estimate D2E/DX2                !
 ! D97   D(6,19,20,48)          -2.0395         estimate D2E/DX2                !
 ! D98   D(24,19,20,21)         -0.3286         estimate D2E/DX2                !
 ! D99   D(24,19,20,48)        178.9659         estimate D2E/DX2                !
 ! D100  D(6,19,24,23)        -178.3901         estimate D2E/DX2                !
 ! D101  D(6,19,24,51)           2.8606         estimate D2E/DX2                !
 ! D102  D(20,19,24,23)          0.6168         estimate D2E/DX2                !
 ! D103  D(20,19,24,51)       -178.1324         estimate D2E/DX2                !
 ! D104  D(19,20,21,22)         -0.1395         estimate D2E/DX2                !
 ! D105  D(19,20,21,49)       -179.0158         estimate D2E/DX2                !
 ! D106  D(48,20,21,22)       -179.43           estimate D2E/DX2                !
 ! D107  D(48,20,21,49)          1.6936         estimate D2E/DX2                !
 ! D108  D(20,21,22,23)          0.3147         estimate D2E/DX2                !
 ! D109  D(20,21,22,25)       -179.9944         estimate D2E/DX2                !
 ! D110  D(49,21,22,23)        179.1865         estimate D2E/DX2                !
 ! D111  D(49,21,22,25)         -1.1226         estimate D2E/DX2                !
 ! D112  D(21,22,23,24)         -0.0247         estimate D2E/DX2                !
 ! D113  D(21,22,23,50)        178.0765         estimate D2E/DX2                !
 ! D114  D(25,22,23,24)       -179.7156         estimate D2E/DX2                !
 ! D115  D(25,22,23,50)         -1.6144         estimate D2E/DX2                !
 ! D116  D(21,22,25,26)        -44.758          estimate D2E/DX2                !
 ! D117  D(21,22,25,30)        135.2526         estimate D2E/DX2                !
 ! D118  D(23,22,25,26)        134.9249         estimate D2E/DX2                !
 ! D119  D(23,22,25,30)        -45.0645         estimate D2E/DX2                !
 ! D120  D(22,23,24,19)         -0.4421         estimate D2E/DX2                !
 ! D121  D(22,23,24,51)        178.3014         estimate D2E/DX2                !
 ! D122  D(50,23,24,19)       -178.5507         estimate D2E/DX2                !
 ! D123  D(50,23,24,51)          0.1928         estimate D2E/DX2                !
 ! D124  D(22,25,26,27)       -179.9396         estimate D2E/DX2                !
 ! D125  D(22,25,26,52)         -1.1867         estimate D2E/DX2                !
 ! D126  D(30,25,26,27)          0.0502         estimate D2E/DX2                !
 ! D127  D(30,25,26,52)        178.8031         estimate D2E/DX2                !
 ! D128  D(22,25,30,29)        179.797          estimate D2E/DX2                !
 ! D129  D(22,25,30,55)         -1.218          estimate D2E/DX2                !
 ! D130  D(26,25,30,29)         -0.1929         estimate D2E/DX2                !
 ! D131  D(26,25,30,55)        178.7921         estimate D2E/DX2                !
 ! D132  D(25,26,27,28)          0.1446         estimate D2E/DX2                !
 ! D133  D(25,26,27,53)        179.5675         estimate D2E/DX2                !
 ! D134  D(52,26,27,28)       -178.6055         estimate D2E/DX2                !
 ! D135  D(52,26,27,53)          0.8174         estimate D2E/DX2                !
 ! D136  D(26,27,28,29)         -0.2205         estimate D2E/DX2                !
 ! D137  D(26,27,28,54)        179.7399         estimate D2E/DX2                !
 ! D138  D(53,27,28,29)       -179.6464         estimate D2E/DX2                !
 ! D139  D(53,27,28,54)          0.314          estimate D2E/DX2                !
 ! D140  D(27,28,29,30)          0.0864         estimate D2E/DX2                !
 ! D141  D(54,28,29,30)       -179.8759         estimate D2E/DX2                !
 ! D142  D(28,29,30,25)          0.1267         estimate D2E/DX2                !
 ! D143  D(28,29,30,55)       -178.9013         estimate D2E/DX2                !
 --------------------------------------------------------------------------------
 Trust Radius=3.00D-01 FncErr=1.00D-07 GrdErr=1.00D-06
 Number of steps in this run=    310 maximum allowed number of steps=    330.
 GradGradGradGradGradGradGradGradGradGradGradGradGradGradGradGradGradGrad

 Leave Link  103 at Sun Sep  4 06:31:20 2022, MaxMem=  209715200 cpu:       0.1
 (Enter /opt/gaussian/l202.exe)
 Stoichiometry    C24H25N5O
 Framework group  C1[X(C24H25N5O)]
 Deg. of freedom   159
 Full point group                 C1      NOp   1
 Largest Abelian subgroup         C1      NOp   1
 Largest concise Abelian subgroup C1      NOp   1
                         Standard orientation:                         
 ---------------------------------------------------------------------
 Center     Atomic      Atomic             Coordinates (Angstroms)
 Number     Number       Type             X           Y           Z
 ---------------------------------------------------------------------
      1          6           0        1.695962    5.150099   -0.123770
      2          6           0        0.394862    4.613689    0.492280
      3          6           0        0.155982    5.246999    1.870070
      4          6           0        0.385181    3.077659    0.606810
      5          6           0        0.397971    2.350809   -0.742040
      6          7           0        0.262091    0.890529   -0.605500
      7          6           0        1.309181    0.014559   -0.587900
      8          8           0        1.160210   -1.186001   -0.407940
      9          6           0        2.702541    0.597169   -0.786340
     10          7           0        3.720681   -0.408501   -0.820280
     11          7           0        4.345061   -0.683061   -2.001750
     12          7           0        5.207880   -1.594321   -1.823340
     13          6           0        5.188930   -1.975131   -0.491410
     14          6           0        5.949510   -2.924122    0.191020
     15          6           0        5.707340   -3.076622    1.533720
     16          6           0        4.720690   -2.304301    2.187310
     17          6           0        3.964040   -1.370841    1.521010
     18          6           0        4.222080   -1.216201    0.156270
     19          6           0       -1.069999    0.377480   -0.444650
     20          6           0       -1.512629   -0.080090    0.787150
     21          6           0       -2.808349   -0.545970    0.932040
     22          6           0       -3.689879   -0.562300   -0.147940
     23          6           0       -3.231549   -0.103240   -1.381450
     24          6           0       -1.933499    0.357660   -1.529350
     25          6           0       -5.078599   -1.062270    0.010430
     26          6           0       -5.361040   -2.236810    0.705060
     27          6           0       -6.673580   -2.664399    0.825490
     28          6           0       -7.677270   -1.907179    0.244220
     29          7           0       -7.417789   -0.782879   -0.420220
     30          6           0       -6.158879   -0.370589   -0.533840
     31          1           0        2.554752    4.850589    0.470180
     32          1           0        1.849442    4.797569   -1.137320
     33          1           0        1.683112    6.233549   -0.159810
     34          1           0       -0.431008    4.905000   -0.154940
     35          1           0        0.952342    4.983269    2.559640
     36          1           0        0.123372    6.328429    1.799790
     37          1           0       -0.782058    4.912880    2.299500
     38          1           0        1.236631    2.756919    1.203590
     39          1           0       -0.504309    2.771000    1.146960
     40          1           0       -0.429559    2.697100   -1.346640
     41          1           0        1.295131    2.577529   -1.295130
     42          1           0        2.761561    1.111659   -1.733200
     43          1           0        2.918361    1.312759   -0.002180
     44          1           0        6.688300   -3.502662   -0.325790
     45          1           0        6.265700   -3.794202    2.101710
     46          1           0        4.554390   -2.461291    3.235480
     47          1           0        3.199951   -0.811481    2.021030
     48          1           0       -0.842729   -0.081670    1.623550
     49          1           0       -3.140929   -0.881820    1.895020
     50          1           0       -3.879619   -0.133940   -2.235550
     51          1           0       -1.584819    0.682810   -2.490390
     52          1           0       -4.562850   -2.816410    1.126630
     53          1           0       -6.911550   -3.568219    1.349560
     54          1           0       -8.705180   -2.198899    0.306840
     55          1           0       -6.009559    0.548821   -1.062460
 ---------------------------------------------------------------------
 Rotational constants (GHZ):      0.2012482      0.0698656      0.0573152
 Leave Link  202 at Sun Sep  4 06:31:20 2022, MaxMem=  209715200 cpu:       0.0
 (Enter /opt/gaussian/l301.exe)
 Standard basis: CC-pVDZ (5D, 7F)
 Ernie: Thresh=  0.10000D-02 Tol=  0.10000D-05 Strict=F.
 Ernie:  60 primitive shells out of 785 were deleted.
 There are   545 symmetry adapted basis functions of A   symmetry.
 Integral buffers will be    131072 words long.
 Raffenetti 2 integral format.
 Two-electron integral symmetry is turned on.
   545 basis functions,  1165 primitive gaussians,   575 cartesian basis functions
   106 alpha electrons      106 beta electrons
       nuclear repulsion energy      2657.9003404881 Hartrees.
 IExCor=  402 DFT=T Ex+Corr=B3LYP ExCW=0 ScaHFX=  0.200000
 ScaDFX=  0.800000  0.720000  1.000000  0.810000 ScalE2=  1.000000  1.000000
 IRadAn=      0 IRanWt=     -1 IRanGd=            0 ICorTp=0
 NAtoms=   55 NActive=   55 NUniq=   55 SFac= 1.00D+00 NAtFMM=   60 NAOKFM=F Big=F
 Leave Link  301 at Sun Sep  4 06:31:20 2022, MaxMem=  209715200 cpu:       0.3
 (Enter /opt/gaussian/l302.exe)
 NPDir=0 NMtPBC=     1 NCelOv=     1 NCel=       1 NClECP=     1 NCelD=      1
         NCelK=      1 NCelE2=     1 NClLst=     1 CellRange=     0.0.
 One-electron integrals computed using PRISM.
 NBasis=   545 RedAO= T  NBF=   545
 NBsUse=   545 1.00D-06 NBFU=   545
 Precomputing XC quadrature grid using
 IXCGrd= 2 IRadAn=           0 IRanWt=          -1 IRanGd=           0 AccXCQ= 0.00D+00.
 NRdTot=    3553 NPtTot=      454194 NUsed=      479793 NTot=      479825
 NSgBfM=   555   558   558   558   558 NAtAll=    55    55.
 Leave Link  302 at Sun Sep  4 06:31:21 2022, MaxMem=  209715200 cpu:       8.2
 (Enter /opt/gaussian/l303.exe)
 DipDrv:  MaxL=1.
 Leave Link  303 at Sun Sep  4 06:31:21 2022, MaxMem=  209715200 cpu:       1.1
 (Enter /opt/gaussian/l401.exe)
 Harris functional with IExCor=  402 diagonalized for initial guess.
 ExpMin= 1.22D-01 ExpMax= 1.17D+04 ExpMxC= 4.01D+02 IAcc=1 IRadAn=         1 AccDes= 0.00D+00
 HarFok:  IExCor=  402 AccDes= 0.00D+00 IRadAn=         1 IDoV= 1
 ScaDFX=  1.000000  1.000000  1.000000  1.000000
 FoFCou: FMM=F IPFlag=           0 FMFlag=      100000 FMFlg1=           0
         NFxFlg=           0 DoJE=T BraDBF=F KetDBF=T FulRan=T
         Omega=  0.000000  0.000000  1.000000  0.000000  0.000000 ICntrl=     500 IOpCl=  0
         NMat0=    1 NMatS0=    1 NMatT0=    0 NMatD0=    1 NMtDS0=    0 NMtDT0=    0
         I1Cent=           4 NGrid=           0.
 Petite list used in FoFCou.
 Harris En= -1278.53757086249    
 Initial guess orbital symmetries:
       Occupied  (A) (A) (A) (A) (A) (A) (A) (A) (A) (A) (A) (A)
                 (A) (A) (A) (A) (A) (A) (A) (A) (A) (A) (A) (A)
                 (A) (A) (A) (A) (A) (A) (A) (A) (A) (A) (A) (A)
                 (A) (A) (A) (A) (A) (A) (A) (A) (A) (A) (A) (A)
                 (A) (A) (A) (A) (A) (A) (A) (A) (A) (A) (A) (A)
                 (A) (A) (A) (A) (A) (A) (A) (A) (A) (A) (A) (A)
                 (A) (A) (A) (A) (A) (A) (A) (A) (A) (A) (A) (A)
                 (A) (A) (A) (A) (A) (A) (A) (A) (A) (A) (A) (A)
                 (A) (A) (A) (A) (A) (A) (A) (A) (A) (A)
       Virtual   (A) (A) (A) (A) (A) (A) (A) (A) (A) (A) (A) (A)
                 (A) (A) (A) (A) (A) (A) (A) (A) (A) (A) (A) (A)
                 (A) (A) (A) (A) (A) (A) (A) (A) (A) (A) (A) (A)
                 (A) (A) (A) (A) (A) (A) (A) (A) (A) (A) (A) (A)
                 (A) (A) (A) (A) (A) (A) (A) (A) (A) (A) (A) (A)
                 (A) (A) (A) (A) (A) (A) (A) (A) (A) (A) (A) (A)
                 (A) (A) (A) (A) (A) (A) (A) (A) (A) (A) (A) (A)
                 (A) (A) (A) (A) (A) (A) (A) (A) (A) (A) (A) (A)
                 (A) (A) (A) (A) (A) (A) (A) (A) (A) (A) (A) (A)
                 (A) (A) (A) (A) (A) (A) (A) (A) (A) (A) (A) (A)
                 (A) (A) (A) (A) (A) (A) (A) (A) (A) (A) (A) (A)
                 (A) (A) (A) (A) (A) (A) (A) (A) (A) (A) (A) (A)
                 (A) (A) (A) (A) (A) (A) (A) (A) (A) (A) (A) (A)
                 (A) (A) (A) (A) (A) (A) (A) (A) (A) (A) (A) (A)
                 (A) (A) (A) (A) (A) (A) (A) (A) (A) (A) (A) (A)
                 (A) (A) (A) (A) (A) (A) (A) (A) (A) (A) (A) (A)
                 (A) (A) (A) (A) (A) (A) (A) (A) (A) (A) (A) (A)
                 (A) (A) (A) (A) (A) (A) (A) (A) (A) (A) (A) (A)
                 (A) (A) (A) (A) (A) (A) (A) (A) (A) (A) (A) (A)
                 (A) (A) (A) (A) (A) (A) (A) (A) (A) (A) (A) (A)
                 (A) (A) (A) (A) (A) (A) (A) (A) (A) (A) (A) (A)
                 (A) (A) (A) (A) (A) (A) (A) (A) (A) (A) (A) (A)
                 (A) (A) (A) (A) (A) (A) (A) (A) (A) (A) (A) (A)
                 (A) (A) (A) (A) (A) (A) (A) (A) (A) (A) (A) (A)
                 (A) (A) (A) (A) (A) (A) (A) (A) (A) (A) (A) (A)
                 (A) (A) (A) (A) (A) (A) (A) (A) (A) (A) (A) (A)
                 (A) (A) (A) (A) (A) (A) (A) (A) (A) (A) (A) (A)
                 (A) (A) (A) (A) (A) (A) (A) (A) (A) (A) (A) (A)
                 (A) (A) (A) (A) (A) (A) (A) (A) (A) (A) (A) (A)
                 (A) (A) (A) (A) (A) (A) (A) (A) (A) (A) (A) (A)
                 (A) (A) (A) (A) (A) (A) (A) (A) (A) (A) (A) (A)
                 (A) (A) (A) (A) (A) (A) (A) (A) (A) (A) (A) (A)
                 (A) (A) (A) (A) (A) (A) (A) (A) (A) (A) (A) (A)
                 (A) (A) (A) (A) (A) (A) (A) (A) (A) (A) (A) (A)
                 (A) (A) (A) (A) (A) (A) (A) (A) (A) (A) (A) (A)
                 (A) (A) (A) (A) (A) (A) (A) (A) (A) (A) (A) (A)
                 (A) (A) (A) (A) (A) (A) (A)
 The electronic state of the initial guess is 1-A.
 Leave Link  401 at Sun Sep  4 06:31:23 2022, MaxMem=  209715200 cpu:      14.2
 (Enter /opt/gaussian/l502.exe)
 Closed shell SCF:
 Requested convergence on RMS density matrix=1.00D-08 within 128 cycles.
 Requested convergence on MAX density matrix=1.00D-06.
 Requested convergence on             energy=1.00D-06.
 No special actions if energy rises.
 Using DIIS extrapolation, IDIIS=  1040.
 Integral symmetry usage will be decided dynamically.
       479285 words used for storage of precomputed grid.
 IEnd=     1498266 IEndB=     1498266 NGot=   209715200 MDV=   208564775
 LenX=   208564775 LenY=   208233575
 Fock matrices will be formed incrementally for  20 cycles.
 Integral accuracy reduced to 1.0D-05 until final iterations.

 Cycle   1  Pass 0  IDiag  1:
 FoFCou: FMM=F IPFlag=           0 FMFlag=      100000 FMFlg1=           0
         NFxFlg=           0 DoJE=F BraDBF=F KetDBF=F FulRan=T
         Omega=  0.000000  0.000000  1.000000  0.000000  0.000000 ICntrl=       0 IOpCl=  0
         NMat0=    1 NMatS0=    1 NMatT0=    0 NMatD0=    1 NMtDS0=    0 NMtDT0=    0
         I1Cent=           0 NGrid=           0.
 Symmetry not used in FoFCou.
 E= -1277.99847019801    
 DIIS: error= 2.58D-02 at cycle   1 NSaved=   1.
 NSaved= 1 IEnMin= 1 EnMin= -1277.99847019801     IErMin= 1 ErrMin= 2.58D-02
 ErrMax= 2.58D-02 EMaxC= 1.00D-01 BMatC= 5.77D-01 BMatP= 5.77D-01
 IDIUse=3 WtCom= 7.42D-01 WtEn= 2.58D-01
 Coeff-Com:  0.100D+01
 Coeff-En:   0.100D+01
 Coeff:      0.100D+01
 Gap=     0.252 Goal=   None    Shift=    0.000
 GapD=    0.252 DampG=1.000 DampE=0.500 DampFc=0.5000 IDamp=-1.
 Damping current iteration by 5.00D-01
 RMSDP=3.98D-03 MaxDP=2.31D-01              OVMax= 2.84D-01

 Cycle   2  Pass 0  IDiag  1:
 RMSU=  1.39D-03    CP:  9.76D-01
 E= -1278.18847035826     Delta-E=       -0.190000160243 Rises=F Damp=T
 DIIS: error= 8.32D-03 at cycle   2 NSaved=   2.
 NSaved= 2 IEnMin= 2 EnMin= -1278.18847035826     IErMin= 2 ErrMin= 8.32D-03
 ErrMax= 8.32D-03 EMaxC= 1.00D-01 BMatC= 1.00D-01 BMatP= 5.77D-01
 IDIUse=3 WtCom= 9.17D-01 WtEn= 8.32D-02
 Coeff-Com:  0.215D+00 0.785D+00
 Coeff-En:   0.312D+00 0.688D+00
 Coeff:      0.223D+00 0.777D+00
 Gap=     0.248 Goal=   None    Shift=    0.000
 RMSDP=1.37D-03 MaxDP=8.71D-02 DE=-1.90D-01 OVMax= 3.27D-01

 Cycle   3  Pass 0  IDiag  1:
 RMSU=  9.16D-04    CP:  9.61D-01  8.02D-01
 E= -1278.52885967746     Delta-E=       -0.340389319200 Rises=F Damp=F
 DIIS: error= 1.16D-02 at cycle   3 NSaved=   3.
 NSaved= 3 IEnMin= 3 EnMin= -1278.52885967746     IErMin= 2 ErrMin= 8.32D-03
 ErrMax= 1.16D-02 EMaxC= 1.00D-01 BMatC= 1.18D-01 BMatP= 1.00D-01
 IDIUse=2 WtCom= 0.00D+00 WtEn= 1.00D+00
 Coeff-En:   0.000D+00 0.000D+00 0.100D+01
 Coeff:      0.000D+00 0.000D+00 0.100D+01
 Gap=     0.211 Goal=   None    Shift=    0.000
 RMSDP=2.09D-03 MaxDP=1.93D-01 DE=-3.40D-01 OVMax= 3.36D-01

 Cycle   4  Pass 0  IDiag  1:
 RMSU=  7.36D-04    CP:  9.67D-01  1.29D+00 -1.89D-01
 E= -1278.00337043062     Delta-E=        0.525489246840 Rises=F Damp=F
 DIIS: error= 2.71D-02 at cycle   4 NSaved=   4.
 NSaved= 4 IEnMin= 3 EnMin= -1278.52885967746     IErMin= 2 ErrMin= 8.32D-03
 ErrMax= 2.71D-02 EMaxC= 1.00D-01 BMatC= 7.39D-01 BMatP= 1.00D-01
 IDIUse=2 WtCom= 0.00D+00 WtEn= 1.00D+00
 Coeff-En:   0.000D+00 0.000D+00 0.800D+00 0.200D+00
 Coeff:      0.000D+00 0.000D+00 0.800D+00 0.200D+00
 Gap=     0.190 Goal=   None    Shift=    0.000
 RMSDP=1.18D-03 MaxDP=1.03D-01 DE= 5.25D-01 OVMax= 1.58D-01

 Cycle   5  Pass 0  IDiag  1:
 RMSU=  1.71D-04    CP:  9.66D-01  9.51D-01  4.21D-01  5.09D-01
 E= -1278.59091045545     Delta-E=       -0.587540024829 Rises=F Damp=F
 DIIS: error= 6.89D-03 at cycle   5 NSaved=   5.
 NSaved= 5 IEnMin= 5 EnMin= -1278.59091045545     IErMin= 5 ErrMin= 6.89D-03
 ErrMax= 6.89D-03 EMaxC= 1.00D-01 BMatC= 5.17D-02 BMatP= 1.00D-01
 IDIUse=3 WtCom= 9.31D-01 WtEn= 6.89D-02
 Coeff-Com:  0.320D-02 0.380D-01 0.347D+00-0.478D-01 0.659D+00
 Coeff-En:   0.000D+00 0.000D+00 0.343D+00 0.000D+00 0.657D+00
 Coeff:      0.298D-02 0.354D-01 0.347D+00-0.445D-01 0.659D+00
 Gap=     0.190 Goal=   None    Shift=    0.000
 RMSDP=4.04D-04 MaxDP=3.03D-02 DE=-5.88D-01 OVMax= 6.44D-02

 Cycle   6  Pass 0  IDiag  1:
 RMSU=  6.43D-05    CP:  9.64D-01  8.83D-01  6.50D-01  3.12D-01  6.54D-01
 E= -1278.63633825916     Delta-E=       -0.045427803714 Rises=F Damp=F
 DIIS: error= 1.27D-03 at cycle   6 NSaved=   6.
 NSaved= 6 IEnMin= 6 EnMin= -1278.63633825916     IErMin= 6 ErrMin= 1.27D-03
 ErrMax= 1.27D-03 EMaxC= 1.00D-01 BMatC= 8.91D-04 BMatP= 5.17D-02
 IDIUse=3 WtCom= 9.87D-01 WtEn= 1.27D-02
 Coeff-Com: -0.460D-02 0.228D-01 0.165D+00-0.599D-01 0.445D+00 0.432D+00
 Coeff-En:   0.000D+00 0.000D+00 0.000D+00 0.000D+00 0.000D+00 0.100D+01
 Coeff:     -0.454D-02 0.225D-01 0.163D+00-0.592D-01 0.439D+00 0.439D+00
 Gap=     0.187 Goal=   None    Shift=    0.000
 RMSDP=5.43D-05 MaxDP=4.16D-03 DE=-4.54D-02 OVMax= 1.18D-02

 Cycle   7  Pass 0  IDiag  1:
 RMSU=  1.69D-05    CP:  9.64D-01  8.86D-01  6.46D-01  3.13D-01  7.47D-01
                    CP:  5.32D-01
 E= -1278.63712848756     Delta-E=       -0.000790228401 Rises=F Damp=F
 DIIS: error= 2.97D-04 at cycle   7 NSaved=   7.
 NSaved= 7 IEnMin= 7 EnMin= -1278.63712848756     IErMin= 7 ErrMin= 2.97D-04
 ErrMax= 2.97D-04 EMaxC= 1.00D-01 BMatC= 5.51D-05 BMatP= 8.91D-04
 IDIUse=3 WtCom= 9.97D-01 WtEn= 2.97D-03
 Coeff-Com: -0.234D-02 0.925D-02 0.681D-01-0.305D-01 0.198D+00 0.241D+00
 Coeff-Com:  0.517D+00
 Coeff-En:   0.000D+00 0.000D+00 0.000D+00 0.000D+00 0.000D+00 0.000D+00
 Coeff-En:   0.100D+01
 Coeff:     -0.233D-02 0.922D-02 0.679D-01-0.304D-01 0.197D+00 0.241D+00
 Coeff:      0.518D+00
 Gap=     0.187 Goal=   None    Shift=    0.000
 RMSDP=1.73D-05 MaxDP=1.56D-03 DE=-7.90D-04 OVMax= 2.68D-03

 Cycle   8  Pass 0  IDiag  1:
 RMSU=  8.60D-06    CP:  9.64D-01  8.85D-01  6.48D-01  3.12D-01  7.52D-01
                    CP:  5.66D-01  5.22D-01
 E= -1278.63716778593     Delta-E=       -0.000039298371 Rises=F Damp=F
 DIIS: error= 1.06D-04 at cycle   8 NSaved=   8.
 NSaved= 8 IEnMin= 8 EnMin= -1278.63716778593     IErMin= 8 ErrMin= 1.06D-04
 ErrMax= 1.06D-04 EMaxC= 1.00D-01 BMatC= 1.27D-05 BMatP= 5.51D-05
 IDIUse=3 WtCom= 9.99D-01 WtEn= 1.06D-03
 Coeff-Com: -0.868D-04-0.357D-03 0.124D-01-0.588D-02 0.334D-01 0.594D-01
 Coeff-Com:  0.351D+00 0.550D+00
 Coeff-En:   0.000D+00 0.000D+00 0.000D+00 0.000D+00 0.000D+00 0.000D+00
 Coeff-En:   0.170D+00 0.830D+00
 Coeff:     -0.867D-04-0.357D-03 0.124D-01-0.588D-02 0.334D-01 0.593D-01
 Coeff:      0.351D+00 0.550D+00
 Gap=     0.187 Goal=   None    Shift=    0.000
 RMSDP=7.68D-06 MaxDP=5.23D-04 DE=-3.93D-05 OVMax= 1.11D-03

 Initial convergence to 1.0D-05 achieved.  Increase integral accuracy.
 Cycle   9  Pass 1  IDiag  1:
 E= -1278.63729922185     Delta-E=       -0.000131435918 Rises=F Damp=F
 DIIS: error= 2.19D-04 at cycle   1 NSaved=   1.
 NSaved= 1 IEnMin= 1 EnMin= -1278.63729922185     IErMin= 1 ErrMin= 2.19D-04
 ErrMax= 2.19D-04 EMaxC= 1.00D-01 BMatC= 8.55D-06 BMatP= 8.55D-06
 IDIUse=3 WtCom= 9.98D-01 WtEn= 2.19D-03
 Coeff-Com:  0.100D+01
 Coeff-En:   0.100D+01
 Coeff:      0.100D+01
 Gap=     0.187 Goal=   None    Shift=    0.000
 RMSDP=7.68D-06 MaxDP=5.23D-04 DE=-1.31D-04 OVMax= 8.51D-04

 Cycle  10  Pass 1  IDiag  1:
 RMSU=  7.39D-05    CP:  1.00D+00
 E= -1278.63730410047     Delta-E=       -0.000004878624 Rises=F Damp=F
 DIIS: error= 4.97D-05 at cycle   2 NSaved=   2.
 NSaved= 2 IEnMin= 2 EnMin= -1278.63730410047     IErMin= 2 ErrMin= 4.97D-05
 ErrMax= 4.97D-05 EMaxC= 1.00D-01 BMatC= 3.26D-06 BMatP= 8.55D-06
 IDIUse=1 WtCom= 1.00D+00 WtEn= 0.00D+00
 Coeff-Com:  0.323D+00 0.677D+00
 Coeff:      0.323D+00 0.677D+00
 Gap=     0.187 Goal=   None    Shift=    0.000
 RMSDP=6.67D-06 MaxDP=4.78D-04 DE=-4.88D-06 OVMax= 1.27D-03

 Cycle  11  Pass 1  IDiag  1:
 RMSU=  4.69D-06    CP:  1.00D+00  1.01D+00
 E= -1278.63730331022     Delta-E=        0.000000790253 Rises=F Damp=F
 DIIS: error= 6.47D-05 at cycle   3 NSaved=   3.
 NSaved= 3 IEnMin= 2 EnMin= -1278.63730410047     IErMin= 2 ErrMin= 4.97D-05
 ErrMax= 6.47D-05 EMaxC= 1.00D-01 BMatC= 4.11D-06 BMatP= 3.26D-06
 IDIUse=1 WtCom= 1.00D+00 WtEn= 0.00D+00
 Coeff-Com:  0.126D-01 0.525D+00 0.462D+00
 Coeff:      0.126D-01 0.525D+00 0.462D+00
 Gap=     0.187 Goal=   None    Shift=    0.000
 RMSDP=3.92D-06 MaxDP=2.79D-04 DE= 7.90D-07 OVMax= 7.94D-04

 Cycle  12  Pass 1  IDiag  1:
 RMSU=  8.78D-07    CP:  1.00D+00  1.01D+00  4.46D-01
 E= -1278.63730715255     Delta-E=       -0.000003842334 Rises=F Damp=F
 DIIS: error= 1.45D-05 at cycle   4 NSaved=   4.
 NSaved= 4 IEnMin= 4 EnMin= -1278.63730715255     IErMin= 4 ErrMin= 1.45D-05
 ErrMax= 1.45D-05 EMaxC= 1.00D-01 BMatC= 1.75D-07 BMatP= 3.26D-06
 IDIUse=1 WtCom= 1.00D+00 WtEn= 0.00D+00
 Coeff-Com: -0.369D-02 0.321D+00 0.303D+00 0.380D+00
 Coeff:     -0.369D-02 0.321D+00 0.303D+00 0.380D+00
 Gap=     0.187 Goal=   None    Shift=    0.000
 RMSDP=7.73D-07 MaxDP=6.71D-05 DE=-3.84D-06 OVMax= 9.93D-05

 Cycle  13  Pass 1  IDiag  1:
 RMSU=  1.97D-07    CP:  1.00D+00  1.01D+00  4.77D-01  4.45D-01
 E= -1278.63730731016     Delta-E=       -0.000000157610 Rises=F Damp=F
 DIIS: error= 2.82D-06 at cycle   5 NSaved=   5.
 NSaved= 5 IEnMin= 5 EnMin= -1278.63730731016     IErMin= 5 ErrMin= 2.82D-06
 ErrMax= 2.82D-06 EMaxC= 1.00D-01 BMatC= 3.07D-09 BMatP= 1.75D-07
 IDIUse=1 WtCom= 1.00D+00 WtEn= 0.00D+00
 Coeff-Com: -0.250D-02 0.177D+00 0.167D+00 0.225D+00 0.434D+00
 Coeff:     -0.250D-02 0.177D+00 0.167D+00 0.225D+00 0.434D+00
 Gap=     0.187 Goal=   None    Shift=    0.000
 RMSDP=1.13D-07 MaxDP=9.58D-06 DE=-1.58D-07 OVMax= 2.16D-05

 Cycle  14  Pass 1  IDiag  1:
 RMSU=  6.44D-08    CP:  1.00D+00  1.01D+00  4.76D-01  4.46D-01  7.59D-01
 E= -1278.63730731299     Delta-E=       -0.000000002822 Rises=F Damp=F
 DIIS: error= 6.88D-07 at cycle   6 NSaved=   6.
 NSaved= 6 IEnMin= 6 EnMin= -1278.63730731299     IErMin= 6 ErrMin= 6.88D-07
 ErrMax= 6.88D-07 EMaxC= 1.00D-01 BMatC= 1.38D-10 BMatP= 3.07D-09
 IDIUse=1 WtCom= 1.00D+00 WtEn= 0.00D+00
 Coeff-Com: -0.933D-03 0.609D-01 0.575D-01 0.799D-01 0.223D+00 0.580D+00
 Coeff:     -0.933D-03 0.609D-01 0.575D-01 0.799D-01 0.223D+00 0.580D+00
 Gap=     0.187 Goal=   None    Shift=    0.000
 RMSDP=2.97D-08 MaxDP=1.94D-06 DE=-2.82D-09 OVMax= 5.23D-06

 Cycle  15  Pass 1  IDiag  1:
 RMSU=  1.78D-08    CP:  1.00D+00  1.01D+00  4.75D-01  4.50D-01  7.84D-01
                    CP:  8.64D-01
 E= -1278.63730731309     Delta-E=       -0.000000000103 Rises=F Damp=F
 DIIS: error= 2.47D-07 at cycle   7 NSaved=   7.
 NSaved= 7 IEnMin= 7 EnMin= -1278.63730731309     IErMin= 7 ErrMin= 2.47D-07
 ErrMax= 2.47D-07 EMaxC= 1.00D-01 BMatC= 2.23D-11 BMatP= 1.38D-10
 IDIUse=1 WtCom= 1.00D+00 WtEn= 0.00D+00
 Coeff-Com: -0.918D-04 0.370D-02 0.341D-02 0.573D-02 0.519D-01 0.323D+00
 Coeff-Com:  0.612D+00
 Coeff:     -0.918D-04 0.370D-02 0.341D-02 0.573D-02 0.519D-01 0.323D+00
 Coeff:      0.612D+00
 Gap=     0.187 Goal=   None    Shift=    0.000
 RMSDP=1.15D-08 MaxDP=5.71D-07 DE=-1.03D-10 OVMax= 1.88D-06

 Cycle  16  Pass 1  IDiag  1:
 RMSU=  4.95D-09    CP:  1.00D+00  1.01D+00  4.75D-01  4.49D-01  7.94D-01
                    CP:  8.97D-01  6.81D-01
 E= -1278.63730731312     Delta-E=       -0.000000000034 Rises=F Damp=F
 DIIS: error= 7.24D-08 at cycle   8 NSaved=   8.
 NSaved= 8 IEnMin= 8 EnMin= -1278.63730731312     IErMin= 8 ErrMin= 7.24D-08
 ErrMax= 7.24D-08 EMaxC= 1.00D-01 BMatC= 3.26D-12 BMatP= 2.23D-11
 IDIUse=1 WtCom= 1.00D+00 WtEn= 0.00D+00
 Coeff-Com:  0.295D-04-0.333D-02-0.322D-02-0.393D-02 0.113D-01 0.142D+00
 Coeff-Com:  0.366D+00 0.490D+00
 Coeff:      0.295D-04-0.333D-02-0.322D-02-0.393D-02 0.113D-01 0.142D+00
 Coeff:      0.366D+00 0.490D+00
 Gap=     0.187 Goal=   None    Shift=    0.000
 RMSDP=3.95D-09 MaxDP=2.83D-07 DE=-3.41D-11 OVMax= 4.27D-07

 SCF Done:  E(RB3LYP) =  -1278.63730731     A.U. after   16 cycles
             Convg  =    0.3952D-08             -V/T =  2.0059
 KE= 1.271121056011D+03 PE=-8.285672268873D+03 EE= 3.078013565060D+03
 Leave Link  502 at Sun Sep  4 06:42:55 2022, MaxMem=  209715200 cpu:    5514.6
 (Enter /opt/gaussian/l601.exe)
 Copying SCF densities to generalized density rwf, IOpCl= 0 IROHF=0.

 **********************************************************************

            Population analysis using the SCF density.

 **********************************************************************

 Orbital symmetries:
       Occupied  (A) (A) (A) (A) (A) (A) (A) (A) (A) (A) (A) (A)
                 (A) (A) (A) (A) (A) (A) (A) (A) (A) (A) (A) (A)
                 (A) (A) (A) (A) (A) (A) (A) (A) (A) (A) (A) (A)
                 (A) (A) (A) (A) (A) (A) (A) (A) (A) (A) (A) (A)
                 (A) (A) (A) (A) (A) (A) (A) (A) (A) (A) (A) (A)
                 (A) (A) (A) (A) (A) (A) (A) (A) (A) (A) (A) (A)
                 (A) (A) (A) (A) (A) (A) (A) (A) (A) (A) (A) (A)
                 (A) (A) (A) (A) (A) (A) (A) (A) (A) (A) (A) (A)
                 (A) (A) (A) (A) (A) (A) (A) (A) (A) (A)
       Virtual   (A) (A) (A) (A) (A) (A) (A) (A) (A) (A) (A) (A)
                 (A) (A) (A) (A) (A) (A) (A) (A) (A) (A) (A) (A)
                 (A) (A) (A) (A) (A) (A) (A) (A) (A) (A) (A) (A)
                 (A) (A) (A) (A) (A) (A) (A) (A) (A) (A) (A) (A)
                 (A) (A) (A) (A) (A) (A) (A) (A) (A) (A) (A) (A)
                 (A) (A) (A) (A) (A) (A) (A) (A) (A) (A) (A) (A)
                 (A) (A) (A) (A) (A) (A) (A) (A) (A) (A) (A) (A)
                 (A) (A) (A) (A) (A) (A) (A) (A) (A) (A) (A) (A)
                 (A) (A) (A) (A) (A) (A) (A) (A) (A) (A) (A) (A)
                 (A) (A) (A) (A) (A) (A) (A) (A) (A) (A) (A) (A)
                 (A) (A) (A) (A) (A) (A) (A) (A) (A) (A) (A) (A)
                 (A) (A) (A) (A) (A) (A) (A) (A) (A) (A) (A) (A)
                 (A) (A) (A) (A) (A) (A) (A) (A) (A) (A) (A) (A)
                 (A) (A) (A) (A) (A) (A) (A) (A) (A) (A) (A) (A)
                 (A) (A) (A) (A) (A) (A) (A) (A) (A) (A) (A) (A)
                 (A) (A) (A) (A) (A) (A) (A) (A) (A) (A) (A) (A)
                 (A) (A) (A) (A) (A) (A) (A) (A) (A) (A) (A) (A)
                 (A) (A) (A) (A) (A) (A) (A) (A) (A) (A) (A) (A)
                 (A) (A) (A) (A) (A) (A) (A) (A) (A) (A) (A) (A)
                 (A) (A) (A) (A) (A) (A) (A) (A) (A) (A) (A) (A)
                 (A) (A) (A) (A) (A) (A) (A) (A) (A) (A) (A) (A)
                 (A) (A) (A) (A) (A) (A) (A) (A) (A) (A) (A) (A)
                 (A) (A) (A) (A) (A) (A) (A) (A) (A) (A) (A) (A)
                 (A) (A) (A) (A) (A) (A) (A) (A) (A) (A) (A) (A)
                 (A) (A) (A) (A) (A) (A) (A) (A) (A) (A) (A) (A)
                 (A) (A) (A) (A) (A) (A) (A) (A) (A) (A) (A) (A)
                 (A) (A) (A) (A) (A) (A) (A) (A) (A) (A) (A) (A)
                 (A) (A) (A) (A) (A) (A) (A) (A) (A) (A) (A) (A)
                 (A) (A) (A) (A) (A) (A) (A) (A) (A) (A) (A) (A)
                 (A) (A) (A) (A) (A) (A) (A) (A) (A) (A) (A) (A)
                 (A) (A) (A) (A) (A) (A) (A) (A) (A) (A) (A) (A)
                 (A) (A) (A) (A) (A) (A) (A) (A) (A) (A) (A) (A)
                 (A) (A) (A) (A) (A) (A) (A) (A) (A) (A) (A) (A)
                 (A) (A) (A) (A) (A) (A) (A) (A) (A) (A) (A) (A)
                 (A) (A) (A) (A) (A) (A) (A) (A) (A) (A) (A) (A)
                 (A) (A) (A) (A) (A) (A) (A) (A) (A) (A) (A) (A)
                 (A) (A) (A) (A) (A) (A) (A)
 The electronic state is 1-A.
 Alpha  occ. eigenvalues --  -19.11345 -14.40614 -14.38586 -14.37535 -14.34295
 Alpha  occ. eigenvalues --  -14.32696 -10.29785 -10.25132 -10.24192 -10.23828
 Alpha  occ. eigenvalues --  -10.22566 -10.22385 -10.22303 -10.21214 -10.21071
 Alpha  occ. eigenvalues --  -10.20952 -10.20591 -10.20440 -10.20353 -10.20263
 Alpha  occ. eigenvalues --  -10.20258 -10.20211 -10.20097 -10.19977 -10.19743
 Alpha  occ. eigenvalues --  -10.19385 -10.19197 -10.18866 -10.18795 -10.18574
 Alpha  occ. eigenvalues --   -1.09946  -1.04907  -0.95924  -0.95083  -0.92658
 Alpha  occ. eigenvalues --   -0.87923  -0.86852  -0.83208  -0.82147  -0.79171
 Alpha  occ. eigenvalues --   -0.78086  -0.77046  -0.76889  -0.76049  -0.75185
 Alpha  occ. eigenvalues --   -0.73314  -0.70205  -0.66553  -0.66149  -0.64903
 Alpha  occ. eigenvalues --   -0.64716  -0.62647  -0.62336  -0.62062  -0.59490
 Alpha  occ. eigenvalues --   -0.58266  -0.57258  -0.54207  -0.53273  -0.52759
 Alpha  occ. eigenvalues --   -0.52529  -0.51683  -0.50305  -0.49657  -0.49001
 Alpha  occ. eigenvalues --   -0.48018  -0.47082  -0.46740  -0.46217  -0.45784
 Alpha  occ. eigenvalues --   -0.45323  -0.45134  -0.44684  -0.44420  -0.44011
 Alpha  occ. eigenvalues --   -0.43873  -0.42547  -0.41264  -0.41014  -0.40835
 Alpha  occ. eigenvalues --   -0.40385  -0.39970  -0.39280  -0.38400  -0.37942
 Alpha  occ. eigenvalues --   -0.37657  -0.37435  -0.36829  -0.36627  -0.36130
 Alpha  occ. eigenvalues --   -0.35778  -0.34949  -0.34372  -0.34250  -0.33101
 Alpha  occ. eigenvalues --   -0.30938  -0.30306  -0.28597  -0.27310  -0.26396
 Alpha  occ. eigenvalues --   -0.26303  -0.25904  -0.25542  -0.24942  -0.24238
 Alpha  occ. eigenvalues --   -0.23302
 Alpha virt. eigenvalues --   -0.04613  -0.03583  -0.02934  -0.02346   0.00035
 Alpha virt. eigenvalues --    0.00909   0.01696   0.03161   0.04210   0.04977
 Alpha virt. eigenvalues --    0.05658   0.06175   0.06895   0.07265   0.07930
 Alpha virt. eigenvalues --    0.08506   0.09642   0.10039   0.10327   0.10697
 Alpha virt. eigenvalues --    0.10870   0.11628   0.11750   0.12567   0.12619
 Alpha virt. eigenvalues --    0.13056   0.13432   0.13882   0.14124   0.14823
 Alpha virt. eigenvalues --    0.15210   0.15767   0.16041   0.16741   0.17128
 Alpha virt. eigenvalues --    0.17618   0.18322   0.19584   0.20079   0.20824
 Alpha virt. eigenvalues --    0.21550   0.22603   0.22862   0.23025   0.23369
 Alpha virt. eigenvalues --    0.24090   0.24939   0.25433   0.25841   0.27577
 Alpha virt. eigenvalues --    0.27906   0.28891   0.29056   0.30720   0.30815
 Alpha virt. eigenvalues --    0.31025   0.31724   0.32125   0.33968   0.34792
 Alpha virt. eigenvalues --    0.35947   0.36856   0.37229   0.37775   0.38045
 Alpha virt. eigenvalues --    0.38730   0.39775   0.40956   0.41385   0.41830
 Alpha virt. eigenvalues --    0.43255   0.44156   0.45029   0.45144   0.45424
 Alpha virt. eigenvalues --    0.45754   0.46157   0.46497   0.46807   0.47484
 Alpha virt. eigenvalues --    0.47590   0.47732   0.48346   0.49270   0.49375
 Alpha virt. eigenvalues --    0.49614   0.49817   0.50234   0.50609   0.51392
 Alpha virt. eigenvalues --    0.51729   0.51968   0.52249   0.52441   0.52560
 Alpha virt. eigenvalues --    0.53117   0.53621   0.54385   0.54803   0.55259
 Alpha virt. eigenvalues --    0.55580   0.55915   0.56137   0.56801   0.57704
 Alpha virt. eigenvalues --    0.58083   0.58769   0.59198   0.59396   0.59807
 Alpha virt. eigenvalues --    0.60137   0.60632   0.60681   0.61164   0.61384
 Alpha virt. eigenvalues --    0.61637   0.62125   0.62356   0.63444   0.63907
 Alpha virt. eigenvalues --    0.64462   0.64613   0.64704   0.64980   0.65226
 Alpha virt. eigenvalues --    0.65528   0.66273   0.66370   0.66778   0.67179
 Alpha virt. eigenvalues --    0.67332   0.67456   0.67722   0.68664   0.69350
 Alpha virt. eigenvalues --    0.69384   0.69883   0.70044   0.70253   0.70935
 Alpha virt. eigenvalues --    0.71183   0.72127   0.72686   0.73183   0.73748
 Alpha virt. eigenvalues --    0.73944   0.75408   0.76184   0.76797   0.77472
 Alpha virt. eigenvalues --    0.77561   0.78272   0.78486   0.80805   0.82218
 Alpha virt. eigenvalues --    0.83591   0.83877   0.84566   0.85194   0.85469
 Alpha virt. eigenvalues --    0.85571   0.87342   0.87394   0.87937   0.88089
 Alpha virt. eigenvalues --    0.88556   0.88667   0.89456   0.90118   0.91175
 Alpha virt. eigenvalues --    0.91618   0.92168   0.92593   0.93178   0.93863
 Alpha virt. eigenvalues --    0.94018   0.94980   0.96097   0.96719   0.96770
 Alpha virt. eigenvalues --    0.98719   0.99206   0.99405   1.00354   1.00609
 Alpha virt. eigenvalues --    1.01065   1.01655   1.02155   1.02428   1.03024
 Alpha virt. eigenvalues --    1.04151   1.04961   1.05660   1.06120   1.06369
 Alpha virt. eigenvalues --    1.06784   1.07140   1.08094   1.08692   1.09565
 Alpha virt. eigenvalues --    1.10705   1.10911   1.11445   1.12288   1.12542
 Alpha virt. eigenvalues --    1.13286   1.13810   1.14852   1.15979   1.16597
 Alpha virt. eigenvalues --    1.18268   1.19321   1.20176   1.20888   1.21920
 Alpha virt. eigenvalues --    1.22517   1.23404   1.24776   1.25340   1.25634
 Alpha virt. eigenvalues --    1.26846   1.29882   1.30266   1.31163   1.32532
 Alpha virt. eigenvalues --    1.33028   1.34011   1.34424   1.35024   1.35288
 Alpha virt. eigenvalues --    1.37053   1.37610   1.39752   1.40246   1.41358
 Alpha virt. eigenvalues --    1.42211   1.42481   1.42925   1.43598   1.44359
 Alpha virt. eigenvalues --    1.45822   1.46364   1.47593   1.48502   1.48925
 Alpha virt. eigenvalues --    1.49251   1.49739   1.50086   1.50997   1.51165
 Alpha virt. eigenvalues --    1.51954   1.53163   1.53232   1.55007   1.55350
 Alpha virt. eigenvalues --    1.56400   1.56947   1.57216   1.57977   1.58646
 Alpha virt. eigenvalues --    1.59028   1.59692   1.59845   1.60393   1.60769
 Alpha virt. eigenvalues --    1.61341   1.61818   1.62629   1.62759   1.63427
 Alpha virt. eigenvalues --    1.63591   1.64194   1.64480   1.64948   1.65282
 Alpha virt. eigenvalues --    1.65787   1.66004   1.66422   1.66768   1.66895
 Alpha virt. eigenvalues --    1.67851   1.68264   1.68519   1.68888   1.69254
 Alpha virt. eigenvalues --    1.69754   1.70427   1.70957   1.71394   1.72000
 Alpha virt. eigenvalues --    1.72441   1.72562   1.73256   1.73309   1.73902
 Alpha virt. eigenvalues --    1.74283   1.75183   1.75604   1.76056   1.76446
 Alpha virt. eigenvalues --    1.76878   1.77243   1.77653   1.78376   1.78781
 Alpha virt. eigenvalues --    1.79521   1.79936   1.80268   1.80852   1.81572
 Alpha virt. eigenvalues --    1.81704   1.82266   1.82576   1.84067   1.84474
 Alpha virt. eigenvalues --    1.84983   1.85544   1.86000   1.86178   1.86685
 Alpha virt. eigenvalues --    1.87658   1.88206   1.88594   1.88797   1.89494
 Alpha virt. eigenvalues --    1.90449   1.91609   1.92284   1.93351   1.93855
 Alpha virt. eigenvalues --    1.94299   1.95594   1.96512   1.97172   1.98107
 Alpha virt. eigenvalues --    1.99169   1.99624   1.99839   2.00441   2.00895
 Alpha virt. eigenvalues --    2.01964   2.02640   2.02782   2.04107   2.04536
 Alpha virt. eigenvalues --    2.05232   2.06149   2.06769   2.07211   2.07929
 Alpha virt. eigenvalues --    2.08673   2.09800   2.10008   2.10933   2.12745
 Alpha virt. eigenvalues --    2.12995   2.13973   2.15043   2.16802   2.18253
 Alpha virt. eigenvalues --    2.19502   2.19814   2.20977   2.21898   2.23175
 Alpha virt. eigenvalues --    2.23671   2.24770   2.25513   2.26710   2.28145
 Alpha virt. eigenvalues --    2.30074   2.30630   2.31993   2.32755   2.35044
 Alpha virt. eigenvalues --    2.36472   2.36642   2.40117   2.41132   2.41679
 Alpha virt. eigenvalues --    2.42583   2.42850   2.43206   2.43342   2.43643
 Alpha virt. eigenvalues --    2.43882   2.44630   2.45789   2.46610   2.47554
 Alpha virt. eigenvalues --    2.47806   2.48634   2.48909   2.49413   2.50138
 Alpha virt. eigenvalues --    2.50668   2.52193   2.53165   2.54846   2.55122
 Alpha virt. eigenvalues --    2.56079   2.57602   2.60084   2.61484   2.62993
 Alpha virt. eigenvalues --    2.64482   2.65101   2.67147   2.68469   2.69495
 Alpha virt. eigenvalues --    2.70839   2.71771   2.74063   2.74452   2.75444
 Alpha virt. eigenvalues --    2.76982   2.77217   2.78166   2.78699   2.80237
 Alpha virt. eigenvalues --    2.81068   2.82559   2.83306   2.85840   2.88236
 Alpha virt. eigenvalues --    2.90021   2.94137   2.97516   2.98930   2.99541
 Alpha virt. eigenvalues --    3.00961   3.08786   3.12993   3.17411   3.42339
 Alpha virt. eigenvalues --    3.46122   3.49100   3.59680   3.60720
          Condensed to atoms (all electrons):
 Mulliken atomic charges:
              1
     1  C    0.039006
     2  C   -0.148742
     3  C    0.052563
     4  C    0.044385
     5  C    0.114151
     6  N   -0.278777
     7  C    0.114894
     8  O   -0.252630
     9  C    0.144870
    10  N   -0.228943
    11  N   -0.056178
    12  N   -0.180570
    13  C   -0.003851
    14  C    0.063903
    15  C    0.049184
    16  C    0.051079
    17  C    0.049163
    18  C    0.213782
    19  C    0.058569
    20  C    0.110840
    21  C    0.040051
    22  C    0.025247
    23  C    0.044668
    24  C    0.095505
    25  C   -0.065071
    26  C    0.098897
    27  C   -0.001557
    28  C    0.121508
    29  N   -0.172550
    30  C    0.121086
    31  H    0.012266
    32  H    0.011197
    33  H    0.013478
    34  H   -0.012410
    35  H    0.010647
    36  H    0.009077
    37  H    0.009985
    38  H   -0.006684
    39  H    0.006884
    40  H    0.011918
    41  H    0.021782
    42  H    0.054784
    43  H    0.039736
    44  H   -0.034327
    45  H   -0.038997
    46  H   -0.038012
    47  H   -0.045980
    48  H   -0.049184
    49  H   -0.045820
    50  H   -0.041920
    51  H   -0.046528
    52  H   -0.035271
    53  H   -0.033736
    54  H   -0.013383
    55  H   -0.023982
 Sum of Mulliken atomic charges =   0.00000
 Mulliken charges with hydrogens summed into heavy atoms:
              1
     1  C    0.075947
     2  C   -0.161153
     3  C    0.082273
     4  C    0.044585
     5  C    0.147850
     6  N   -0.278777
     7  C    0.114894
     8  O   -0.252630
     9  C    0.239391
    10  N   -0.228943
    11  N   -0.056178
    12  N   -0.180570
    13  C   -0.003851
    14  C    0.029576
    15  C    0.010187
    16  C    0.013066
    17  C    0.003184
    18  C    0.213782
    19  C    0.058569
    20  C    0.061657
    21  C   -0.005769
    22  C    0.025247
    23  C    0.002748
    24  C    0.048977
    25  C   -0.065071
    26  C    0.063625
    27  C   -0.035293
    28  C    0.108125
    29  N   -0.172550
    30  C    0.097104
 Sum of Mulliken charges with hydrogens summed into heavy atoms =   0.00000
 Electronic spatial extent (au):  <R**2>=          18244.3697
 Charge=              0.0000 electrons
 Dipole moment (field-independent basis, Debye):
    X=             -1.7255    Y=              3.6682    Z=              3.6428  Tot=              5.4500
 Quadrupole moment (field-independent basis, Debye-Ang):
   XX=           -199.9899   YY=           -164.0242   ZZ=           -174.6276
   XY=             13.4774   XZ=             10.1241   YZ=            -11.5885
 Traceless Quadrupole moment (field-independent basis, Debye-Ang):
   XX=            -20.4427   YY=             15.5231   ZZ=              4.9196
   XY=             13.4774   XZ=             10.1241   YZ=            -11.5885
 Octapole moment (field-independent basis, Debye-Ang**2):
  XXX=             56.1596  YYY=             16.9903  ZZZ=             14.1305  XYY=             -7.5719
  XXY=            -77.9808  XXZ=            122.2437  XZZ=            -28.0685  YZZ=              3.8714
  YYZ=             16.3770  XYZ=             -7.4562
 Hexadecapole moment (field-independent basis, Debye-Ang**3):
 XXXX=         -19257.6381 YYYY=          -5730.1659 ZZZZ=          -1466.8055 XXXY=            390.8129
 XXXZ=            -34.1925 YYYX=             32.8691 YYYZ=            -54.7425 ZZZX=            133.1079
 ZZZY=            -63.7876 XXYY=          -3556.4666 XXZZ=          -3394.2729 YYZZ=          -1225.8772
 XXYZ=           -288.4420 YYXZ=             -7.7673 ZZXY=             16.2253
 N-N= 2.657900340488D+03 E-N=-8.285672273303D+03  KE= 1.271121056011D+03
 No NMR shielding tensors so no spin-rotation constants.
 Leave Link  601 at Sun Sep  4 06:42:55 2022, MaxMem=  209715200 cpu:       3.8
 (Enter /opt/gaussian/l701.exe)
 Compute integral first derivatives.
 ... and contract with generalized density number  0.
 Leave Link  701 at Sun Sep  4 06:42:56 2022, MaxMem=  209715200 cpu:       3.3
 (Enter /opt/gaussian/l702.exe)
 L702 exits ... SP integral derivatives will be done elsewhere.
 Leave Link  702 at Sun Sep  4 06:42:56 2022, MaxMem=  209715200 cpu:       0.2
 (Enter /opt/gaussian/l703.exe)
 Compute integral first derivatives, UseDBF=F ICtDFT=           0.
 Integral derivatives from FoFDir, PRISM(SPDF).
 Calling FoFJK, ICntrl=      2127 FMM=F ISym2X=0 I1Cent= 0 IOpClX= 0 NMat=1 NMatS=1 NMatT=0.
 FoFCou: FMM=F IPFlag=           0 FMFlag=      100000 FMFlg1=         800
         NFxFlg=           0 DoJE=F BraDBF=F KetDBF=F FulRan=T
         Omega=  0.000000  0.000000  1.000000  0.000000  0.000000 ICntrl=    2127 IOpCl=  0
         NMat0=    1 NMatS0=    1 NMatT0=    0 NMatD0=    1 NMtDS0=    0 NMtDT0=    0
         I1Cent=           0 NGrid=           0.
 Symmetry not used in FoFCou.
 Leave Link  703 at Sun Sep  4 06:46:39 2022, MaxMem=  209715200 cpu:    1781.5
 (Enter /opt/gaussian/l716.exe)
 Dipole        =-6.78872803D-01 1.44316747D+00 1.43318856D+00
 ***** Axes restored to original set *****
 -------------------------------------------------------------------
 Center     Atomic                   Forces (Hartrees/Bohr)
 Number     Number              X              Y              Z
 -------------------------------------------------------------------
      1        6          -0.010821604   -0.004578446    0.004330116
      2        6           0.008871297   -0.002445428    0.007668802
      3        6           0.001333243   -0.004923998   -0.011279057
      4        6           0.000400615    0.008394836   -0.011341631
      5        6          -0.001121035   -0.007204570    0.013259477
      6        7          -0.004048452    0.009565431   -0.003261435
      7        6          -0.001496102   -0.016979630    0.004418438
      8        8           0.000015761    0.001826747   -0.000529006
      9        6          -0.000619513   -0.005288697    0.001910961
     10        7          -0.000912681   -0.000198364   -0.000190520
     11        7          -0.010443194    0.013151204   -0.006764117
     12        7           0.016442178   -0.015960648   -0.001745015
     13        6           0.004927701   -0.000250982   -0.015465689
     14        6          -0.001652499    0.002135612   -0.001333934
     15        6          -0.005711523    0.004661252    0.003419087
     16        6           0.005704550   -0.004392402   -0.002903501
     17        6           0.000004653    0.001479982   -0.004902369
     18        6          -0.009113531    0.006416078    0.007423115
     19        6           0.008456670    0.002546737   -0.000219494
     20        6          -0.002397766   -0.001578397   -0.000948046
     21        6           0.002361560    0.000618020   -0.002778563
     22        6          -0.009656499   -0.003844706    0.001458122
     23        6           0.002513379    0.001516988    0.002061047
     24        6          -0.002363469   -0.000767605    0.001590009
     25        6           0.012621626    0.002950204   -0.000884299
     26        6          -0.004085609    0.001766668   -0.000533832
     27        6           0.002135002    0.001410488   -0.000361313
     28        6           0.013710760    0.006778272   -0.002652621
     29        7          -0.013715787    0.010282423   -0.007701528
     30        6          -0.006874471   -0.012966442    0.006317287
     31        1           0.009644044   -0.003237228    0.006498068
     32        1           0.001881476   -0.004134846   -0.011267512
     33        1          -0.000004029    0.012060392   -0.000417109
[...]
 00008,-0.00000209,-0.00000186,0.00000198,0.00000096,-0.00000074,-0.000
 00105,-0.00000047,-0.00000003,0.00000190,0.00000232,0.00000243,-0.0000
 0254,0.00000093,-0.00000216,-0.00000267,-0.00000135,-0.00000217,-0.000
 00117,0.00000189,0.00000005,-0.00000519,-0.00000054,-0.00000052,0.0000
 0058,0.00000044,0.00000021,-0.00000044,0.00000089,-0.00000007,-0.00000
 064,0.00000085,-0.00000181,0.00000098,-0.00000054,0.00000320,-0.000025
 93,-0.00001524,0.00000079,-0.00037424,-0.00014037,0.00011084,0.0000431
 8,-0.00003665,-0.00000477,0.00002069,0.00001119,-0.00000552,0.06378078
 ,-0.06128108,0.05436167,0.00000202,-0.00000287,0.00000019,-0.00000041,
 0.00000680,-0.00000278,-0.00000022,-0.00000275,0.00000281,0.00000335,-
 0.00000414,0.00000266,-0.00000466,0.00002891,-0.00000659,-0.00010796,0
 .00001182,-0.00000643,0.00008091,-0.00009732,0.00002518,-0.00002991,0.
 00006008,-0.00000796,0.00001142,-0.00001325,-0.00000150,-0.00001884,0.
 00000750,0.00000656,0.00001062,-0.00000295,-0.00002176,-0.00001140,0.0
 0001305,-0.00000080,-0.00000275,0.00000024,0.00000428,0.00000102,-0.00
 000037,0.00000043,-0.00000058,0.00000266,-0.00000085,0.00000132,-0.000
 00117,0.00000219,0.00000169,0.00000149,-0.00000456,0.00000664,-0.00000
 868,0.00001704,0.00006163,0.00000305,-0.00000831,-0.00002064,0.0000022
 8,-0.00001808,-0.00001526,0.00002050,0.00010303,0.00051986,-0.00117137
 ,0.00065740,-0.00041211,-0.00008390,-0.00009697,-0.00002083,0.00002046
 ,0.00012575,-0.00519638,-0.00099273,-0.00017260,-0.00136479,-0.0274636
 3,0.01192096,-0.07140326,-0.05503969,0.02332648,0.01100229,0.02028870,
 -0.00866010,-0.00270617,0.00408304,-0.00235226,-0.00219573,-0.00002828
 ,-0.00009271,-0.00000079,0.00000077,-0.00000037,0.00000098,0.00000112,
 -0.00000165,-0.00000104,-0.00000276,0.00000005,-0.00000076,0.00000031,
 -0.00000041,-0.00000093,0.00000045,-0.00000079,-0.00000007,-0.00000288
 ,-0.00000138,-0.00000003,0.00000097,0.00000072,-0.00000299,-0.00000101
 ,-0.00000183,-0.00000138,0.00000303,0.00000487,0.00000193,0.00000600,-
 0.00000275,-0.00000638,-0.00000672,-0.00000025,-0.00000089,0.00000067,
 -0.00000292,-0.00000466,0.00000165,0.00000186,-0.00000108,-0.00000002,
 0.00000013,-0.00000172,0.00000051,-0.00000079,-0.00000076,-0.00000058,
 -0.00000204,0.00000024,-0.00000102,0.00000328,-0.00001881,-0.00000889,
 -0.00000348,0.00001439,-0.00001044,-0.00003426,0.00002429,-0.00002049,
 0.00000013,-0.00004132,-0.00001693,0.00001203,0.00119380,0.00037775,-0
 .00001735,0.06985104,0.00000242,-0.00000339,-0.00000001,0.00000095,0.0
 0000948,-0.00000276,-0.00000019,-0.00000318,0.00000357,0.00000384,-0.0
 0000594,0.00000322,-0.00000522,0.00003719,-0.00000659,-0.00011445,-0.0
 0000630,-0.00000259,0.00009381,-0.00007869,0.00002234,-0.00004268,0.00
 004322,-0.00000559,0.00001357,-0.00001724,0.00000008,-0.00002351,0.000
 00883,0.00000883,0.00001394,-0.00000607,-0.00002701,-0.00001554,0.0000
 1621,-0.00000198,-0.00000313,0.00000046,0.00000611,0.00000112,-0.00000
 100,-0.00000056,-0.00000129,0.00000151,-0.00000023,0.00000113,-0.00000
 308,0.00000257,0.00000074,0.00000073,-0.00000641,0.00000830,-0.0000087
 9,0.00002048,0.00008208,0.00001952,-0.00000064,-0.00000795,-0.00002155
 ,0.00000460,-0.00003748,-0.00004740,0.00002945,0.00043280,-0.00009404,
 0.00028234,-0.00014066,-0.00008095,-0.00009484,-0.00004641,0.00001238,
 0.00002223,-0.00149317,0.00321608,0.00227965,0.00096660,-0.00407821,0.
 00303297,-0.05510882,-0.28008559,0.10645861,-0.00957958,-0.01169326,0.
 00523503,0.00343715,-0.00066446,0.00396790,0.00112642,0.00089296,-0.00
 048202,-0.00000125,0.00000134,-0.00000035,0.00000146,0.00000159,-0.000
 00272,-0.00000121,-0.00000451,0.00000022,-0.00000139,0.00000047,-0.000
 00135,-0.00000179,0.00000092,-0.00000125,0.00000011,-0.00000479,-0.000
 00163,-0.00000003,0.00000136,0.00000167,-0.00000379,-0.00000074,-0.000
 00218,-0.00000162,0.00000337,0.00000638,0.00000159,0.00000581,-0.00000
 484,-0.00000814,-0.00000803,-0.00000053,-0.00000144,0.00000116,-0.0000
 0310,-0.00000598,0.00000176,0.00000148,-0.00000074,0.00000047,0.000000
 45,-0.00000133,0.00000136,-0.00000085,0.00000028,0.00000008,-0.0000014
 1,0.00000100,0.00000072,0.00000454,-0.00001630,-0.00000245,-0.00000311
 ,-0.00000494,-0.00001129,0.00001448,0.00000909,-0.00000717,-0.00002271
 ,-0.00001888,-0.00000527,0.00001143,-0.00014999,0.00002309,-0.00190995
 ,0.06043665,0.29304672,-0.00000130,0.00000139,0.00000011,0.00000021,-0
 .00000381,0.00000169,-0.00000096,0.00000039,-0.00000050,-0.00000348,0.
 00000159,-0.00000002,0.00000164,-0.00001320,0.00000386,0.00005379,-0.0
 0001743,-0.00000786,-0.00004290,0.00004853,-0.00000977,0.00001787,-0.0
 0002864,-0.00000256,-0.00000650,0.00000851,0.00000271,0.00001205,-0.00
 000441,-0.00000591,-0.00001036,0.00000498,0.00001195,0.00000902,-0.000
 01041,0.00000079,0.00000142,0.00000066,-0.00000329,-0.00000020,-0.0000
 0060,0.00000114,0.00000099,-0.00000082,-0.00000150,-0.00000159,0.00000
 179,0.00000004,-0.00000138,0.,0.00000399,-0.00000219,0.00000315,-0.000
 00860,-0.00001870,0.00000392,0.00001553,-0.00001256,0.00000864,0.00001
 902,0.00004931,-0.00003616,-0.00007086,-0.00027647,0.00016137,0.000282
 64,0.00000430,-0.00008689,-0.00002338,-0.00003578,-0.00000192,-0.00001
 634,0.00037850,0.00230167,0.00723349,-0.00056021,0.00180013,0.00205043
 ,0.02351699,0.10619525,-0.08306747,0.00470973,0.00696367,-0.00182216,-
 0.00243637,0.00395342,0.00596618,-0.00049474,-0.00056809,-0.00006751,0
 .00000042,-0.00000045,0.00000023,-0.00000010,-0.00000097,0.00000002,0.
 00000066,0.00000222,0.00000005,0.00000016,-0.00000003,0.00000006,0.000
 00001,-0.00000054,0.00000027,0.00000005,0.00000222,0.00000027,0.000001
 46,-0.00000045,-0.00000085,0.00000104,0.00000034,0.00000087,0.00000214
 ,-0.00000141,-0.00000289,-0.00000136,-0.00000249,0.00000222,0.00000431
 ,0.00000339,-0.00000040,0.00000060,-0.00000007,0.00000178,0.00000248,-
 0.00000117,-0.00000113,0.00000088,-0.00000015,-0.00000025,0.00000057,-
 0.00000045,0.00000063,-0.00000063,0.00000041,-0.00000022,0.,-0.0000010
 6,-0.00000140,0.00000359,0.00000198,0.00000399,-0.00004932,-0.00002444
 ,0.00000926,-0.00001509,-0.00000294,-0.00001120,0.00000364,0.00000896,
 0.00000081,0.00019707,-0.00180621,-0.00337645,-0.02513475,-0.11689210,
 0.07681170,0.00000303,-0.00000426,0.00000009,0.00000118,0.00001039,-0.
 00000235,0.00000065,-0.00000337,0.00000343,0.00000564,-0.00000522,0.00
 000122,-0.00000333,0.00003778,-0.00000349,-0.00010232,-0.00000700,0.00
 000596,0.00008980,-0.00005949,0.00001268,-0.00004664,0.00002867,0.0000
 0123,0.00001354,-0.00001880,-0.00000006,-0.00002428,0.00000895,0.00001
 025,0.00001661,-0.00000878,-0.00002698,-0.00001781,0.00001820,-0.00000
 210,-0.00000272,-0.00000010,0.00000631,0.00000112,-0.00000076,-0.00000
 181,-0.00000176,0.00000054,0.00000118,0.00000128,-0.00000410,0.0000021
 9,0.00000054,-0.00000021,-0.00000712,0.00000743,-0.00000714,0.00001946
 ,0.00006645,0.00002598,-0.00001550,0.00001605,-0.00003845,0.00000359,-
 0.00003768,0.00000005,-0.00001414,0.00012278,0.00008804,0.00002558,-0.
 00004926,-0.00002503,0.00000249,-0.00000684,0.00001307,0.00001336,0.00
 022413,0.00054415,-0.00019225,-0.00148743,0.00361854,-0.00205821,-0.01
 621127,-0.00885643,0.00298560,-0.31335304,-0.06173218,0.01519988,-0.00
 090586,-0.00858101,0.00406442,0.00307534,0.00036717,-0.00056228,-0.000
 00159,0.00000157,-0.00000054,0.00000115,0.00000200,-0.00000223,-0.0000
 0142,-0.00000484,0.00000012,-0.00000152,0.00000035,-0.00000133,-0.0000
 0159,0.00000129,-0.00000144,-0.00000011,-0.00000513,-0.00000139,-0.000
 00090,0.00000177,0.00000178,-0.00000313,-0.00000060,-0.00000212,-0.000
 00320,0.00000333,0.00000660,0.00000276,0.00000524,-0.00000493,-0.00000
 883,-0.00000776,0.00000014,-0.00000160,0.00000114,-0.00000315,-0.00000
 609,0.00000199,0.00000127,-0.00000082,0.00000075,0.00000078,-0.0000009
 7,0.00000168,-0.00000091,0.00000131,0.00000019,-0.00000053,0.00000137,
 0.00000224,0.00000441,-0.00000928,-0.00000156,-0.00000517,0.00002374,0
 .00001043,0.00004637,0.00001046,-0.00000833,-0.00002100,-0.00000944,-0
 .00000640,0.00000987,-0.00092880,-0.00047101,0.00019126,0.00055872,0.0
 0032067,0.00001138,0.32911523,0.00000102,-0.00000146,-0.00000015,0.000
 00115,0.00000374,0.00000029,0.00000006,-0.00000102,0.00000133,0.000002
 32,-0.00000081,-0.00000067,0.00000227,0.00001174,0.00000156,-0.0000443
 7,0.00000643,-0.00000582,0.00003155,-0.00003017,0.00000491,-0.00001363
 ,0.00001616,-0.00000046,0.00000456,-0.00000522,0.00000032,-0.00000802,
 0.00000301,0.00000299,0.00000475,-0.00000246,-0.00000897,-0.00000552,0
 .00000562,-0.00000072,-0.00000111,0.00000019,0.00000203,0.00000040,-0.
 00000043,-0.00000041,-0.00000065,0.00000036,-0.00000003,0.00000024,-0.
 00000107,0.00000080,0.00000018,0.00000007,-0.00000209,0.00000269,-0.00
 000280,0.00000681,0.00004734,-0.00001427,0.00003123,-0.00001505,0.0000
 4836,-0.00008238,-0.00015290,-0.00007977,0.00012197,-0.00013477,-0.000
 07250,-0.00076814,0.00009530,0.00006924,0.00001637,-0.00005043,0.00003
 730,-0.00003905,-0.00000748,-0.00077910,0.00020379,0.00251367,-0.00104
 530,0.00372104,0.01828856,0.00896258,-0.00029523,-0.06144338,-0.066436
 17,0.00870055,-0.03160230,-0.01664683,0.00418122,-0.00178063,-0.001781
 94,0.00540157,-0.00000077,0.00000054,-0.00000018,0.00000056,0.00000064
 ,-0.00000103,-0.00000059,-0.00000176,0.00000012,-0.00000084,0.00000059
 ,-0.00000095,-0.00000085,0.00000035,-0.00000074,-0.00000021,-0.0000020
 6,-0.00000050,-0.00000001,0.00000090,0.00000083,-0.00000172,-0.0000003
 6,-0.00000089,-0.00000080,0.00000083,0.00000303,0.00000092,0.00000268,
 -0.00000240,-0.00000315,-0.00000180,-0.00000015,-0.00000031,0.00000051
 ,-0.00000102,-0.00000184,0.00000067,0.00000040,-0.00000014,0.00000025,
 0.00000020,-0.00000023,0.00000049,-0.00000020,0.00000020,0.00000016,-0
 .00000040,0.00000049,0.00000029,0.00000151,-0.00001509,-0.00001137,-0.
 00000313,-0.00001627,0.00000611,-0.00003680,0.00002163,0.00000300,-0.0
 0006450,0.00000114,-0.00000448,0.00000080,0.00101598,0.00022528,-0.000
 22587,-0.00045397,0.00001383,-0.00137732,0.07467958,0.07767658,-0.0000
 0133,0.00000159,-0.00000004,0.00000035,-0.00000367,0.00000251,-0.00000
 096,0.00000103,-0.00000095,-0.00000297,0.00000349,-0.00000180,0.000008
 40,-0.00001538,0.00001177,0.00004185,0.00000201,-0.00001118,-0.0000402
 0,0.00003937,-0.00001566,0.00001901,-0.00002418,0.00000533,-0.00000523
 ,0.00000688,0.00000113,0.00000992,-0.00000337,-0.00000453,-0.00000786,
 0.00000385,0.00001000,0.00000707,-0.00000805,0.00000080,0.00000125,0.0
 0000034,-0.00000272,-0.00000024,-0.00000022,0.00000093,0.00000090,-0.0
 0000069,-0.00000095,-0.00000113,0.00000140,-0.00000025,-0.00000070,-0.
 00000024,0.00000278,-0.00000225,0.00000291,-0.00000754,0.00004373,-0.0
 0006830,0.00016364,0.00007892,0.00016022,-0.00012862,-0.00023631,-0.00
 014087,0.00006465,-0.00013858,-0.00084149,-0.00129808,0.00027466,0.000
 15261,-0.00007570,-0.00019198,0.00000699,-0.00002845,0.00037794,0.0000
 6268,-0.00047885,-0.00161329,0.00389886,0.00514116,-0.00920548,-0.0017
 7878,0.00667405,0.01495617,0.00900306,-0.04404582,0.01474083,0.0049173
 3,-0.00578548,0.00019108,0.00569617,0.00779140,0.00000039,-0.00000040,
 0.00000012,-0.00000004,-0.00000098,0.00000021,0.00000069,0.00000187,0.
 00000016,-0.00000002,0.,0.00000008,0.00000020,-0.00000040,0.00000028,0
 .00000011,0.00000186,0.00000058,0.00000103,-0.00000045,-0.00000070,0.0
 0000127,0.00000029,0.00000036,0.00000173,-0.00000139,-0.00000257,-0.00
 000191,-0.00000113,0.00000150,0.00000387,0.00000402,-0.00000043,0.0000
 0091,-0.00000024,0.00000170,0.00000226,-0.00000078,-0.00000071,0.00000
 053,-0.00000019,-0.00000014,0.00000036,-0.00000036,0.00000041,-0.00000
 027,0.00000018,0.00000010,-0.00000008,-0.00000050,-0.00000130,-0.00000
 890,-0.00001432,-0.00000259,-0.00001320,0.00001450,0.00000603,0.000010
 24,0.00000722,-0.00000989,0.00000710,-0.00000194,-0.00000969,-0.000446
 67,-0.00028669,-0.00019500,0.00035903,-0.00130803,-0.00241129,-0.01965
 881,-0.01978312,0.03420710,-0.00000397,0.00000664,0.00000063,0.0000009
 8,-0.00001638,0.00000304,0.00000036,0.00000472,-0.00000530,-0.00001037
 ,0.00000532,0.00000127,0.00000253,-0.00005150,0.00000435,0.00014306,0.
 00000517,0.00001819,-0.00011989,0.00009718,-0.00001703,0.00006811,-0.0
 0005644,0.00000229,-0.00001698,0.00002118,-0.00000264,0.00002975,-0.00
 001027,-0.00001264,-0.00001956,0.00000989,0.00003303,0.00002090,-0.000
 02175,0.00000220,0.00000352,-0.00000002,-0.00000743,-0.00000114,0.0000
 0071,0.00000168,0.00000236,-0.00000170,-0.00000091,-0.00000187,0.00000
 436,-0.00000253,-0.00000110,-0.00000046,0.00000828,-0.00000953,0.00000
 992,-0.00002486,-0.00000766,-0.00017318,0.00029084,0.00022265,0.000180
 07,-0.00010887,-0.00022306,-0.00014112,-0.00018784,0.00122339,0.000711
 34,-0.00016108,-0.00035945,0.00014634,0.00011407,-0.00037611,-0.000310
 12,-0.00001439,0.00594278,0.02051154,-0.00852279,-0.00398667,0.0023973
 7,-0.00136749,-0.00075058,-0.00044555,0.00013269,-0.00396647,-0.002592
 43,0.00062005,-0.01272313,-0.03376074,0.01426518,-0.05500216,-0.024101
 78,0.00873467,0.00000129,-0.00000156,-0.00000007,-0.00000159,-0.000003
 06,0.00000348,0.00000289,0.00000721,-0.00000008,0.00000080,-0.00000135
 ,0.00000052,0.00000070,-0.00000081,0.00000166,0.00000146,0.00000822,0.
 00000243,0.00000101,-0.00000398,-0.00000156,0.00000539,0.00000230,0.00
 000250,0.00000452,-0.00000490,-0.00001101,-0.00000875,-0.00000924,0.00
 000723,0.00001220,0.00000876,0.00000009,0.00000261,-0.00000114,0.00000
 418,0.00000718,-0.00000296,-0.00000154,0.00000106,-0.00000086,-0.00000
 062,0.00000128,-0.00000173,0.00000104,-0.00000078,-0.00000019,0.000001
 25,-0.00000140,-0.00000150,-0.00000532,0.00000174,0.00000693,0.0000093
 7,0.00002730,0.00001119,0.00006994,-0.00081782,0.00036948,0.00060293,-
 0.00001465,0.00004655,0.00000506,0.00033027,0.00127860,-0.00052585,0.0
 0024737,-0.00011686,0.00012067,-0.00013073,-0.00095951,0.00043662,0.07
 024593,0.00000258,-0.00000314,0.00000041,0.00000161,0.00000835,0.00000
 128,0.00000113,-0.00000148,0.00000267,0.00000755,0.00000188,-0.0000029
 6,0.00001103,0.00002188,0.00001624,-0.00012245,0.00003044,-0.00004997,
 0.00008404,-0.00009409,-0.00000019,-0.00004102,0.00005513,-0.00000466,
 0.00001385,-0.00001581,0.00000535,-0.00002272,0.00000977,0.00000919,0.
 00001279,-0.00000472,-0.00002707,-0.00001497,0.00001578,-0.00000135,-0
 .00000323,0.00000071,0.00000521,0.00000150,-0.00000116,-0.00000005,-0.
 00000095,0.00000204,-0.00000070,0.00000116,-0.00000204,0.00000225,0.00
 000135,0.00000127,-0.00000559,0.00000792,-0.00000935,0.00002045,0.0000
 7049,-0.00004345,-0.00002921,-0.00009103,0.00002740,-0.00005312,0.0002
 0360,0.00015584,0.00009184,-0.00080799,-0.00015350,-0.00095543,0.00029
 580,0.00010561,0.00092716,-0.00010701,0.00025348,-0.00039797,-0.005814
 52,-0.01163154,0.00771958,0.00351291,0.00060463,0.00263355,0.00029671,
 0.00015200,-0.00034612,-0.00038374,0.00396332,0.00280703,-0.01070911,-
 0.00714457,0.00110072,-0.02304137,-0.28268540,0.10058282,-0.00000201,0
 .00000124,-0.00000102,0.00000160,0.00000125,-0.00000216,-0.00000129,-0
 .00000410,0.00000037,-0.00000262,0.00000200,-0.00000217,-0.00000226,0.
 00000079,-0.00000180,-0.00000041,-0.00000461,-0.00000097,-0.00000048,0
 .00000166,0.00000204,-0.00000530,-0.00000157,-0.00000420,-0.00000172,0
 .00000187,0.00000730,0.00000429,0.00001202,-0.00000695,-0.00000698,-0.
 00000289,0.00000008,-0.00000037,0.00000058,-0.00000325,-0.00000369,0.0
 0000279,0.00000185,-0.00000099,0.00000029,0.00000049,-0.00000158,0.000
 00112,-0.00000099,-0.00000009,-0.00000024,-0.00000188,0.00000062,-0.00
 000033,0.00000399,0.00001733,-0.00000819,-0.00001234,-0.00006992,-0.00
 001976,-0.00011401,-0.00008599,0.00017460,-0.00071745,0.00003312,0.000
 03162,0.00002249,-0.00029974,-0.00074240,0.00025640,0.00005832,-0.0004
 1920,-0.00059395,0.00006219,-0.00017534,0.00029543,0.03694213,0.297527
 52,-0.00000130,-0.00000075,0.00000128,-0.00000199,0.00000303,-0.000002
 66,-0.00000908,-0.00000546,0.00000525,-0.00001545,-0.00000267,0.000008
 50,0.00000405,0.00001595,0.00001438,0.00000672,0.00001507,-0.00001136,
 -0.00002812,0.00001430,-0.00000023,0.00001951,-0.00002323,0.00000214,-
 0.00000489,0.00000839,-0.00000194,0.00000327,-0.00000310,-0.00000288,-
 0.00000573,0.00000128,0.00000491,0.00000406,-0.00000456,0.00000007,0.0
 0000042,0.00000050,-0.00000113,0.00000005,-0.00000061,0.00000051,0.000
 00031,-0.00000077,-0.00000091,-0.00000105,0.00000034,-0.00000043,-0.00
 000169,-0.00000054,0.00000170,-0.00000002,0.00000139,-0.00000362,0.000
 07583,-0.00018463,0.00044905,0.00035861,0.00033545,-0.00027764,-0.0009
 6022,-0.00002800,-0.00031515,0.00198250,-0.00037660,-0.00214706,0.0008
 5069,-0.00047468,0.00002418,-0.00046770,-0.00017006,-0.00022037,0.0005
 9428,0.00887256,0.00280360,-0.00153812,0.00291810,0.00494329,-0.000632
 05,-0.00021178,-0.00037678,0.00002269,0.00246271,0.00982130,0.00435072
 ,0.00051281,-0.00453359,0.00905775,0.09957890,-0.08236732,0.00000213,0
 .00000022,0.00000046,0.00000215,-0.00000064,-0.00000393,0.00000043,0.0
 0000091,-0.00000004,0.00000014,-0.00000217,0.00000499,0.00000378,-0.00
 000043,-0.00000017,0.00000017,0.00000013,-0.00000178,0.00000355,0.0000
 0169,-0.00000595,0.00000545,-0.00000063,-0.00000154,0.00000256,0.00000
 457,-0.00000529,-0.00000328,0.00000334,0.00000313,0.00000079,-0.000003
 54,-0.00000361,0.00000089,0.00000101,0.00000212,-0.00000175,-0.0000014
 1,-0.00000170,0.00000060,0.00000003,0.,0.00000055,-0.00000004,0.000000
 34,0.00000008,0.00000063,0.00000020,0.00000060,0.00000060,-0.00000029,
 -0.00001222,-0.00000865,-0.00000737,-0.00001378,-0.00002669,0.00000061
 ,0.00072220,0.00006131,-0.00004325,0.00002206,-0.00001411,-0.00001051,
 0.00007927,0.00024476,-0.00044466,0.00008225,-0.00063325,-0.00151192,-
 0.00004309,0.00029762,0.00043213,-0.01451961,-0.11317861,0.07378095\\-
 0.00000009,-0.00000032,-0.00000113,-0.00000319,-0.00000003,-0.00000369
 ,-0.00000094,0.00000099,0.00000134,-0.00000084,0.00000046,0.00000104,-
 0.00000080,-0.00000872,-0.00000673,-0.00000275,0.00001424,0.00001512,0
 .00000642,-0.00001774,-0.00000266,-0.00000329,0.00000773,-0.00000348,0
 .00000860,0.00000529,0.00000597,-0.00000977,0.00000451,0.00002487,0.00
 001782,-0.00001400,-0.00001601,-0.00001022,0.00001294,0.00000664,0.000
 00904,-0.00000452,-0.00000115,0.,0.00000376,-0.00000328,-0.00000056,0.
 00000085,0.00000782,0.00000362,-0.00000203,0.00000348,-0.00000127,0.00
 000169,-0.00000299,-0.00000803,0.00000761,-0.00000729,0.00000096,0.000
 00114,-0.00000631,-0.00000032,-0.00000205,0.00000164,0.00000363,-0.000
 00209,0.00000138,-0.00000549,-0.00000230,-0.00000103,-0.00000003,-0.00
 000063,0.00000146,-0.00000032,-0.00000168,-0.00000107,0.00000180,0.000
 00258,-0.00000127,-0.00000261,-0.00000282,0.00000353,0.00000982,-0.000
 00294,0.00000048,-0.00000780,0.00000212,-0.00000042,0.00000210,-0.0000
 0574,0.00000209,0.00000340,-0.00000129,-0.00000625,-0.00000207,0.00000
 097,-0.00000210,-0.00000115,-0.00000105,-0.00000101,-0.00000167,-0.000
 00104,-0.00000142,0.00000070,-0.00000078,-0.00000072,-0.00000237,0.000
 00158,-0.00000192,-0.00000155,-0.00000058,-0.00000181,-0.00000024,0.00
 000105,-0.00000206,-0.00000168,0.00000127,-0.00000124,0.00000025,0.000
 00046,-0.00000141,0.00000183,0.00000084,-0.00000094,0.00000127,0.00000
 061,-0.00000126,-0.00000440,-0.00000265,-0.00000133,-0.00000132,0.0000
 0124,-0.00000288,0.00000035,0.00000166,0.00000334,0.00000076,0.0000027
 5,0.00000039,-0.00000025,0.00000330,0.00000053,0.00000128,0.00000111,0
 .00000238,0.00000005,0.00000050,-0.00000008,0.00000173,0.00000140,-0.0
 0000041,0.00000240,-0.00000175,-0.00000063,-0.00000115,-0.00000200,0.0
 0000065,-0.00000130,-0.00000127,-0.00000015,0.00000048,-0.00000074,0.0
 0000074,0.00000288,-0.00000051,-0.00000121,-0.00000368,-0.00000340,0.0
 0000246\\\@


 ONLY THE DAY DAWNS TO WHICH YOU ARE AWAKE.

                                 -- THOREAU
 Job cpu time:  0 days 18 hours 46 minutes 53.8 seconds.
 File lengths (MBytes):  RWF=   1793 Int=      0 D2E=      0 Chk=     24 Scr=      1
 Normal termination of Gaussian 09 at Sun Sep  4 11:57:14 2022.
