 Entering Gaussian System, Link 0=g09
 Input=Mol23.gjf
 Output=Mol23.log
 Initial command:
 /opt/gaussian/l1.exe /home/scr/lqcapf-6/Gau-209582.inp -scrdir=/home/scr/lqcapf-6/
 Entering Link 1 = /opt/gaussian/l1.exe PID=    209584.
  
 Copyright (c) 1988,1990,1992,1993,1995,1998,2003,2009,2011,
            Gaussian, Inc.  All Rights Reserved.
  
 This is part of the Gaussian(R) 09 program.  It is based on
 the Gaussian(R) 03 system (copyright 2003, Gaussian, Inc.),
 the Gaussian(R) 98 system (copyright 1998, Gaussian, Inc.),
 the Gaussian(R) 94 system (copyright 1995, Gaussian, Inc.),
 the Gaussian 92(TM) system (copyright 1992, Gaussian, Inc.),
 the Gaussian 90(TM) system (copyright 1990, Gaussian, Inc.),
 the Gaussian 88(TM) system (copyright 1988, Gaussian, Inc.),
 the Gaussian 86(TM) system (copyright 1986, Carnegie Mellon
 University), and the Gaussian 82(TM) system (copyright 1983,
 Carnegie Mellon University). Gaussian is a federally registered
 trademark of Gaussian, Inc.
  
 This software contains proprietary and confidential information,
 including trade secrets, belonging to Gaussian, Inc.
  
 This software is provided under written license and may be
 used, copied, transmitted, or stored only in accord with that
 written license.
  
 The following legend is applicable only to US Government
 contracts under FAR:
  
                    RESTRICTED RIGHTS LEGEND
  
 Use, reproduction and disclosure by the US Government is
 subject to restrictions as set forth in subparagraphs (a)
 and (c) of the Commercial Computer Software - Restricted
 Rights clause in FAR 52.227-19.
  
 Gaussian, Inc.
 340 Quinnipiac St., Bldg. 40, Wallingford CT 06492
  
  
 ---------------------------------------------------------------
 Warning -- This program may not be used in any manner that
 competes with the business of Gaussian, Inc. or will provide
 assistance to any competitor of Gaussian, Inc.  The licensee
 of this program is prohibited from giving any competitor of
 Gaussian, Inc. access to this program.  By using this program,
 the user acknowledges that Gaussian, Inc. is engaged in the
 business of creating and licensing software in the field of
 computational chemistry and represents and warrants to the
 licensee that it is not a competitor of Gaussian, Inc. and that
 it will not use this program in any manner prohibited above.
 ---------------------------------------------------------------
  

 Cite this work as:
 Gaussian 09, Revision C.01,
 M. J. Frisch, G. W. Trucks, H. B. Schlegel, G. E. Scuseria, 
 M. A. Robb, J. R. Cheeseman, G. Scalmani, V. Barone, B. Mennucci, 
 G. A. Petersson, H. Nakatsuji, M. Caricato, X. Li, H. P. Hratchian, 
 A. F. Izmaylov, J. Bloino, G. Zheng, J. L. Sonnenberg, M. Hada, 
 M. Ehara, K. Toyota, R. Fukuda, J. Hasegawa, M. Ishida, T. Nakajima, 
 Y. Honda, O. Kitao, H. Nakai, T. Vreven, J. A. Montgomery, Jr., 
 J. E. Peralta, F. Ogliaro, M. Bearpark, J. J. Heyd, E. Brothers, 
 K. N. Kudin, V. N. Staroverov, T. Keith, R. Kobayashi, J. Normand, 
 K. Raghavachari, A. Rendell, J. C. Burant, S. S. Iyengar, J. Tomasi, 
 M. Cossi, N. Rega, J. M. Millam, M. Klene, J. E. Knox, J. B. Cross, 
 V. Bakken, C. Adamo, J. Jaramillo, R. Gomperts, R. E. Stratmann, 
 O. Yazyev, A. J. Austin, R. Cammi, C. Pomelli, J. W. Ochterski, 
 R. L. Martin, K. Morokuma, V. G. Zakrzewski, G. A. Voth, 
 P. Salvador, J. J. Dannenberg, S. Dapprich, A. D. Daniels, 
 O. Farkas, J. B. Foresman, J. V. Ortiz, J. Cioslowski, 
 and D. J. Fox, Gaussian, Inc., Wallingford CT, 2010.
 
 ******************************************
 Gaussian 09:  EM64L-G09RevC.01 23-Sep-2011
                 4-Sep-2022 
 ******************************************
 %nprocshared=8
 Will use up to    8 processors via shared memory.
 %mem=1600MB
 -------------------------
 #p opt freq b3lyp/cc-pvdz
 -------------------------
 1/14=-1,18=20,19=15,26=3,38=1/1,3;
 2/9=110,12=2,17=6,18=5,40=1/2;
 3/5=16,11=2,16=1,25=1,30=1,71=1,74=-5/1,2,3;
 4//1;
 5/5=2,38=5/2;
 6/7=2,8=2,9=2,10=2,28=1/1;
 7//1,2,3,16;
 1/14=-1,18=20,19=15/3(2);
 2/9=110/2;
 99//99;
 2/9=110/2;
 3/5=16,11=2,16=1,25=1,30=1,71=1,74=-5/1,2,3;
 4/5=5,16=3/1;
 5/5=2,38=5/2;
 7//1,2,3,16;
 1/14=-1,18=20,19=15/3(-5);
 2/9=110/2;
 6/7=2,8=2,9=2,10=2,19=2,28=1/1;
 99/9=1/99;
 Leave Link    1 at Sun Sep  4 11:57:14 2022, MaxMem=  209715200 cpu:       0.2
 (Enter /opt/gaussian/l101.exe)
 ---------
 Mol23.log
 ---------
 Charge =  0 Multiplicity = 1
 Symbolic Z-Matrix:
 O                     1.32168  -0.76221  -0.44891 
 C                     1.41971   0.45491  -0.51674 
 C                     2.78838   1.11178  -0.64282 
 N                     3.84888   0.15788  -0.76368 
 N                     4.49744   0.03352  -1.95762 
 N                     5.39848  -0.85256  -1.86012 
 C                     5.38303  -1.36823  -0.57433 
 C                     6.17884  -2.34775   0.01896 
 C                     5.93022  -2.6475    1.3354 
 C                     4.9028   -1.99056   2.04953 
 C                     4.11138  -1.02806   1.47071 
 C                     4.37619  -0.7229    0.13289 
 N                     0.33481   1.28263  -0.46587 
 C                     0.4088    2.75301  -0.47327 
 C                     0.39588   3.37029   0.90569 
 C                    -0.01781   4.81166   1.06609 
 C                    -0.90279   3.71347   1.58847 
 C                    -0.97246   0.696    -0.35886 
 C                    -1.41454   0.15865   0.84006 
 C                    -2.68597  -0.38073   0.93351 
 C                    -3.54295  -0.39282  -0.16664 
 C                    -3.08505   0.1474   -1.36671 
 C                    -1.81038   0.68246  -1.46298 
 C                    -4.90573  -0.97234  -0.06322 
 C                    -5.1386   -2.19166   0.56995 
 C                    -6.42836  -2.69326   0.64053 
 C                    -7.45938  -1.96356   0.07205 
 N                    -7.24738  -0.79702  -0.53383 
 C                    -6.01044  -0.31389  -0.59959 
 H                     2.83284   1.71899  -1.5338 
 H                     2.96812   1.75569   0.20986 
 H                     6.94829  -2.83719  -0.54319 
 H                     6.5147   -3.39421   1.83549 
 H                     4.7328   -2.26159   3.07354 
 H                     3.31677  -0.55815   2.0133 
 H                     1.29344   3.06646  -1.00806 
 H                    -0.4351    3.117    -1.04466 
 H                     1.19186   3.03192   1.54483 
 H                     0.51781   5.42092   1.76747 
 H                    -0.34022   5.34647   0.19223 
 H                    -1.81774   3.50898   1.06711 
 H                    -0.97197   3.57281   2.64956 
 H                    -0.76463   0.15997   1.69187 
 H                    -3.02058  -0.77783   1.8722 
 H                    -3.71277   0.12286  -2.23607 
 H                    -1.45921   1.07053  -2.39955 
 H                    -4.31905  -2.74748   0.98245 
 H                    -6.62789  -3.63217   1.11679 
 H                    -8.47114  -2.31185   0.09767 
 H                    -5.90014   0.63596  -1.08194 
 
 NAtoms=     50 NQM=        0 NQMF=       0 NMMI=     50 NMMIF=      0
                NMic=       0 NMicF=      0.
                    Isotopes and Nuclear Properties:
 (Nuclear quadrupole moments (NQMom) in fm**2, nuclear magnetic moments (NMagM)
  in nuclear magnetons)

  Atom         1           2           3           4           5           6           7           8           9          10
 IAtWgt=          16          12          12          14          14          14          12          12          12          12
 AtmWgt=  15.9949146  12.0000000  12.0000000  14.0030740  14.0030740  14.0030740  12.0000000  12.0000000  12.0000000  12.0000000
 NucSpn=           0           0           0           2           2           2           0           0           0           0
 AtZEff=   0.0000000   0.0000000   0.0000000   0.0000000   0.0000000   0.0000000   0.0000000   0.0000000   0.0000000   0.0000000
 NQMom=    0.0000000   0.0000000   0.0000000   2.0440000   2.0440000   2.0440000   0.0000000   0.0000000   0.0000000   0.0000000
 NMagM=    0.0000000   0.0000000   0.0000000   0.4037610   0.4037610   0.4037610   0.0000000   0.0000000   0.0000000   0.0000000

  Atom        11          12          13          14          15          16          17          18          19          20
 IAtWgt=          12          12          14          12          12          12          12          12          12          12
 AtmWgt=  12.0000000  12.0000000  14.0030740  12.0000000  12.0000000  12.0000000  12.0000000  12.0000000  12.0000000  12.0000000
 NucSpn=           0           0           2           0           0           0           0           0           0           0
 AtZEff=   0.0000000   0.0000000   0.0000000   0.0000000   0.0000000   0.0000000   0.0000000   0.0000000   0.0000000   0.0000000
 NQMom=    0.0000000   0.0000000   2.0440000   0.0000000   0.0000000   0.0000000   0.0000000   0.0000000   0.0000000   0.0000000
 NMagM=    0.0000000   0.0000000   0.4037610   0.0000000   0.0000000   0.0000000   0.0000000   0.0000000   0.0000000   0.0000000

  Atom        21          22          23          24          25          26          27          28          29          30
 IAtWgt=          12          12          12          12          12          12          12          14          12           1
 AtmWgt=  12.0000000  12.0000000  12.0000000  12.0000000  12.0000000  12.0000000  12.0000000  14.0030740  12.0000000   1.0078250
 NucSpn=           0           0           0           0           0           0           0           2           0           1
 AtZEff=   0.0000000   0.0000000   0.0000000   0.0000000   0.0000000   0.0000000   0.0000000   0.0000000   0.0000000   0.0000000
 NQMom=    0.0000000   0.0000000   0.0000000   0.0000000   0.0000000   0.0000000   0.0000000   2.0440000   0.0000000   0.0000000
 NMagM=    0.0000000   0.0000000   0.0000000   0.0000000   0.0000000   0.0000000   0.0000000   0.4037610   0.0000000   2.7928460

  Atom        31          32          33          34          35          36          37          38          39          40
 IAtWgt=           1           1           1           1           1           1           1           1           1           1
 AtmWgt=   1.0078250   1.0078250   1.0078250   1.0078250   1.0078250   1.0078250   1.0078250   1.0078250   1.0078250   1.0078250
 NucSpn=           1           1           1           1           1           1           1           1           1           1
 AtZEff=   0.0000000   0.0000000   0.0000000   0.0000000   0.0000000   0.0000000   0.0000000   0.0000000   0.0000000   0.0000000
 NQMom=    0.0000000   0.0000000   0.0000000   0.0000000   0.0000000   0.0000000   0.0000000   0.0000000   0.0000000   0.0000000
 NMagM=    2.7928460   2.7928460   2.7928460   2.7928460   2.7928460   2.7928460   2.7928460   2.7928460   2.7928460   2.7928460

  Atom        41          42          43          44          45          46          47          48          49          50
 IAtWgt=           1           1           1           1           1           1           1           1           1           1
 AtmWgt=   1.0078250   1.0078250   1.0078250   1.0078250   1.0078250   1.0078250   1.0078250   1.0078250   1.0078250   1.0078250
 NucSpn=           1           1           1           1           1           1           1           1           1           1
 AtZEff=   0.0000000   0.0000000   0.0000000   0.0000000   0.0000000   0.0000000   0.0000000   0.0000000   0.0000000   0.0000000
 NQMom=    0.0000000   0.0000000   0.0000000   0.0000000   0.0000000   0.0000000   0.0000000   0.0000000   0.0000000   0.0000000
 NMagM=    2.7928460   2.7928460   2.7928460   2.7928460   2.7928460   2.7928460   2.7928460   2.7928460   2.7928460   2.7928460
 Leave Link  101 at Sun Sep  4 11:57:14 2022, MaxMem=  209715200 cpu:       0.9
 (Enter /opt/gaussian/l103.exe)

 GradGradGradGradGradGradGradGradGradGradGradGradGradGradGradGradGradGrad
 Berny optimization.
 Initialization pass.
                           ----------------------------
                           !    Initial Parameters    !
                           ! (Angstroms and Degrees)  !
 --------------------------                            --------------------------
 ! Name  Definition              Value          Derivative Info.                !
 --------------------------------------------------------------------------------
 ! R1    R(1,2)                  1.2229         estimate D2E/DX2                !
 ! R2    R(2,3)                  1.5234         estimate D2E/DX2                !
 ! R3    R(2,13)                 1.3655         estimate D2E/DX2                !
 ! R4    R(3,4)                  1.4315         estimate D2E/DX2                !
 ! R5    R(3,30)                 1.0791         estimate D2E/DX2                !
 ! R6    R(3,31)                 1.0835         estimate D2E/DX2                !
 ! R7    R(4,5)                  1.3644         estimate D2E/DX2                !
 ! R8    R(4,12)                 1.363          estimate D2E/DX2                !
 ! R9    R(5,6)                  1.2675         estimate D2E/DX2                !
 ! R10   R(6,7)                  1.3854         estimate D2E/DX2                !
 ! R11   R(7,8)                  1.3945         estimate D2E/DX2                !
 ! R12   R(7,12)                 1.3894         estimate D2E/DX2                !
 ! R13   R(8,9)                  1.3728         estimate D2E/DX2                !
 ! R14   R(8,32)                 1.0713         estimate D2E/DX2                !
 ! R15   R(9,10)                 1.4132         estimate D2E/DX2                !
 ! R16   R(9,33)                 1.072          estimate D2E/DX2                !
 ! R17   R(10,11)                1.374          estimate D2E/DX2                !
 ! R18   R(10,34)                1.0728         estimate D2E/DX2                !
 ! R19   R(11,12)                1.3975         estimate D2E/DX2                !
 ! R20   R(11,35)                1.0708         estimate D2E/DX2                !
 ! R21   R(13,14)                1.4723         estimate D2E/DX2                !
 ! R22   R(13,18)                1.4369         estimate D2E/DX2                !
 ! R23   R(14,15)                1.5109         estimate D2E/DX2                !
 ! R24   R(14,36)                1.0802         estimate D2E/DX2                !
 ! R25   R(14,37)                1.0822         estimate D2E/DX2                !
 ! R26   R(15,16)                1.5081         estimate D2E/DX2                !
 ! R27   R(15,17)                1.5068         estimate D2E/DX2                !
 ! R28   R(15,38)                1.0754         estimate D2E/DX2                !
 ! R29   R(16,17)                1.504          estimate D2E/DX2                !
 ! R30   R(16,39)                1.0724         estimate D2E/DX2                !
 ! R31   R(16,40)                1.0741         estimate D2E/DX2                !
 ! R32   R(17,41)                1.0727         estimate D2E/DX2                !
 ! R33   R(17,42)                1.0726         estimate D2E/DX2                !
 ! R34   R(18,19)                1.3862         estimate D2E/DX2                !
 ! R35   R(18,23)                1.3861         estimate D2E/DX2                !
 ! R36   R(19,20)                1.3843         estimate D2E/DX2                !
 ! R37   R(19,43)                1.0714         estimate D2E/DX2                !
 ! R38   R(20,21)                1.3946         estimate D2E/DX2                !
 ! R39   R(20,44)                1.0727         estimate D2E/DX2                !
 ! R40   R(21,22)                1.3934         estimate D2E/DX2                !
 ! R41   R(21,24)                1.4845         estimate D2E/DX2                !
 ! R42   R(22,23)                1.3858         estimate D2E/DX2                !
 ! R43   R(22,45)                1.0726         estimate D2E/DX2                !
 ! R44   R(23,46)                1.0729         estimate D2E/DX2                !
 ! R45   R(24,25)                1.3935         estimate D2E/DX2                !
 ! R46   R(24,29)                1.3934         estimate D2E/DX2                !
 ! R47   R(25,26)                1.3857         estimate D2E/DX2                !
 ! R48   R(25,47)                1.0727         estimate D2E/DX2                !
 ! R49   R(26,27)                1.3851         estimate D2E/DX2                !
 ! R50   R(26,48)                1.0715         estimate D2E/DX2                !
 ! R51   R(27,28)                1.3315         estimate D2E/DX2                !
 ! R52   R(27,49)                1.0703         estimate D2E/DX2                !
 ! R53   R(28,29)                1.3296         estimate D2E/DX2                !
 ! R54   R(29,50)                1.071          estimate D2E/DX2                !
 ! A1    A(1,2,3)              120.3814         estimate D2E/DX2                !
 ! A2    A(1,2,13)             122.5142         estimate D2E/DX2                !
 ! A3    A(3,2,13)             117.0983         estimate D2E/DX2                !
 ! A4    A(2,3,4)              112.6596         estimate D2E/DX2                !
 ! A5    A(2,3,30)             110.3637         estimate D2E/DX2                !
 ! A6    A(2,3,31)             109.8868         estimate D2E/DX2                !
 ! A7    A(4,3,30)             105.9454         estimate D2E/DX2                !
 ! A8    A(4,3,31)             109.8499         estimate D2E/DX2                !
 ! A9    A(30,3,31)            107.9703         estimate D2E/DX2                !
 ! A10   A(3,4,5)              119.1283         estimate D2E/DX2                !
 ! A11   A(3,4,12)             131.4296         estimate D2E/DX2                !
 ! A12   A(5,4,12)             109.4402         estimate D2E/DX2                !
 ! A13   A(4,5,6)              109.5313         estimate D2E/DX2                !
 ! A14   A(5,6,7)              108.8851         estimate D2E/DX2                !
 ! A15   A(6,7,8)              130.535          estimate D2E/DX2                !
 ! A16   A(6,7,12)             107.9155         estimate D2E/DX2                !
 ! A17   A(8,7,12)             121.5492         estimate D2E/DX2                !
 ! A18   A(7,8,9)              117.2566         estimate D2E/DX2                !
 ! A19   A(7,8,32)             120.5002         estimate D2E/DX2                !
 ! A20   A(9,8,32)             122.2433         estimate D2E/DX2                !
 ! A21   A(8,9,10)             120.9795         estimate D2E/DX2                !
 ! A22   A(8,9,33)             120.0441         estimate D2E/DX2                !
 ! A23   A(10,9,33)            118.9751         estimate D2E/DX2                !
 ! A24   A(9,10,11)            122.109          estimate D2E/DX2                !
 ! A25   A(9,10,34)            118.6918         estimate D2E/DX2                !
 ! A26   A(11,10,34)           119.1966         estimate D2E/DX2                !
 ! A27   A(10,11,12)           116.5582         estimate D2E/DX2                !
 ! A28   A(10,11,35)           121.4256         estimate D2E/DX2                !
 ! A29   A(12,11,35)           121.996          estimate D2E/DX2                !
 ! A30   A(4,12,7)             104.2222         estimate D2E/DX2                !
 ! A31   A(4,12,11)            134.2282         estimate D2E/DX2                !
 ! A32   A(7,12,11)            121.5457         estimate D2E/DX2                !
 ! A33   A(2,13,14)            124.4202         estimate D2E/DX2                !
 ! A34   A(2,13,18)            118.5634         estimate D2E/DX2                !
 ! A35   A(14,13,18)           116.9911         estimate D2E/DX2                !
 ! A36   A(13,14,15)           113.7671         estimate D2E/DX2                !
 ! A37   A(13,14,36)           109.4785         estimate D2E/DX2                !
 ! A38   A(13,14,37)           107.4203         estimate D2E/DX2                !
 ! A39   A(15,14,36)           109.8956         estimate D2E/DX2                !
 ! A40   A(15,14,37)           109.7435         estimate D2E/DX2                !
 ! A41   A(36,14,37)           106.238          estimate D2E/DX2                !
 ! A42   A(14,15,16)           119.3337         estimate D2E/DX2                !
 ! A43   A(14,15,17)           120.9296         estimate D2E/DX2                !
 ! A44   A(14,15,38)           114.0504         estimate D2E/DX2                !
 ! A45   A(16,15,38)           116.1375         estimate D2E/DX2                !
 ! A46   A(17,15,38)           116.1206         estimate D2E/DX2                !
 ! A47   A(15,16,39)           118.3947         estimate D2E/DX2                !
 ! A48   A(15,16,40)           118.145          estimate D2E/DX2                !
 ! A49   A(17,16,39)           118.7874         estimate D2E/DX2                !
 ! A50   A(17,16,40)           118.0038         estimate D2E/DX2                !
 ! A51   A(39,16,40)           113.5258         estimate D2E/DX2                !
 ! A52   A(15,17,41)           118.1287         estimate D2E/DX2                !
 ! A53   A(15,17,42)           118.2931         estimate D2E/DX2                !
 ! A54   A(16,17,41)           118.1802         estimate D2E/DX2                !
 ! A55   A(16,17,42)           118.509          estimate D2E/DX2                !
 ! A56   A(41,17,42)           113.6271         estimate D2E/DX2                !
 ! A57   A(13,18,19)           120.8523         estimate D2E/DX2                !
 ! A58   A(13,18,23)           119.6466         estimate D2E/DX2                !
 ! A59   A(19,18,23)           119.4954         estimate D2E/DX2                !
 ! A60   A(18,19,20)           120.1554         estimate D2E/DX2                !
 ! A61   A(18,19,43)           119.5828         estimate D2E/DX2                !
 ! A62   A(20,19,43)           120.2614         estimate D2E/DX2                !
 ! A63   A(19,20,21)           120.9663         estimate D2E/DX2                !
 ! A64   A(19,20,44)           119.3275         estimate D2E/DX2                !
 ! A65   A(21,20,44)           119.6962         estimate D2E/DX2                !
 ! A66   A(20,21,22)           118.3009         estimate D2E/DX2                !
 ! A67   A(20,21,24)           120.8336         estimate D2E/DX2                !
 ! A68   A(22,21,24)           120.8649         estimate D2E/DX2                !
 ! A69   A(21,22,23)           120.783          estimate D2E/DX2                !
 ! A70   A(21,22,45)           119.7929         estimate D2E/DX2                !
 ! A71   A(23,22,45)           119.3966         estimate D2E/DX2                !
 ! A72   A(18,23,22)           120.2964         estimate D2E/DX2                !
 ! A73   A(18,23,46)           119.6003         estimate D2E/DX2                !
 ! A74   A(22,23,46)           120.0912         estimate D2E/DX2                !
 ! A75   A(21,24,25)           121.7793         estimate D2E/DX2                !
 ! A76   A(21,24,29)           121.0987         estimate D2E/DX2                !
 ! A77   A(25,24,29)           117.122          estimate D2E/DX2                !
 ! A78   A(24,25,26)           119.6982         estimate D2E/DX2                !
 ! A79   A(24,25,47)           120.0276         estimate D2E/DX2                !
 ! A80   A(26,25,47)           120.2623         estimate D2E/DX2                !
 ! A81   A(25,26,27)           118.7651         estimate D2E/DX2                !
 ! A82   A(25,26,48)           120.8738         estimate D2E/DX2                !
 ! A83   A(27,26,48)           120.3586         estimate D2E/DX2                !
 ! A84   A(26,27,28)           121.9907         estimate D2E/DX2                !
 ! A85   A(26,27,49)           121.4905         estimate D2E/DX2                !
 ! A86   A(28,27,49)           116.5187         estimate D2E/DX2                !
 ! A87   A(27,28,29)           119.2744         estimate D2E/DX2                !
 ! A88   A(24,29,28)           123.1492         estimate D2E/DX2                !
 ! A89   A(24,29,50)           120.7171         estimate D2E/DX2                !
 ! A90   A(28,29,50)           116.1266         estimate D2E/DX2                !
 ! D1    D(1,2,3,4)              4.1822         estimate D2E/DX2                !
 ! D2    D(1,2,3,30)           122.3792         estimate D2E/DX2                !
 ! D3    D(1,2,3,31)          -118.6589         estimate D2E/DX2                !
 ! D4    D(13,2,3,4)          -176.6957         estimate D2E/DX2                !
 ! D5    D(13,2,3,30)          -58.4986         estimate D2E/DX2                !
 ! D6    D(13,2,3,31)           60.4632         estimate D2E/DX2                !
 ! D7    D(1,2,13,14)          176.6737         estimate D2E/DX2                !
 ! D8    D(1,2,13,18)           -1.4379         estimate D2E/DX2                !
 ! D9    D(3,2,13,14)           -2.4282         estimate D2E/DX2                !
 ! D10   D(3,2,13,18)          179.4602         estimate D2E/DX2                !
 ! D11   D(2,3,4,5)            109.7705         estimate D2E/DX2                !
 ! D12   D(2,3,4,12)           -69.6668         estimate D2E/DX2                !
 ! D13   D(30,3,4,5)           -10.9903         estimate D2E/DX2                !
 ! D14   D(30,3,4,12)          169.5724         estimate D2E/DX2                !
 ! D15   D(31,3,4,5)          -127.3678         estimate D2E/DX2                !
 ! D16   D(31,3,4,12)           53.1949         estimate D2E/DX2                !
 ! D17   D(3,4,5,6)            179.7853         estimate D2E/DX2                !
 ! D18   D(12,4,5,6)            -0.6621         estimate D2E/DX2                !
 ! D19   D(3,4,12,7)          -179.7472         estimate D2E/DX2                !
 ! D20   D(3,4,12,11)           -0.486          estimate D2E/DX2                !
 ! D21   D(5,4,12,7)             0.7741         estimate D2E/DX2                !
 ! D22   D(5,4,12,11)         -179.9648         estimate D2E/DX2                !
 ! D23   D(4,5,6,7)              0.2429         estimate D2E/DX2                !
 ! D24   D(5,6,7,8)           -179.5394         estimate D2E/DX2                !
 ! D25   D(5,6,7,12)             0.2499         estimate D2E/DX2                !
 ! D26   D(6,7,8,9)            179.5642         estimate D2E/DX2                !
 ! D27   D(6,7,8,32)            -0.4574         estimate D2E/DX2                !
 ! D28   D(12,7,8,9)            -0.2006         estimate D2E/DX2                !
 ! D29   D(12,7,8,32)          179.7778         estimate D2E/DX2                !
 ! D30   D(6,7,12,4)            -0.6237         estimate D2E/DX2                !
 ! D31   D(6,7,12,11)          179.9976         estimate D2E/DX2                !
 ! D32   D(8,7,12,4)           179.1885         estimate D2E/DX2                !
 ! D33   D(8,7,12,11)           -0.1903         estimate D2E/DX2                !
 ! D34   D(7,8,9,10)             0.3536         estimate D2E/DX2                !
 ! D35   D(7,8,9,33)           179.9415         estimate D2E/DX2                !
 ! D36   D(32,8,9,10)         -179.6244         estimate D2E/DX2                !
 ! D37   D(32,8,9,33)           -0.0364         estimate D2E/DX2                !
 ! D38   D(8,9,10,11)           -0.1267         estimate D2E/DX2                !
 ! D39   D(8,9,10,34)          179.2952         estimate D2E/DX2                !
 ! D40   D(33,9,10,11)        -179.719          estimate D2E/DX2                !
 ! D41   D(33,9,10,34)          -0.2971         estimate D2E/DX2                !
 ! D42   D(9,10,11,12)          -0.2578         estimate D2E/DX2                !
 ! D43   D(9,10,11,35)         178.138          estimate D2E/DX2                !
 ! D44   D(34,10,11,12)       -179.677          estimate D2E/DX2                !
 ! D45   D(34,10,11,35)         -1.2812         estimate D2E/DX2                !
 ! D46   D(10,11,12,4)        -178.7479         estimate D2E/DX2                !
 ! D47   D(10,11,12,7)           0.4117         estimate D2E/DX2                !
 ! D48   D(35,11,12,4)           2.8662         estimate D2E/DX2                !
 ! D49   D(35,11,12,7)        -177.9742         estimate D2E/DX2                !
 ! D50   D(2,13,14,15)         -94.6064         estimate D2E/DX2                !
 ! D51   D(2,13,14,36)          28.7725         estimate D2E/DX2                !
 ! D52   D(2,13,14,37)         143.7233         estimate D2E/DX2                !
 ! D53   D(18,13,14,15)         83.5323         estimate D2E/DX2                !
 ! D54   D(18,13,14,36)       -153.0888         estimate D2E/DX2                !
 ! D55   D(18,13,14,37)        -38.138          estimate D2E/DX2                !
 ! D56   D(2,13,18,19)          75.0452         estimate D2E/DX2                !
 ! D57   D(2,13,18,23)        -105.8255         estimate D2E/DX2                !
 ! D58   D(14,13,18,19)       -103.2066         estimate D2E/DX2                !
 ! D59   D(14,13,18,23)         75.9226         estimate D2E/DX2                !
 ! D60   D(13,14,15,16)       -158.5851         estimate D2E/DX2                !
 ! D61   D(13,14,15,17)        -88.1549         estimate D2E/DX2                !
 ! D62   D(13,14,15,38)         57.8872         estimate D2E/DX2                !
 ! D63   D(36,14,15,16)         78.2635         estimate D2E/DX2                !
 ! D64   D(36,14,15,17)        148.6938         estimate D2E/DX2                !
 ! D65   D(36,14,15,38)        -65.2641         estimate D2E/DX2                !
 ! D66   D(37,14,15,16)        -38.2136         estimate D2E/DX2                !
 ! D67   D(37,14,15,17)         32.2166         estimate D2E/DX2                !
 ! D68   D(37,14,15,38)        178.2587         estimate D2E/DX2                !
 ! D69   D(14,15,16,39)       -140.5061         estimate D2E/DX2                !
 ! D70   D(14,15,16,40)          2.9872         estimate D2E/DX2                !
 ! D71   D(38,15,16,39)          2.2893         estimate D2E/DX2                !
 ! D72   D(38,15,16,40)        145.7826         estimate D2E/DX2                !
 ! D73   D(14,15,17,41)         -0.12           estimate D2E/DX2                !
 ! D74   D(14,15,17,42)        143.3824         estimate D2E/DX2                !
 ! D75   D(38,15,17,41)       -145.5013         estimate D2E/DX2                !
 ! D76   D(38,15,17,42)         -1.9988         estimate D2E/DX2                !
 ! D77   D(39,16,17,41)        143.9698         estimate D2E/DX2                !
 ! D78   D(39,16,17,42)          0.0285         estimate D2E/DX2                !
 ! D79   D(40,16,17,41)          0.0639         estimate D2E/DX2                !
 ! D80   D(40,16,17,42)       -143.8774         estimate D2E/DX2                !
 ! D81   D(13,18,19,20)        178.8055         estimate D2E/DX2                !
 ! D82   D(13,18,19,43)         -1.448          estimate D2E/DX2                !
 ! D83   D(23,18,19,20)         -0.3251         estimate D2E/DX2                !
 ! D84   D(23,18,19,43)        179.4214         estimate D2E/DX2                !
 ! D85   D(13,18,23,22)       -178.5389         estimate D2E/DX2                !
 ! D86   D(13,18,23,46)          2.7271         estimate D2E/DX2                !
 ! D87   D(19,18,23,22)          0.6023         estimate D2E/DX2                !
 ! D88   D(19,18,23,46)       -178.1317         estimate D2E/DX2                !
 ! D89   D(18,19,20,21)         -0.1134         estimate D2E/DX2                !
 ! D90   D(18,19,20,44)       -178.9604         estimate D2E/DX2                !
 ! D91   D(43,19,20,21)       -179.8581         estimate D2E/DX2                !
 ! D92   D(43,19,20,44)          1.2949         estimate D2E/DX2                !
 ! D93   D(19,20,21,22)          0.2709         estimate D2E/DX2                !
 ! D94   D(19,20,21,24)        179.9838         estimate D2E/DX2                !
 ! D95   D(44,20,21,22)        179.1137         estimate D2E/DX2                !
 ! D96   D(44,20,21,24)         -1.1734         estimate D2E/DX2                !
 ! D97   D(20,21,22,23)          0.0079         estimate D2E/DX2                !
 ! D98   D(20,21,22,45)        178.0898         estimate D2E/DX2                !
 ! D99   D(24,21,22,23)       -179.705          estimate D2E/DX2                !
 ! D100  D(24,21,22,45)         -1.6231         estimate D2E/DX2                !
 ! D101  D(20,21,24,25)        -44.7825         estimate D2E/DX2                !
 ! D102  D(20,21,24,29)        135.232          estimate D2E/DX2                !
 ! D103  D(22,21,24,25)        134.923          estimate D2E/DX2                !
 ! D104  D(22,21,24,29)        -45.0624         estimate D2E/DX2                !
 ! D105  D(21,22,23,18)         -0.4456         estimate D2E/DX2                !
 ! D106  D(21,22,23,46)        178.2821         estimate D2E/DX2                !
 ! D107  D(45,22,23,18)       -178.535          estimate D2E/DX2                !
 ! D108  D(45,22,23,46)          0.1927         estimate D2E/DX2                !
 ! D109  D(21,24,25,26)       -179.936          estimate D2E/DX2                !
 ! D110  D(21,24,25,47)         -1.1866         estimate D2E/DX2                !
 ! D111  D(29,24,25,26)          0.05           estimate D2E/DX2                !
 ! D112  D(29,24,25,47)        178.7995         estimate D2E/DX2                !
 ! D113  D(21,24,29,28)        179.7972         estimate D2E/DX2                !
 ! D114  D(21,24,29,50)         -1.2093         estimate D2E/DX2                !
 ! D115  D(25,24,29,28)         -0.189          estimate D2E/DX2                !
 ! D116  D(25,24,29,50)        178.8046         estimate D2E/DX2                !
 ! D117  D(24,25,26,27)          0.1401         estimate D2E/DX2                !
 ! D118  D(24,25,26,48)        179.5629         estimate D2E/DX2                !
 ! D119  D(47,25,26,27)       -178.6064         estimate D2E/DX2                !
 ! D120  D(47,25,26,48)          0.8164         estimate D2E/DX2                !
 ! D121  D(25,26,27,28)         -0.2145         estimate D2E/DX2                !
 ! D122  D(25,26,27,49)        179.7405         estimate D2E/DX2                !
 ! D123  D(48,26,27,28)       -179.6404         estimate D2E/DX2                !
 ! D124  D(48,26,27,49)          0.3146         estimate D2E/DX2                !
 ! D125  D(26,27,28,29)          0.0839         estimate D2E/DX2                !
 ! D126  D(49,27,28,29)       -179.8731         estimate D2E/DX2                !
 ! D127  D(27,28,29,24)          0.124          estimate D2E/DX2                !
 ! D128  D(27,28,29,50)       -178.9123         estimate D2E/DX2                !
 --------------------------------------------------------------------------------
 Trust Radius=3.00D-01 FncErr=1.00D-07 GrdErr=1.00D-06
 Number of steps in this run=    282 maximum allowed number of steps=    300.
 GradGradGradGradGradGradGradGradGradGradGradGradGradGradGradGradGradGrad

 Leave Link  103 at Sun Sep  4 11:57:14 2022, MaxMem=  209715200 cpu:       0.1
 (Enter /opt/gaussian/l202.exe)
                          Input orientation:                          
 ---------------------------------------------------------------------
 Center     Atomic      Atomic             Coordinates (Angstroms)
 Number     Number       Type             X           Y           Z
 ---------------------------------------------------------------------
      1          8           0        1.321680   -0.762210   -0.448910
      2          6           0        1.419710    0.454910   -0.516740
      3          6           0        2.788380    1.111780   -0.642820
      4          7           0        3.848880    0.157880   -0.763680
      5          7           0        4.497440    0.033520   -1.957620
      6          7           0        5.398480   -0.852560   -1.860120
      7          6           0        5.383030   -1.368230   -0.574330
      8          6           0        6.178840   -2.347750    0.018960
      9          6           0        5.930220   -2.647500    1.335400
     10          6           0        4.902800   -1.990560    2.049530
     11          6           0        4.111380   -1.028060    1.470710
     12          6           0        4.376190   -0.722900    0.132890
     13          7           0        0.334810    1.282630   -0.465870
     14          6           0        0.408800    2.753010   -0.473270
     15          6           0        0.395880    3.370290    0.905690
     16          6           0       -0.017810    4.811660    1.066090
     17          6           0       -0.902790    3.713470    1.588470
     18          6           0       -0.972460    0.696000   -0.358860
     19          6           0       -1.414540    0.158650    0.840060
     20          6           0       -2.685970   -0.380730    0.933510
     21          6           0       -3.542950   -0.392820   -0.166640
     22          6           0       -3.085050    0.147400   -1.366710
     23          6           0       -1.810380    0.682460   -1.462980
     24          6           0       -4.905730   -0.972340   -0.063220
     25          6           0       -5.138600   -2.191660    0.569950
     26          6           0       -6.428360   -2.693260    0.640530
     27          6           0       -7.459380   -1.963560    0.072050
     28          7           0       -7.247380   -0.797020   -0.533830
     29          6           0       -6.010440   -0.313890   -0.599590
     30          1           0        2.832840    1.718990   -1.533800
     31          1           0        2.968120    1.755690    0.209860
     32          1           0        6.948290   -2.837190   -0.543190
     33          1           0        6.514700   -3.394210    1.835490
     34          1           0        4.732800   -2.261590    3.073540
     35          1           0        3.316770   -0.558150    2.013300
     36          1           0        1.293440    3.066460   -1.008060
     37          1           0       -0.435100    3.117000   -1.044660
     38          1           0        1.191860    3.031920    1.544830
     39          1           0        0.517810    5.420920    1.767470
     40          1           0       -0.340220    5.346470    0.192230
     41          1           0       -1.817740    3.508980    1.067110
     42          1           0       -0.971970    3.572810    2.649560
     43          1           0       -0.764630    0.159970    1.691870
     44          1           0       -3.020580   -0.777830    1.872200
     45          1           0       -3.712770    0.122860   -2.236070
     46          1           0       -1.459210    1.070530   -2.399550
     47          1           0       -4.319050   -2.747480    0.982450
     48          1           0       -6.627890   -3.632170    1.116790
     49          1           0       -8.471140   -2.311850    0.097670
     50          1           0       -5.900140    0.635960   -1.081940
 ---------------------------------------------------------------------
                    Distance matrix (angstroms):
                    1          2          3          4          5
     1  O    0.000000
     2  C    1.222944   0.000000
     3  C    2.387603   1.523362   0.000000
     4  N    2.707838   2.459690   1.431500   0.000000
     5  N    3.604836   3.424343   2.410857   1.364400   0.000000
     6  N    4.315087   4.398268   3.486126   2.150449   1.267485
     7  C    4.108230   4.362919   3.589895   2.172207   2.159320
     8  C    5.130774   5.548982   4.888918   3.509903   3.521991
     9  C    5.289303   5.779279   5.283626   4.075325   4.481597
    10  C    4.536019   4.969706   4.619960   3.693331   4.507601
    11  C    3.396770   3.659815   3.285765   2.543198   3.609632
    12  C    3.109673   3.248081   2.547335   1.362963   2.226456
    13  N    2.270588   1.365546   2.465868   3.701681   4.594897
    14  C    3.631902   2.510994   2.895649   4.318934   5.129902
    15  C    4.446302   3.401614   3.636318   5.002957   6.012934
    16  C    5.929375   4.853152   4.948150   6.321156   7.236085
    17  C    5.397304   4.521518   5.037081   6.383823   7.435003
    18  C    2.719846   2.409466   3.794394   4.868138   5.737135
    19  C    3.161697   3.156208   4.557623   5.502324   6.541726
    20  C    4.256509   4.433749   5.889050   6.773095   7.754458
    21  C    4.886793   5.046703   6.525052   7.436322   8.248469
    22  C    4.592278   4.594548   5.995934   6.960111   7.606333
    23  C    3.595165   3.373519   4.691010   5.726380   6.360376
    24  C    6.242880   6.500301   7.992423   8.855012   9.644693
    25  C    6.694522   7.155184   8.672978   9.384759  10.207512
    26  C    8.060952   8.534779  10.053537  10.757438  11.556765
    27  C    8.878156   9.221383  10.723122  11.535844  12.291193
    28  N    8.569551   8.757058  10.216255  11.139643  11.859923
    29  C    7.347359   7.470278   8.913677   9.871965  10.600966
    30  H    3.101120   2.151568   1.079132   2.015561   2.406517
    31  H    3.079702   2.148848   1.083508   2.067974   3.162698
    32  H    5.997764   6.434580   5.736649   4.315716   4.030912
    33  H    6.254068   6.804971   6.350703   5.145836   5.496031
    34  H    5.127527   5.589816   5.382539   4.621624   5.534934
    35  H    3.175611   3.320577   3.181640   2.916755   4.184765
    36  H    3.869388   2.660363   2.487774   3.879411   4.512871
    37  H    4.299938   3.287209   3.817487   5.214195   5.888234
    38  H    4.288039   3.308016   3.319883   4.544126   5.673131
    39  H    6.617374   5.540063   5.434489   6.723268   7.664061
    40  H    6.363092   5.246651   5.330858   6.736749   7.500150
    41  H    5.513378   4.724088   5.466879   6.833172   7.817245
    42  H    5.801185   5.046473   5.571056   6.822943   7.979168
    43  H    3.128265   3.120303   4.356673   5.226299   6.405010
    44  H    4.923720   5.190651   6.606055   7.417068   8.476228
    45  H    5.415069   5.422979   6.766192   7.703746   8.215416
    46  H    3.859700   3.494588   4.596719   5.628927   6.062373
    47  H    6.148815   6.740641   8.249300   8.843369   9.700952
    48  H    8.595566   9.172596  10.689594  11.298821  12.110419
    49  H    9.929726  10.288896  11.791792  12.594617  13.338255
    50  H    7.383108   7.343871   8.712612   9.765922  10.451766
                    6          7          8          9         10
     6  N    0.000000
     7  C    1.385428   0.000000
     8  C    2.524975   1.394549   0.000000
     9  C    3.703499   2.362841   1.372835   0.000000
    10  C    4.101964   2.739080   2.424681   1.413203   0.000000
    11  C    3.575172   2.432077   2.850184   2.439072   1.373967
    12  C    2.243653   1.389366   2.429540   2.750477   2.357496
    13  N    5.669543   5.702924   6.896913   7.071005   6.156910
    14  C    6.310340   6.460480   7.717085   7.932394   7.004428
    15  C    7.106910   7.036739   8.180764   8.187024   7.096436
    16  C    8.365542   8.369653   9.526390   9.544143   8.452796
    17  C    8.511604   8.367372   9.452578   9.338951   8.151896
    18  C    6.726120   6.685785   7.781276   7.854712   6.894681
    19  C    7.398024   7.109066   8.038387   7.878156   6.781645
    20  C    8.566523   8.267859   9.126359   8.918436   7.837505
    21  C    9.111992   8.988368   9.918135   9.852952   8.876648
    22  C    8.556498   8.639061   9.693581   9.817737   8.946917
    23  C    7.381170   7.532607   8.672137   8.878989   8.034273
    24  C   10.460399  10.309052  11.169879  11.053511  10.085026
    25  C   10.896260  10.615654  11.331920  11.104615  10.151813
    26  C   12.227656  11.947407  12.627241  12.378184  11.440029
    27  C   13.049604  12.872440  13.643734  13.466448  12.519371
    28  N   12.715341  12.643385  13.526778  13.437538  12.478989
    29  C   11.490977  11.442178  12.373267  12.319468  11.354641
    30  H    3.647172   4.117642   5.490460   6.073904   5.557495
    31  H    4.122431   4.025621   5.213769   5.424846   4.600191
    32  H    2.841650   2.146824   1.071269   2.145122   3.409253
    33  H    4.622063   3.345520   2.123125   1.072046   2.148085
    34  H    5.173925   3.811541   3.380668   2.145663   1.072825
    35  H    4.407219   3.409031   3.920651   3.413950   2.137429
    36  H    5.738996   6.048086   7.364481   7.722750   6.924579
    37  H    7.103030   7.361327   8.645171   8.911310   8.009642
    38  H    6.661721   6.435687   7.492603   7.399441   6.265070
    39  H    8.737099   8.674500   9.770199   9.725239   8.616132
    40  H    8.693261   8.856094  10.086089  10.223933   9.207108
    41  H    8.925555   8.850570   9.967206   9.899753   8.739322
    42  H    8.972388   8.671411   9.649206   9.384002   8.113202
    43  H    7.185108   6.727911   7.569614   7.268423   6.072270
    44  H    9.209580   8.772385   9.514645   9.159729   8.017613
    45  H    9.171023   9.365805  10.441888  10.649768   9.851952
    46  H    7.142631   7.489675   8.710547   9.076193   8.345044
    47  H   10.300549   9.922512  10.549587  10.255833   9.314188
    48  H   12.697315  12.338862  12.917713  12.598551  11.684250
    49  H   14.082927  13.902519  14.650235  14.458347  13.519440
    50  H   11.422787  11.471023  12.490647  12.513275  11.550248
                   11         12         13         14         15
    11  C    0.000000
    12  C    1.397501   0.000000
    13  N    4.832402   4.551199   0.000000
    14  C    5.637787   5.309384   1.472259   0.000000
    15  C    5.785298   5.761449   2.498646   1.510871   0.000000
    16  C    7.163537   7.128075   3.863327   2.605699   1.508116
    17  C    6.902020   7.047533   3.414813   2.625552   1.506819
    18  C    5.671432   5.555461   1.436851   2.480375   3.259336
    19  C    5.686984   5.899981   2.455404   3.432216   3.687351
    20  C    6.849203   7.115629   3.721578   4.623522   4.854763
    21  C    7.853229   7.931674   4.234819   5.060296   5.552051
    22  C    7.824402   7.660047   3.714257   4.449093   5.260009
    23  C    6.826394   6.541826   2.440548   3.192407   4.207447
    24  C    9.146820   9.287342   5.719290   6.503123   6.921293
    25  C    9.366294   9.637401   6.565198   7.504113   7.853565
    26  C   10.702720  10.994468   7.922897   8.811876   9.132754
    27  C   11.692472  11.900574   8.460290   9.189759   9.531528
    28  N   11.536593  11.642912   7.862517   8.439400   8.823724
    29  C   10.356033  10.420456   6.544383   7.115369   7.541882
    30  H    4.267087   3.335058   2.751552   2.840755   3.823176
    31  H    3.262829   2.851665   2.759478   2.830447   3.115691
    32  H    3.921327   3.397500   7.792112   8.603497   9.141452
    33  H    3.392297   3.822037   8.084561   8.966644   9.168585
    34  H    2.115850   3.337987   6.665676   7.511528   7.431455
    35  H    1.070805   2.164591   4.292650   5.059951   5.019068
    36  H    5.554294   5.016409   2.096423   1.080203   2.135501
    37  H    6.646735   6.267373   2.071877   1.082193   2.135076
    38  H    5.001253   5.121739   2.799547   2.182591   1.075443
    39  H    7.388583   7.436765   4.706032   3.485763   2.227693
    40  H    7.879460   7.686696   4.171757   2.780280   2.226243
    41  H    7.476770   7.559520   3.455450   2.811004   2.223827
    42  H    6.956877   7.306817   4.081483   3.511505   2.225558
    43  H    5.023525   5.444071   2.669265   3.576119   3.503001
    44  H    7.147633   7.598712   4.579379   5.452404   5.460150
    45  H    8.733966   8.471042   4.567448   5.197354   6.107165
    46  H    7.100314   6.609201   2.646245   3.167137   4.433381
    47  H    8.617828   8.968159   6.324384   7.397775   7.724219
    48  H   11.056155  11.424609   8.668291   9.633993   9.920300
    49  H   12.722153  12.945265   9.527991  10.238755  10.562370
    50  H   10.464966  10.436727   6.298597   6.682447   7.146125
                   16         17         18         19         20
    16  C    0.000000
    17  C    1.504025   0.000000
    18  C    4.458755   3.591946   0.000000
    19  C    4.863378   3.668617   1.386214   0.000000
    20  C    5.839312   4.513444   2.401184   1.384268   0.000000
    21  C    6.405689   5.187723   2.798195   2.418200   1.394593
    22  C    6.089483   5.119785   2.404113   2.767772   2.393574
    23  C    5.163312   4.395690   1.386136   2.394798   2.764090
    24  C    7.656485   6.380315   4.282683   3.779347   2.504158
    25  C    8.689945   7.338258   5.153445   4.411977   3.070348
    26  C    9.879275   8.513325   6.500208   5.771620   4.408981
    27  C   10.112798   8.804378   7.024178   6.452419   5.102245
    28  N    9.288903   8.068612   6.452468   6.068188   4.809662
    29  C    8.059613   6.862603   5.143838   4.839234   3.661552
    30  H    4.944719   5.261317   4.111849   5.109805   6.399508
    31  H    4.357506   4.551638   4.120019   4.706952   6.087421
    32  H   10.470016  10.444835   8.675004   8.990293  10.051557
    33  H   10.516747  10.276152   8.809231   8.745658   9.723526
    34  H    8.753800   8.346655   7.285513   6.973936   7.947044
    35  H    6.391517   6.019294   5.059400   4.927026   6.101665
    36  H    3.011179   3.461794   3.342880   4.382244   5.611463
    37  H    2.738844   2.740052   2.572998   3.641882   4.605832
    38  H    2.204534   2.203174   3.710100   3.942804   5.201678
    39  H    1.072390   2.228347   5.391387   5.682038   6.679733
    40  H    1.074058   2.220959   4.725495   5.337352   6.233206
    41  H    2.221874   1.072738   3.265080   3.382134   3.987671
    42  H    2.225432   1.072606   4.162527   3.889299   4.638222
    43  H    4.752637   3.557688   2.129792   1.071431   2.135185
    44  H    6.396002   4.973662   3.368174   2.126422   1.072749
    45  H    6.822158   5.951099   3.370713   3.840015   3.369593
    46  H    5.299467   4.816538   2.131106   3.365798   3.836715
    47  H    8.697601   7.333619   4.985612   4.111210   2.875909
    48  H   10.723525   9.325110   7.272860   6.451815   5.113139
    49  H   11.096892   9.788099   8.092329   7.513329   6.155976
    50  H    7.526773   6.447919   4.980811   4.903317   3.927669
                   21         22         23         24         25
    21  C    0.000000
    22  C    1.393441   0.000000
    23  C    2.416304   1.385764   0.000000
    24  C    1.484489   2.503553   3.778741   0.000000
    25  C    2.514854   3.665913   4.844628   1.393511   0.000000
    26  C    3.777451   4.824529   6.094750   2.403171   1.385664
    27  C    4.226419   5.065663   6.424091   2.742616   2.384524
    28  N    3.744464   4.348633   5.710792   2.394898   2.758678
    29  C    2.506428   3.059276   4.402120   1.393425   2.377803
    30  H    6.854164   6.125295   4.758036   8.324141   9.124845
    31  H    6.866723   6.458563   5.175353   8.337520   9.023865
    32  H   10.778815  10.500184   9.484105  12.009406  12.155192
    33  H   10.685186  10.721580   9.839009  11.827797  11.783341
    34  H    9.081801   9.307945   8.488854  10.217763  10.184174
    35  H    7.199669   7.273621   6.317539   8.490759   8.731832
    36  H    6.005437   5.274535   3.940064   7.458843   8.456304
    37  H    4.769537   3.993053   2.827255   6.137789   7.274046
    38  H    6.089039   5.923637   4.855958   7.469975   8.265041
    39  H    7.350519   7.114330   6.189449   8.581374   9.559310
    40  H    6.582227   6.082328   5.162759   7.799775   8.943742
    41  H    4.441006   4.339329   3.793498   5.558377   6.616085
    42  H    5.501558   5.685857   5.096081   6.594849   7.410445
    43  H    3.388023   3.839195   3.364471   4.638014   5.091216
    44  H    2.139620   3.369087   3.836725   2.708777   2.860206
    45  H    2.139464   1.072577   2.128358   2.709962   3.906884
    46  H    3.386629   2.135950   1.072885   4.637915   5.744365
    47  H    2.732611   3.927039   4.902861   2.142135   1.072732
    48  H    4.653755   5.744966   6.962733   3.381265   2.142916
    49  H    5.295242   6.099368   7.467747   3.812128   3.367984
    50  H    2.729928   2.871327   4.107735   2.147853   3.362160
                   26         27         28         29         30
    26  C    0.000000
    27  C    1.385148   0.000000
    28  N    2.376056   1.331484   0.000000
    29  C    2.715503   2.296070   1.329571   0.000000
    30  H   10.486443  11.048517  10.437484   9.121894   0.000000
    31  H   10.405406  11.071792  10.555844   9.249482   1.749285
    32  H   13.429694  14.447239  14.341528  13.202231   6.219085
    33  H   13.016991  14.157379  14.204011  13.126200   7.145140
    34  H   11.431420  12.559738  12.596936  11.519663   6.378279
    35  H   10.070291  11.039431  10.869508   9.689360   4.242814
    36  H    9.773352  10.152812   9.385999   8.058553   2.112305
    37  H    8.515759   8.740689   7.873224   6.561517   3.587913
    38  H    9.574090  10.097913   9.497493   8.225941   3.727541
    39  H   10.740539  11.001843  10.210629   9.006057   5.473759
    40  H   10.094735  10.204578   9.272459   8.050966   5.119189
    41  H    7.739998   7.922559   7.112358   5.913625   5.621093
    42  H    8.548218   8.909626   8.283125   7.144900   5.950944
    43  H    6.428380   7.207834   6.920666   5.744028   5.077133
    44  H    4.098640   4.934515   4.863660   3.906949   7.217858
    45  H    4.855902   4.870077   4.029549   2.854489   6.773908
    46  H    6.935463   7.163557   6.361727   5.086273   4.426253
    47  H    2.137531   3.362296   3.831255   3.359466   8.799454
    48  H    1.071535   2.137081   3.338621   3.786580  11.187759
    49  H    2.147818   1.070337   2.047215   3.245468  12.111537
    50  H    3.785449   3.243521   2.041791   1.071001   8.811474
                   31         32         33         34         35
    31  H    0.000000
    32  H    6.124001   0.000000
    33  H    6.460834   2.481207   0.000000
    34  H    5.239589   4.280239   2.447604   0.000000
    35  H    2.954286   4.991753   4.278038   2.455801   0.000000
    36  H    2.450714   8.188194   8.779954   7.541669   5.134226
    37  H    3.874131   9.498331   9.949414   8.520328   6.077366
    38  H    2.562422   8.481908   8.349387   6.549539   4.198013
    39  H    4.675904  10.718517  10.661793   8.859623   6.606352
    40  H    4.882533  10.983420  11.228968   9.587495   7.180140
    41  H    5.168497  10.941217  10.847765   8.957389   6.618158
    42  H    4.977788  10.677653  10.259255   8.170948   5.988568
    43  H    4.321585   8.571324   8.101942   6.163984   4.156542
    44  H    6.711678  10.462000   9.887788   7.984965   6.342726
    45  H    7.299520  11.193120  11.556320  10.256959   8.242290
    46  H    5.184565   9.455284  10.072373   8.910596   6.703419
    47  H    8.601063  11.370513  10.886509   9.302942   8.010091
    48  H   11.042417  13.700372  13.164377  11.609162  10.447468
    49  H   12.141422  15.441681  15.125043  13.535227  12.070622
    50  H    9.031532  13.320480  13.374675  11.778082   9.795807
                   36         37         38         39         40
    36  H    0.000000
    37  H    1.729666   0.000000
    38  H    2.555144   3.059362   0.000000
    39  H    3.721378   3.758212   2.492235   0.000000
    40  H    3.050899   2.551360   3.087707   1.795310   0.000000
    41  H    3.765846   2.554391   3.084395   3.098518   2.514925
    42  H    4.332050   3.760752   2.489006   2.532398   3.095715
    43  H    4.469112   4.042427   3.478156   5.415530   5.415609
    44  H    6.456410   5.510216   5.689114   7.138324   6.893017
    45  H    5.935902   4.596461   6.842019   7.873727   6.675091
    46  H    3.673835   2.659430   5.141338   6.340233   5.123780
    47  H    8.322504   7.320271   8.005490   9.525452   9.053594
    48  H   10.589339   9.411366  10.283083  11.551747  11.000254
    49  H   11.202494   9.765002  11.136594  11.974355  11.170079
    50  H    7.593443   6.001967   7.933285   8.497356   7.397643
                   41         42         43         44         45
    41  H    0.000000
    42  H    1.795425   0.000000
    43  H    3.565843   3.550723   0.000000
    44  H    4.524570   4.871259   2.449755   0.000000
    45  H    5.095875   6.579021   4.911377   4.262423   0.000000
    46  H    4.253506   5.656175   4.248680   4.909395   2.450171
    47  H    6.738472   7.343587   4.646552   2.521349   4.354917
    48  H    8.610228   9.287118   7.006344   4.661608   5.817203
    49  H    8.893234   9.868076   8.248737   5.933867   5.832344
    50  H    5.434947   6.843686   5.856112   4.360919   2.525841
                   46         47         48         49         50
    46  H    0.000000
    47  H    5.847547   0.000000
    48  H    7.822742   2.476180   0.000000
    49  H    8.175804   4.267606   2.485844   0.000000
    50  H    4.652613   4.267226   4.856024   4.085475   0.000000
 Stoichiometry    C23H21N5O
 Framework group  C1[X(C23H21N5O)]
 Deg. of freedom   144
 Full point group                 C1      NOp   1
 Largest Abelian subgroup         C1      NOp   1
 Largest concise Abelian subgroup C1      NOp   1
                         Standard orientation:                         
 ---------------------------------------------------------------------
 Center     Atomic      Atomic             Coordinates (Angstroms)
 Number     Number       Type             X           Y           Z
 ---------------------------------------------------------------------
      1          8           0        1.321681   -0.762209   -0.448910
      2          6           0        1.419711    0.454911   -0.516740
      3          6           0        2.788381    1.111781   -0.642820
      4          7           0        3.848881    0.157881   -0.763680
      5          7           0        4.497441    0.033521   -1.957620
      6          7           0        5.398481   -0.852559   -1.860120
      7          6           0        5.383031   -1.368229   -0.574330
      8          6           0        6.178841   -2.347748    0.018960
      9          6           0        5.930221   -2.647499    1.335400
     10          6           0        4.902801   -1.990559    2.049530
     11          6           0        4.111381   -1.028059    1.470710
     12          6           0        4.376191   -0.722899    0.132890
     13          7           0        0.334811    1.282631   -0.465870
     14          6           0        0.408801    2.753011   -0.473270
     15          6           0        0.395880    3.370291    0.905690
     16          6           0       -0.017810    4.811661    1.066090
     17          6           0       -0.902790    3.713471    1.588470
     18          6           0       -0.972459    0.696001   -0.358860
     19          6           0       -1.414539    0.158651    0.840060
     20          6           0       -2.685969   -0.380729    0.933510
     21          6           0       -3.542949   -0.392819   -0.166640
     22          6           0       -3.085049    0.147401   -1.366710
     23          6           0       -1.810379    0.682461   -1.462980
     24          6           0       -4.905729   -0.972339   -0.063220
     25          6           0       -5.138599   -2.191659    0.569950
     26          6           0       -6.428359   -2.693259    0.640530
     27          6           0       -7.459379   -1.963559    0.072050
     28          7           0       -7.247379   -0.797019   -0.533830
     29          6           0       -6.010439   -0.313889   -0.599590
     30          1           0        2.832841    1.718991   -1.533800
     31          1           0        2.968121    1.755691    0.209860
     32          1           0        6.948291   -2.837188   -0.543190
     33          1           0        6.514701   -3.394208    1.835490
     34          1           0        4.732801   -2.261589    3.073540
     35          1           0        3.316771   -0.558149    2.013300
     36          1           0        1.293440    3.066461   -1.008060
     37          1           0       -0.435100    3.117001   -1.044660
     38          1           0        1.191860    3.031921    1.544830
     39          1           0        0.517810    5.420921    1.767470
     40          1           0       -0.340220    5.346471    0.192230
     41          1           0       -1.817740    3.508981    1.067110
     42          1           0       -0.971970    3.572811    2.649560
     43          1           0       -0.764629    0.159971    1.691870
     44          1           0       -3.020579   -0.777829    1.872200
     45          1           0       -3.712769    0.122861   -2.236070
     46          1           0       -1.459209    1.070531   -2.399550
     47          1           0       -4.319049   -2.747479    0.982450
     48          1           0       -6.627889   -3.632169    1.116790
     49          1           0       -8.471139   -2.311849    0.097670
     50          1           0       -5.900139    0.635961   -1.081940
 ---------------------------------------------------------------------
 Rotational constants (GHZ):      0.2816082      0.0707393      0.0624814
 Leave Link  202 at Sun Sep  4 11:57:14 2022, MaxMem=  209715200 cpu:       0.0
 (Enter /opt/gaussian/l301.exe)
 Standard basis: CC-pVDZ (5D, 7F)
 Ernie: Thresh=  0.10000D-02 Tol=  0.10000D-05 Strict=F.
 Ernie:  58 primitive shells out of 743 were deleted.
 There are   511 symmetry adapted basis functions of A   symmetry.
 Integral buffers will be    131072 words long.
 Raffenetti 2 integral format.
 Two-electron integral symmetry is turned on.
   511 basis functions,  1104 primitive gaussians,   540 cartesian basis functions
   101 alpha electrons      101 beta electrons
       nuclear repulsion energy      2489.5771743647 Hartrees.
 IExCor=  402 DFT=T Ex+Corr=B3LYP ExCW=0 ScaHFX=  0.200000
 ScaDFX=  0.800000  0.720000  1.000000  0.810000 ScalE2=  1.000000  1.000000
 IRadAn=      0 IRanWt=     -1 IRanGd=            0 ICorTp=0
 NAtoms=   50 NActive=   50 NUniq=   50 SFac= 1.00D+00 NAtFMM=   60 NAOKFM=F Big=F
 Leave Link  301 at Sun Sep  4 11:57:14 2022, MaxMem=  209715200 cpu:       0.3
 (Enter /opt/gaussian/l302.exe)
 NPDir=0 NMtPBC=     1 NCelOv=     1 NCel=       1 NClECP=     1 NCelD=      1
         NCelK=      1 NCelE2=     1 NClLst=     1 CellRange=     0.0.
 One-electron integrals computed using PRISM.
 NBasis=   511 RedAO= T  NBF=   511
 NBsUse=   511 1.00D-06 NBFU=   511
 Precomputing XC quadrature grid using
 IXCGrd= 2 IRadAn=           0 IRanWt=          -1 IRanGd=           0 AccXCQ= 0.00D+00.
 NRdTot=    3229 NPtTot=      413038 NUsed=      436304 NTot=      436336
 NSgBfM=   521   521   521   524   524 NAtAll=    50    50.
 Leave Link  302 at Sun Sep  4 11:57:15 2022, MaxMem=  209715200 cpu:       7.4
 (Enter /opt/gaussian/l303.exe)
 DipDrv:  MaxL=1.
 Leave Link  303 at Sun Sep  4 11:57:15 2022, MaxMem=  209715200 cpu:       1.0
 (Enter /opt/gaussian/l401.exe)
 Harris functional with IExCor=  402 diagonalized for initial guess.
 ExpMin= 1.22D-01 ExpMax= 1.17D+04 ExpMxC= 4.01D+02 IAcc=1 IRadAn=         1 AccDes= 0.00D+00
 HarFok:  IExCor=  402 AccDes= 0.00D+00 IRadAn=         1 IDoV= 1
 ScaDFX=  1.000000  1.000000  1.000000  1.000000
 FoFCou: FMM=F IPFlag=           0 FMFlag=      100000 FMFlg1=           0
         NFxFlg=           0 DoJE=T BraDBF=F KetDBF=T FulRan=T
         Omega=  0.000000  0.000000  1.000000  0.000000  0.000000 ICntrl=     500 IOpCl=  0
         NMat0=    1 NMatS0=    1 NMatT0=    0 NMatD0=    1 NMtDS0=    0 NMtDT0=    0
         I1Cent=           4 NGrid=           0.
 Petite list used in FoFCou.
 Harris En= -1237.95713993409    
 Initial guess orbital symmetries:
       Occupied  (A) (A) (A) (A) (A) (A) (A) (A) (A) (A) (A) (A)
                 (A) (A) (A) (A) (A) (A) (A) (A) (A) (A) (A) (A)
                 (A) (A) (A) (A) (A) (A) (A) (A) (A) (A) (A) (A)
                 (A) (A) (A) (A) (A) (A) (A) (A) (A) (A) (A) (A)
                 (A) (A) (A) (A) (A) (A) (A) (A) (A) (A) (A) (A)
                 (A) (A) (A) (A) (A) (A) (A) (A) (A) (A) (A) (A)
                 (A) (A) (A) (A) (A) (A) (A) (A) (A) (A) (A) (A)
                 (A) (A) (A) (A) (A) (A) (A) (A) (A) (A) (A) (A)
                 (A) (A) (A) (A) (A)
       Virtual   (A) (A) (A) (A) (A) (A) (A) (A) (A) (A) (A) (A)
                 (A) (A) (A) (A) (A) (A) (A) (A) (A) (A) (A) (A)
                 (A) (A) (A) (A) (A) (A) (A) (A) (A) (A) (A) (A)
                 (A) (A) (A) (A) (A) (A) (A) (A) (A) (A) (A) (A)
                 (A) (A) (A) (A) (A) (A) (A) (A) (A) (A) (A) (A)
                 (A) (A) (A) (A) (A) (A) (A) (A) (A) (A) (A) (A)
                 (A) (A) (A) (A) (A) (A) (A) (A) (A) (A) (A) (A)
                 (A) (A) (A) (A) (A) (A) (A) (A) (A) (A) (A) (A)
                 (A) (A) (A) (A) (A) (A) (A) (A) (A) (A) (A) (A)
                 (A) (A) (A) (A) (A) (A) (A) (A) (A) (A) (A) (A)
                 (A) (A) (A) (A) (A) (A) (A) (A) (A) (A) (A) (A)
                 (A) (A) (A) (A) (A) (A) (A) (A) (A) (A) (A) (A)
                 (A) (A) (A) (A) (A) (A) (A) (A) (A) (A) (A) (A)
                 (A) (A) (A) (A) (A) (A) (A) (A) (A) (A) (A) (A)
                 (A) (A) (A) (A) (A) (A) (A) (A) (A) (A) (A) (A)
                 (A) (A) (A) (A) (A) (A) (A) (A) (A) (A) (A) (A)
                 (A) (A) (A) (A) (A) (A) (A) (A) (A) (A) (A) (A)
                 (A) (A) (A) (A) (A) (A) (A) (A) (A) (A) (A) (A)
                 (A) (A) (A) (A) (A) (A) (A) (A) (A) (A) (A) (A)
                 (A) (A) (A) (A) (A) (A) (A) (A) (A) (A) (A) (A)
                 (A) (A) (A) (A) (A) (A) (A) (A) (A) (A) (A) (A)
                 (A) (A) (A) (A) (A) (A) (A) (A) (A) (A) (A) (A)
                 (A) (A) (A) (A) (A) (A) (A) (A) (A) (A) (A) (A)
                 (A) (A) (A) (A) (A) (A) (A) (A) (A) (A) (A) (A)
                 (A) (A) (A) (A) (A) (A) (A) (A) (A) (A) (A) (A)
                 (A) (A) (A) (A) (A) (A) (A) (A) (A) (A) (A) (A)
                 (A) (A) (A) (A) (A) (A) (A) (A) (A) (A) (A) (A)
                 (A) (A) (A) (A) (A) (A) (A) (A) (A) (A) (A) (A)
                 (A) (A) (A) (A) (A) (A) (A) (A) (A) (A) (A) (A)
                 (A) (A) (A) (A) (A) (A) (A) (A) (A) (A) (A) (A)
                 (A) (A) (A) (A) (A) (A) (A) (A) (A) (A) (A) (A)
                 (A) (A) (A) (A) (A) (A) (A) (A) (A) (A) (A) (A)
                 (A) (A) (A) (A) (A) (A) (A) (A) (A) (A) (A) (A)
                 (A) (A) (A) (A) (A) (A) (A) (A) (A) (A) (A) (A)
                 (A) (A)
 The electronic state of the initial guess is 1-A.
 Leave Link  401 at Sun Sep  4 11:57:16 2022, MaxMem=  209715200 cpu:      12.6
 (Enter /opt/gaussian/l502.exe)
 Closed shell SCF:
 Requested convergence on RMS density matrix=1.00D-08 within 128 cycles.
 Requested convergence on MAX density matrix=1.00D-06.
 Requested convergence on             energy=1.00D-06.
 No special actions if energy rises.
 Using DIIS extrapolation, IDIIS=  1040.
 Integral symmetry usage will be decided dynamically.
       435841 words used for storage of precomputed grid.
 IEnd=     1337195 IEndB=     1337195 NGot=   209715200 MDV=   208686786
 LenX=   208686786 LenY=   208394646
 Fock matrices will be formed incrementally for  20 cycles.
 Integral accuracy reduced to 1.0D-05 until final iterations.

 Cycle   1  Pass 0  IDiag  1:
 FoFCou: FMM=F IPFlag=           0 FMFlag=      100000 FMFlg1=           0
         NFxFlg=           0 DoJE=F BraDBF=F KetDBF=F FulRan=T
         Omega=  0.000000  0.000000  1.000000  0.000000  0.000000 ICntrl=       0 IOpCl=  0
         NMat0=    1 NMatS0=    1 NMatT0=    0 NMatD0=    1 NMtDS0=    0 NMtDT0=    0
         I1Cent=           0 NGrid=           0.
 Symmetry not used in FoFCou.
 E= -1237.51429928803    
 DIIS: error= 2.86D-02 at cycle   1 NSaved=   1.
 NSaved= 1 IEnMin= 1 EnMin= -1237.51429928803     IErMin= 1 ErrMin= 2.86D-02
 ErrMax= 2.86D-02 EMaxC= 1.00D-01 BMatC= 5.14D-01 BMatP= 5.14D-01
 IDIUse=3 WtCom= 7.14D-01 WtEn= 2.86D-01
 Coeff-Com:  0.100D+01
 Coeff-En:   0.100D+01
 Coeff:      0.100D+01
 Gap=     0.254 Goal=   None    Shift=    0.000
 GapD=    0.254 DampG=1.000 DampE=0.500 DampFc=0.5000 IDamp=-1.
 Damping current iteration by 5.00D-01
 RMSDP=4.12D-03 MaxDP=2.35D-01              OVMax= 2.85D-01

 Cycle   2  Pass 0  IDiag  1:
 RMSU=  1.44D-03    CP:  9.76D-01
 E= -1237.66992524828     Delta-E=       -0.155625960258 Rises=F Damp=T
 DIIS: error= 1.01D-02 at cycle   2 NSaved=   2.
 NSaved= 2 IEnMin= 2 EnMin= -1237.66992524828     IErMin= 2 ErrMin= 1.01D-02
 ErrMax= 1.01D-02 EMaxC= 1.00D-01 BMatC= 1.00D-01 BMatP= 5.14D-01
 IDIUse=3 WtCom= 8.99D-01 WtEn= 1.01D-01
 Coeff-Com:  0.230D+00 0.770D+00
 Coeff-En:   0.332D+00 0.668D+00
 Coeff:      0.240D+00 0.760D+00
 Gap=     0.246 Goal=   None    Shift=    0.000
 RMSDP=1.43D-03 MaxDP=8.62D-02 DE=-1.56D-01 OVMax= 3.21D-01

 Cycle   3  Pass 0  IDiag  1:
 RMSU=  9.58D-04    CP:  9.61D-01  8.03D-01
 E= -1237.98357629772     Delta-E=       -0.313651049433 Rises=F Damp=F
 DIIS: error= 1.12D-02 at cycle   3 NSaved=   3.
 NSaved= 3 IEnMin= 3 EnMin= -1237.98357629772     IErMin= 2 ErrMin= 1.01D-02
 ErrMax= 1.12D-02 EMaxC= 1.00D-01 BMatC= 1.05D-01 BMatP= 1.00D-01
 IDIUse=3 WtCom= 8.88D-01 WtEn= 1.12D-01
 Coeff-Com:  0.555D-01 0.495D+00 0.449D+00
 Coeff-En:   0.000D+00 0.000D+00 0.100D+01
 Coeff:      0.492D-01 0.440D+00 0.511D+00
 Gap=     0.192 Goal=   None    Shift=    0.000
 RMSDP=8.42D-04 MaxDP=7.32D-02 DE=-3.14D-01 OVMax= 1.17D-01

 Cycle   4  Pass 0  IDiag  1:
 RMSU=  3.69D-04    CP:  9.65D-01  9.24D-01  5.49D-01
 E= -1238.06461537480     Delta-E=       -0.081039077080 Rises=F Damp=F
 DIIS: error= 3.80D-03 at cycle   4 NSaved=   4.
 NSaved= 4 IEnMin= 4 EnMin= -1238.06461537480     IErMin= 4 ErrMin= 3.80D-03
 ErrMax= 3.80D-03 EMaxC= 1.00D-01 BMatC= 1.78D-02 BMatP= 1.00D-01
 IDIUse=3 WtCom= 9.62D-01 WtEn= 3.80D-02
 Coeff-Com:  0.140D-01 0.127D+00 0.310D+00 0.549D+00
 Coeff-En:   0.000D+00 0.000D+00 0.167D+00 0.833D+00
 Coeff:      0.134D-01 0.122D+00 0.304D+00 0.560D+00
 Gap=     0.187 Goal=   None    Shift=    0.000
 RMSDP=2.99D-04 MaxDP=2.26D-02 DE=-8.10D-02 OVMax= 3.32D-02

 Cycle   5  Pass 0  IDiag  1:
 RMSU=  1.21D-04    CP:  9.64D-01  8.77D-01  6.56D-01  6.67D-01
 E= -1238.07883267432     Delta-E=       -0.014217299527 Rises=F Damp=F
 DIIS: error= 1.18D-03 at cycle   5 NSaved=   5.
 NSaved= 5 IEnMin= 5 EnMin= -1238.07883267432     IErMin= 5 ErrMin= 1.18D-03
 ErrMax= 1.18D-03 EMaxC= 1.00D-01 BMatC= 1.24D-03 BMatP= 1.78D-02
 IDIUse=3 WtCom= 9.88D-01 WtEn= 1.18D-02
 Coeff-Com:  0.295D-02 0.250D-01 0.133D+00 0.332D+00 0.507D+00
 Coeff-En:   0.000D+00 0.000D+00 0.000D+00 0.104D-01 0.990D+00
 Coeff:      0.291D-02 0.247D-01 0.131D+00 0.328D+00 0.513D+00
 Gap=     0.188 Goal=   None    Shift=    0.000
 RMSDP=1.03D-04 MaxDP=4.23D-03 DE=-1.42D-02 OVMax= 1.38D-02

 Cycle   6  Pass 0  IDiag  1:
 RMSU=  3.79D-05    CP:  9.64D-01  8.83D-01  6.58D-01  7.09D-01  5.07D-01
 E= -1238.07998732877     Delta-E=       -0.001154654451 Rises=F Damp=F
 DIIS: error= 5.08D-04 at cycle   6 NSaved=   6.
 NSaved= 6 IEnMin= 6 EnMin= -1238.07998732877     IErMin= 6 ErrMin= 5.08D-04
 ErrMax= 5.08D-04 EMaxC= 1.00D-01 BMatC= 1.60D-04 BMatP= 1.24D-03
 IDIUse=3 WtCom= 9.95D-01 WtEn= 5.08D-03
 Coeff-Com:  0.124D-03-0.204D-02 0.364D-01 0.117D+00 0.311D+00 0.537D+00
 Coeff-En:   0.000D+00 0.000D+00 0.000D+00 0.000D+00 0.115D+00 0.885D+00
 Coeff:      0.124D-03-0.203D-02 0.363D-01 0.116D+00 0.310D+00 0.539D+00
 Gap=     0.187 Goal=   None    Shift=    0.000
 RMSDP=3.25D-05 MaxDP=1.68D-03 DE=-1.15D-03 OVMax= 4.12D-03

 Cycle   7  Pass 0  IDiag  1:
 RMSU=  1.27D-05    CP:  9.64D-01  8.84D-01  6.60D-01  7.07D-01  5.93D-01
                    CP:  5.81D-01
 E= -1238.08015036100     Delta-E=       -0.000163032231 Rises=F Damp=F
 DIIS: error= 1.57D-04 at cycle   7 NSaved=   7.
 NSaved= 7 IEnMin= 7 EnMin= -1238.08015036100     IErMin= 7 ErrMin= 1.57D-04
 ErrMax= 1.57D-04 EMaxC= 1.00D-01 BMatC= 1.75D-05 BMatP= 1.60D-04
 IDIUse=3 WtCom= 9.98D-01 WtEn= 1.57D-03
 Coeff-Com: -0.510D-04-0.359D-02 0.997D-02 0.390D-01 0.143D+00 0.329D+00
 Coeff-Com:  0.483D+00
 Coeff-En:   0.000D+00 0.000D+00 0.000D+00 0.000D+00 0.000D+00 0.357D-01
 Coeff-En:   0.964D+00
 Coeff:     -0.509D-04-0.359D-02 0.996D-02 0.389D-01 0.142D+00 0.329D+00
 Coeff:      0.484D+00
 Gap=     0.187 Goal=   None    Shift=    0.000
 RMSDP=9.85D-06 MaxDP=4.57D-04 DE=-1.63D-04 OVMax= 1.12D-03

 Initial convergence to 1.0D-05 achieved.  Increase integral accuracy.
 Cycle   8  Pass 1  IDiag  1:
 E= -1238.08038745289     Delta-E=       -0.000237091882 Rises=F Damp=F
 DIIS: error= 1.92D-04 at cycle   1 NSaved=   1.
 NSaved= 1 IEnMin= 1 EnMin= -1238.08038745289     IErMin= 1 ErrMin= 1.92D-04
 ErrMax= 1.92D-04 EMaxC= 1.00D-01 BMatC= 8.31D-06 BMatP= 8.31D-06
 IDIUse=3 WtCom= 9.98D-01 WtEn= 1.92D-03
 Coeff-Com:  0.100D+01
 Coeff-En:   0.100D+01
 Coeff:      0.100D+01
 Gap=     0.187 Goal=   None    Shift=    0.000
 RMSDP=9.85D-06 MaxDP=4.57D-04 DE=-2.37D-04 OVMax= 7.70D-04

 Cycle   9  Pass 1  IDiag  1:
 RMSU=  7.73D-05    CP:  1.00D+00
 E= -1238.08039049647     Delta-E=       -0.000003043583 Rises=F Damp=F
 DIIS: error= 1.00D-04 at cycle   2 NSaved=   2.
 NSaved= 2 IEnMin= 2 EnMin= -1238.08039049647     IErMin= 2 ErrMin= 1.00D-04
 ErrMax= 1.00D-04 EMaxC= 1.00D-01 BMatC= 4.56D-06 BMatP= 8.31D-06
 IDIUse=3 WtCom= 9.99D-01 WtEn= 1.00D-03
 Coeff-Com:  0.390D+00 0.610D+00
 Coeff-En:   0.290D+00 0.710D+00
 Coeff:      0.390D+00 0.610D+00
 Gap=     0.187 Goal=   None    Shift=    0.000
 RMSDP=8.66D-06 MaxDP=4.06D-04 DE=-3.04D-06 OVMax= 1.07D-03

 Cycle  10  Pass 1  IDiag  1:
 RMSU=  6.12D-06    CP:  1.00D+00  1.00D+00
 E= -1238.08039095792     Delta-E=       -0.000000461454 Rises=F Damp=F
 DIIS: error= 1.00D-04 at cycle   3 NSaved=   3.
 NSaved= 3 IEnMin= 3 EnMin= -1238.08039095792     IErMin= 2 ErrMin= 1.00D-04
 ErrMax= 1.00D-04 EMaxC= 1.00D-01 BMatC= 4.13D-06 BMatP= 4.56D-06
 IDIUse=3 WtCom= 9.99D-01 WtEn= 1.00D-03
 Coeff-Com:  0.749D-02 0.486D+00 0.507D+00
 Coeff-En:   0.000D+00 0.482D+00 0.518D+00
 Coeff:      0.748D-02 0.486D+00 0.507D+00
 Gap=     0.187 Goal=   None    Shift=    0.000
 RMSDP=4.50D-06 MaxDP=2.22D-04 DE=-4.61D-07 OVMax= 5.78D-04

 Cycle  11  Pass 1  IDiag  1:
 RMSU=  8.62D-07    CP:  1.00D+00  1.01D+00  5.07D-01
 E= -1238.08039537199     Delta-E=       -0.000004414065 Rises=F Damp=F
 DIIS: error= 9.81D-06 at cycle   4 NSaved=   4.
 NSaved= 4 IEnMin= 4 EnMin= -1238.08039537199     IErMin= 4 ErrMin= 9.81D-06
 ErrMax= 9.81D-06 EMaxC= 1.00D-01 BMatC= 1.32D-07 BMatP= 4.13D-06
 IDIUse=1 WtCom= 1.00D+00 WtEn= 0.00D+00
 Coeff-Com: -0.354D-02 0.305D+00 0.332D+00 0.367D+00
 Coeff:     -0.354D-02 0.305D+00 0.332D+00 0.367D+00
 Gap=     0.187 Goal=   None    Shift=    0.000
 RMSDP=7.56D-07 MaxDP=4.66D-05 DE=-4.41D-06 OVMax= 7.65D-05

 Cycle  12  Pass 1  IDiag  1:
 RMSU=  2.10D-07    CP:  1.00D+00  1.01D+00  5.17D-01  4.35D-01
 E= -1238.08039549831     Delta-E=       -0.000000126322 Rises=F Damp=F
 DIIS: error= 1.49D-06 at cycle   5 NSaved=   5.
 NSaved= 5 IEnMin= 5 EnMin= -1238.08039549831     IErMin= 5 ErrMin= 1.49D-06
 ErrMax= 1.49D-06 EMaxC= 1.00D-01 BMatC= 2.74D-09 BMatP= 1.32D-07
 IDIUse=1 WtCom= 1.00D+00 WtEn= 0.00D+00
 Coeff-Com: -0.236D-02 0.160D+00 0.175D+00 0.213D+00 0.454D+00
 Coeff:     -0.236D-02 0.160D+00 0.175D+00 0.213D+00 0.454D+00
 Gap=     0.187 Goal=   None    Shift=    0.000
 RMSDP=1.28D-07 MaxDP=1.12D-05 DE=-1.26D-07 OVMax= 1.33D-05

 Cycle  13  Pass 1  IDiag  1:
 RMSU=  7.03D-08    CP:  1.00D+00  1.01D+00  5.19D-01  4.50D-01  7.40D-01
 E= -1238.08039550069     Delta-E=       -0.000000002379 Rises=F Damp=F
 DIIS: error= 5.52D-07 at cycle   6 NSaved=   6.
 NSaved= 6 IEnMin= 6 EnMin= -1238.08039550069     IErMin= 6 ErrMin= 5.52D-07
 ErrMax= 5.52D-07 EMaxC= 1.00D-01 BMatC= 2.73D-10 BMatP= 2.74D-09
 IDIUse=1 WtCom= 1.00D+00 WtEn= 0.00D+00
 Coeff-Com: -0.966D-03 0.580D-01 0.637D-01 0.824D-01 0.271D+00 0.526D+00
 Coeff:     -0.966D-03 0.580D-01 0.637D-01 0.824D-01 0.271D+00 0.526D+00
 Gap=     0.187 Goal=   None    Shift=    0.000
 RMSDP=4.07D-08 MaxDP=3.84D-06 DE=-2.38D-09 OVMax= 4.02D-06

 Cycle  14  Pass 1  IDiag  1:
 RMSU=  2.21D-08    CP:  1.00D+00  1.01D+00  5.19D-01  4.53D-01  7.77D-01
                    CP:  7.69D-01
 E= -1238.08039550093     Delta-E=       -0.000000000246 Rises=F Damp=F
 DIIS: error= 2.03D-07 at cycle   7 NSaved=   7.
 NSaved= 7 IEnMin= 7 EnMin= -1238.08039550093     IErMin= 7 ErrMin= 2.03D-07
 ErrMax= 2.03D-07 EMaxC= 1.00D-01 BMatC= 3.17D-11 BMatP= 2.73D-10
 IDIUse=1 WtCom= 1.00D+00 WtEn= 0.00D+00
 Coeff-Com: -0.250D-03 0.127D-01 0.140D-01 0.198D-01 0.950D-01 0.305D+00
 Coeff-Com:  0.554D+00
 Coeff:     -0.250D-03 0.127D-01 0.140D-01 0.198D-01 0.950D-01 0.305D+00
 Coeff:      0.554D+00
 Gap=     0.187 Goal=   None    Shift=    0.000
 RMSDP=1.45D-08 MaxDP=9.71D-07 DE=-2.46D-10 OVMax= 1.53D-06

 Cycle  15  Pass 1  IDiag  1:
 RMSU=  6.39D-09    CP:  1.00D+00  1.01D+00  5.19D-01  4.51D-01  7.87D-01
                    CP:  7.99D-01  6.71D-01
 E= -1238.08039550089     Delta-E=        0.000000000043 Rises=F Damp=F
 DIIS: error= 8.05D-08 at cycle   8 NSaved=   8.
 NSaved= 8 IEnMin= 7 EnMin= -1238.08039550093     IErMin= 8 ErrMin= 8.05D-08
 ErrMax= 8.05D-08 EMaxC= 1.00D-01 BMatC= 4.29D-12 BMatP= 3.17D-11
 IDIUse=1 WtCom= 1.00D+00 WtEn= 0.00D+00
 Coeff-Com: -0.235D-05-0.121D-02-0.131D-02-0.557D-03 0.145D-01 0.102D+00
 Coeff-Com:  0.321D+00 0.565D+00
 Coeff:     -0.235D-05-0.121D-02-0.131D-02-0.557D-03 0.145D-01 0.102D+00
 Coeff:      0.321D+00 0.565D+00
 Gap=     0.187 Goal=   None    Shift=    0.000
 RMSDP=5.10D-09 MaxDP=2.42D-07 DE= 4.27D-11 OVMax= 8.99D-07

 SCF Done:  E(RB3LYP) =  -1238.08039550     A.U. after   15 cycles
             Convg  =    0.5100D-08             -V/T =  2.0058
 KE= 1.230927269828D+03 PE=-7.855796521936D+03 EE= 2.897211682242D+03
 Leave Link  502 at Sun Sep  4 12:07:02 2022, MaxMem=  209715200 cpu:    4671.3
 (Enter /opt/gaussian/l601.exe)
 Copying SCF densities to generalized density rwf, IOpCl= 0 IROHF=0.

 **********************************************************************

            Population analysis using the SCF density.

 **********************************************************************

 Orbital symmetries:
       Occupied  (A) (A) (A) (A) (A) (A) (A) (A) (A) (A) (A) (A)
                 (A) (A) (A) (A) (A) (A) (A) (A) (A) (A) (A) (A)
                 (A) (A) (A) (A) (A) (A) (A) (A) (A) (A) (A) (A)
                 (A) (A) (A) (A) (A) (A) (A) (A) (A) (A) (A) (A)
                 (A) (A) (A) (A) (A) (A) (A) (A) (A) (A) (A) (A)
                 (A) (A) (A) (A) (A) (A) (A) (A) (A) (A) (A) (A)
                 (A) (A) (A) (A) (A) (A) (A) (A) (A) (A) (A) (A)
                 (A) (A) (A) (A) (A) (A) (A) (A) (A) (A) (A) (A)
                 (A) (A) (A) (A) (A)
       Virtual   (A) (A) (A) (A) (A) (A) (A) (A) (A) (A) (A) (A)
                 (A) (A) (A) (A) (A) (A) (A) (A) (A) (A) (A) (A)
                 (A) (A) (A) (A) (A) (A) (A) (A) (A) (A) (A) (A)
                 (A) (A) (A) (A) (A) (A) (A) (A) (A) (A) (A) (A)
                 (A) (A) (A) (A) (A) (A) (A) (A) (A) (A) (A) (A)
                 (A) (A) (A) (A) (A) (A) (A) (A) (A) (A) (A) (A)
                 (A) (A) (A) (A) (A) (A) (A) (A) (A) (A) (A) (A)
                 (A) (A) (A) (A) (A) (A) (A) (A) (A) (A) (A) (A)
                 (A) (A) (A) (A) (A) (A) (A) (A) (A) (A) (A) (A)
                 (A) (A) (A) (A) (A) (A) (A) (A) (A) (A) (A) (A)
                 (A) (A) (A) (A) (A) (A) (A) (A) (A) (A) (A) (A)
                 (A) (A) (A) (A) (A) (A) (A) (A) (A) (A) (A) (A)
                 (A) (A) (A) (A) (A) (A) (A) (A) (A) (A) (A) (A)
                 (A) (A) (A) (A) (A) (A) (A) (A) (A) (A) (A) (A)
                 (A) (A) (A) (A) (A) (A) (A) (A) (A) (A) (A) (A)
                 (A) (A) (A) (A) (A) (A) (A) (A) (A) (A) (A) (A)
                 (A) (A) (A) (A) (A) (A) (A) (A) (A) (A) (A) (A)
                 (A) (A) (A) (A) (A) (A) (A) (A) (A) (A) (A) (A)
                 (A) (A) (A) (A) (A) (A) (A) (A) (A) (A) (A) (A)
[...]
 -0.00000501,-0.00000111,-0.00002409,-0.00002173,0.00002020,-0.00058347
 ,-0.00047238,-0.00083720,0.00004186,0.00001645,-0.00013258,0.00001396,
 -0.00001146,-0.00002142,-0.13191845,0.15102469,-0.00000869,-0.00002038
 ,-0.00001247,0.00001801,0.00000399,0.00001640,0.00000352,-0.00000511,0
 .00000093,-0.00000721,0.00000141,0.00000042,-0.00000028,0.00000065,-0.
 00001012,-0.00000324,0.00000152,-0.00000131,-0.00000103,0.00000105,0.0
 0000171,0.00000132,-0.00000225,0.00000038,-0.00000023,0.00000017,-0.00
 000216,-0.00000102,-0.00000171,0.00000245,-0.00000249,0.00000083,-0.00
 000067,0.00000623,-0.00000474,0.00000809,-0.00006160,0.00000633,-0.000
 01152,0.00000834,0.00002944,0.00000240,0.00000363,-0.00000821,0.000003
 64,-0.00000618,-0.00000167,-0.00000293,0.00000187,0.00000424,0.0000006
 5,0.00016993,-0.00016520,0.00039928,0.00038748,0.00022457,-0.00033930,
 -0.00028554,-0.00083278,0.00044333,-0.00167427,-0.00220303,-0.00280720
 ,0.00073834,0.00059035,-0.00043010,-0.00050613,0.00008869,-0.00017046,
 -0.00839021,0.00679175,0.00174124,-0.06008407,0.05061052,-0.06463569,0
 .00177970,-0.00055502,0.00529453,0.00015790,0.00239958,0.00787503,0.00
 079729,-0.00111923,-0.00341890,0.00030560,0.00473887,0.00591127,-0.000
 00126,0.00000160,0.00000056,-0.00000477,-0.00000083,-0.00000068,0.0000
 0069,0.00000048,0.00000022,-0.00000023,0.00000085,0.00000015,-0.000000
 59,0.00000116,-0.00000137,0.00000104,-0.00000048,0.00000304,-0.0000016
 8,-0.00000196,-0.00000336,-0.00000289,0.00000062,-0.00000153,0.0000008
 1,-0.00000057,-0.00000098,0.00000076,-0.00000200,-0.00000072,-0.000000
 17,0.00000077,0.00000003,-0.00000261,0.00000313,0.00000217,-0.00000115
 ,-0.00000235,-0.00000360,-0.00002509,-0.00001745,-0.00000049,-0.000353
 87,-0.00017564,0.00010852,0.00004578,-0.00003568,-0.00000766,0.0000209
 5,0.00001269,-0.00000526,0.06708624,-0.05858716,0.05418236,-0.00003099
 ,0.00005637,-0.00000442,0.00008032,-0.00009058,0.00001842,0.00001126,-
 0.00001163,-0.00000274,-0.00001824,0.00000545,0.00000657,0.00001001,0.
 00000014,-0.00002075,-0.00001130,0.00001164,0.00000041,-0.00000261,-0.
 00000015,0.00000397,0.00000098,-0.00000041,0.00000048,-0.00000064,0.00
 000273,-0.00000070,0.00000118,-0.00000110,0.00000212,0.00000160,0.0000
 0200,-0.00000407,0.00000673,-0.00000969,0.00001539,-0.00009968,0.00000
 749,-0.00000748,-0.00000516,0.00003104,-0.00000301,0.00000682,-0.00000
 363,0.00000265,-0.00000270,-0.00000469,-0.00000448,0.00000022,0.000000
 32,0.00000463,0.00005505,0.00000648,-0.00000545,-0.00001990,0.00000314
 ,-0.00001812,-0.00001832,0.00002007,0.00010329,0.00054572,-0.00116066,
 0.00061564,-0.00039737,-0.00009525,-0.00010431,-0.00002259,0.00001398,
 0.00012441,-0.00504842,-0.00143095,-0.00061814,-0.00035166,-0.02762982
 ,0.01090185,-0.06747149,-0.04775026,0.01712717,0.01052916,0.02142317,-
 0.00798071,-0.00293603,0.00395345,-0.00263777,-0.00222991,-0.00016309,
 -0.00012576,-0.00000060,0.00000087,-0.00000270,-0.00000457,0.00000139,
 0.00000205,-0.00000101,-0.00000012,0.00000007,-0.00000167,0.00000038,-
 0.00000067,-0.00000081,-0.00000041,-0.00000214,0.00000029,-0.00000147,
 0.00000309,-0.00000553,-0.00000796,-0.00000102,0.00000108,0.00000594,-
 0.00000157,-0.00000032,-0.00000026,-0.00000229,-0.00000077,-0.00000268
 ,-0.00000058,-0.00000028,0.00000020,0.00000078,-0.00000406,0.00000538,
 -0.00000002,-0.00000104,-0.00000009,-0.00000117,-0.00001787,-0.0000095
 4,-0.00000453,0.00001717,-0.00000772,-0.00003475,0.00002508,-0.0000187
 3,0.00000173,-0.00003978,-0.00001929,0.00000981,0.00117397,0.00047484,
 0.00020246,0.06548845,-0.00004683,0.00004372,-0.00000341,0.00010093,-0
 .00007914,0.00001851,0.00001479,-0.00001693,-0.00000185,-0.00002512,0.
 00000678,0.00000982,0.00001504,-0.00000250,-0.00002858,-0.00001699,0.0
 0001621,-0.00000079,-0.00000329,-0.00000042,0.00000674,0.00000103,-0.0
 0000075,-0.00000066,-0.00000159,0.00000177,-0.00000004,0.00000138,-0.0
 0000330,0.00000223,0.00000110,0.00000143,-0.00000665,0.00000893,-0.000
 01096,0.00002055,-0.00011479,-0.00001167,-0.00000518,-0.00000612,0.000
 04452,-0.00000238,0.00000882,-0.00000606,0.00000251,-0.00000392,-0.000
 00702,-0.00000565,0.00000133,0.00000174,0.00000871,0.00008013,0.000025
 40,0.00000285,-0.00000781,-0.00002128,0.00000341,-0.00003885,-0.000048
 01,0.00003395,0.00046610,-0.00013973,0.00031197,-0.00015340,-0.0000878
 3,-0.00010505,-0.00004765,0.00000862,0.00002752,-0.00194142,0.00294709
 ,0.00209676,0.00108912,-0.00548702,0.00340321,-0.04782373,-0.29097891,
 0.10027768,-0.00875106,-0.01146455,0.00431945,0.00331017,-0.00053491,0
 .00374117,0.00100185,0.00097157,-0.00043526,-0.00000123,0.00000146,-0.
 00000312,-0.00000634,0.00000169,0.00000192,-0.00000080,0.00000035,0.00
 000045,-0.00000145,0.00000133,-0.00000072,0.00000026,0.00000021,-0.000
 00151,0.00000100,0.00000027,0.00000488,-0.00000781,-0.00001080,-0.0000
 0167,0.00000076,0.00000660,-0.00000365,-0.00000077,0.00000015,-0.00000
 306,-0.00000169,-0.00000416,-0.00000131,0.00000031,0.00000039,0.000000
 90,-0.00000478,0.00000646,-0.00000067,-0.00000190,0.00000020,-0.000002
 02,-0.00001732,-0.00000379,-0.00000425,-0.00000228,-0.00001177,0.00001
 220,0.00001170,-0.00000671,-0.00002212,-0.00002094,-0.00000791,0.00001
 112,-0.00006308,0.00014028,-0.00181009,0.05270123,0.30501900,0.0000173
 7,-0.00002560,-0.00000411,-0.00004069,0.00004325,-0.00000582,-0.000006
 30,0.00000741,0.00000337,0.00001140,-0.00000294,-0.00000572,-0.0000099
 1,0.00000272,0.00001122,0.00000880,-0.00000931,-0.00000019,0.00000134,
 0.00000118,-0.00000305,-0.00000010,-0.00000079,0.00000097,0.00000104,-
 0.00000062,-0.00000148,-0.00000159,0.00000147,0.00000031,-0.00000152,-
 0.00000047,0.00000366,-0.00000208,0.00000365,-0.00000752,0.00004772,-0
 .00001552,-0.00000821,0.00000123,-0.00001225,0.00000309,-0.00000418,0.
 00000020,-0.00000039,0.00000018,0.00000301,0.00000161,0.00000143,0.000
 00037,-0.00000210,-0.00001370,0.00000261,0.00001411,-0.00001414,0.0000
 0687,0.00001832,0.00005127,-0.00003262,-0.00006738,-0.00026412,0.00010
 754,0.00030390,-0.00000541,-0.00009066,-0.00003134,-0.00003674,-0.0000
 0180,-0.00001302,-0.00008535,0.00215555,0.00735239,-0.00067475,0.00087
 702,0.00243625,0.01734011,0.10002495,-0.07618899,0.00440161,0.00741653
 ,-0.00156639,-0.00273563,0.00374005,0.00606292,-0.00048788,-0.00056409
 ,-0.00011232,0.00000031,-0.00000021,0.00000169,0.00000224,-0.00000104,
 -0.00000124,0.00000083,-0.00000004,-0.00000024,0.00000053,-0.00000040,
 0.00000055,-0.00000063,0.00000043,-0.00000016,0.00000009,-0.00000079,-
 0.00000131,0.00000394,0.00000368,-0.00000033,-0.00000089,-0.00000254,0
 .00000169,0.00000004,-0.00000051,0.00000103,0.00000066,0.00000146,0.00
 000050,-0.00000003,0.00000050,-0.00000094,0.00000216,-0.00000249,0.000
 00100,0.00000003,-0.00000105,-0.00000094,0.00000270,0.00000164,0.00000
 391,-0.00004787,-0.00002763,0.00000652,-0.00001363,-0.00000409,-0.0000
 1214,0.00000157,0.00000836,0.00000167,0.00039071,-0.00168064,-0.003473
 55,-0.01819159,-0.11006570,0.06928861,-0.00004779,0.00002656,0.0000021
 9,0.00009148,-0.00005557,0.00000953,0.00001422,-0.00001793,-0.00000206
 ,-0.00002484,0.00000647,0.00001094,0.00001733,-0.00000500,-0.00002729,
 -0.00001883,0.00001742,-0.00000019,-0.00000266,-0.00000091,0.00000596,
 0.00000121,-0.00000049,-0.00000188,-0.00000168,0.00000020,0.00000128,0
 .00000144,-0.00000426,0.00000180,0.00000076,0.00000066,-0.00000717,0.0
 0000752,-0.00000862,0.00001846,-0.00009772,-0.00001237,0.00000433,-0.0
 0000425,0.00004240,0.00000013,0.00001010,-0.00000520,0.00000010,-0.000
 00370,-0.00000766,-0.00000444,-0.00000047,0.00000196,0.00000789,0.0000
 5872,0.00003328,-0.00001747,0.00001651,-0.00004317,0.00001078,-0.00002
 443,0.00000669,-0.00002171,0.00012446,0.00011476,0.00010001,-0.0000581
 7,-0.00003516,0.00000077,-0.00000082,0.00000915,0.00001608,0.00019713,
 0.00059304,-0.00016613,-0.00168989,0.00355587,-0.00229172,-0.01644332,
 -0.01009800,0.00214872,-0.30737611,-0.07383921,0.00635237,0.00056006,-
 0.00797261,0.00377213,0.00315569,0.00050392,-0.00092054,-0.00000130,0.
 00000128,-0.00000301,-0.00000606,0.00000190,0.00000165,-0.00000095,0.0
 0000066,0.00000089,-0.00000113,0.00000183,-0.00000080,0.00000134,0.000
 00032,-0.00000049,0.00000135,0.00000177,0.00000464,-0.00000790,-0.0000
 0994,-0.00000111,0.00000195,0.00000568,-0.00000355,0.,0.00000066,-0.00
 000262,-0.00000190,-0.00000426,-0.00000134,0.00000027,-0.00000025,0.00
 000145,-0.00000474,0.00000659,-0.00000118,-0.00000156,0.00000148,-0.00
 000051,-0.00000865,-0.00000105,-0.00000551,0.00002316,0.00000958,0.000
 04868,0.00001001,-0.00000756,-0.00001770,-0.00000962,-0.00000697,0.000
 00941,-0.00094630,-0.00052597,0.00016835,0.00054890,0.00037238,0.00016
 069,0.32203653,-0.00001704,0.00001776,0.00000005,0.00003856,-0.0000331
 5,0.00000405,0.00000562,-0.00000608,-0.00000043,-0.00000974,0.00000264
 ,0.00000397,0.00000606,-0.00000161,-0.00001071,-0.00000709,0.00000645,
 -0.00000008,-0.00000120,-0.00000011,0.00000218,0.00000059,-0.00000042,
 -0.00000064,-0.00000069,0.00000022,0.00000015,0.00000037,-0.00000144,0
 .00000085,0.00000017,0.00000042,-0.00000246,0.00000318,-0.00000381,0.0
 0000753,-0.00004952,0.00000431,-0.00000552,0.00000156,0.00001580,0.000
 00226,0.00000400,-0.00000140,-0.00000093,-0.00000183,-0.00000352,-0.00
 000200,0.00000178,0.00000152,0.00000485,0.00004733,-0.00000918,0.00002
 693,-0.00001645,0.00004346,-0.00007733,-0.00014675,-0.00008567,0.00011
 300,-0.00010422,-0.00002801,-0.00073171,0.00008104,0.00006727,0.000022
 69,-0.00004578,0.00003596,-0.00003747,0.00002410,-0.00076136,0.0001880
 2,0.00244549,-0.00096912,0.00350028,0.01732688,0.00942515,0.00034242,-
 0.07352406,-0.07343070,0.00680534,-0.03126190,-0.01880335,0.00325636,-
 0.00166543,-0.00215216,0.00504042,-0.00000028,0.00000063,-0.00000118,-
 0.00000220,0.00000080,0.00000067,-0.00000026,0.00000031,0.00000031,-0.
 00000038,0.00000071,-0.00000025,0.00000028,0.00000026,-0.00000041,0.00
 000061,0.00000021,0.00000181,-0.00000324,-0.00000321,-0.00000064,0.000
 00073,0.00000327,-0.00000177,-0.00000050,-0.00000002,-0.00000109,-0.00
 000148,-0.00000179,-0.00000050,0.00000039,0.00000015,0.00000053,-0.000
 00164,0.00000312,-0.00000040,-0.00000146,0.00000044,-0.00000078,-0.000
 01487,-0.00001165,-0.00000419,-0.00001412,0.00000640,-0.00003483,0.000
 02306,0.00000525,-0.00006473,0.00000067,-0.00000471,0.00000137,0.00097
 688,0.00026385,-0.00017966,-0.00040776,0.00008491,-0.00131386,0.087284
 69,0.08655657,0.00001946,-0.00002207,0.00000354,-0.00003816,0.00003474
 ,-0.00001250,-0.00000503,0.00000601,0.00000179,0.00000948,-0.00000223,
 -0.00000443,-0.00000757,0.00000206,0.00000945,0.00000691,-0.00000721,-
 0.00000004,0.00000118,0.00000071,-0.00000239,-0.00000023,-0.00000035,0
 .00000082,0.00000086,-0.00000053,-0.00000094,-0.00000114,0.00000122,-0
 .00000010,-0.00000072,-0.00000063,0.00000254,-0.00000218,0.00000338,-0
 .00000668,0.00003487,0.00000473,-0.00000933,0.00000852,-0.00001629,0.0
 0000953,-0.00000422,0.00000242,-0.00000150,0.00000062,0.00000253,0.000
 00302,0.00000125,0.00000046,-0.00000256,0.00004828,-0.00007176,0.00016
 217,0.00007484,0.00016758,-0.00012485,-0.00023601,-0.00015578,0.000057
 08,-0.00006453,-0.00080686,-0.00134532,0.00026977,0.00016921,-0.000063
 21,-0.00019303,0.00000063,-0.00003358,0.00039034,0.00008390,-0.0004656
 5,-0.00189235,0.00372203,0.00525999,-0.00914841,-0.00237418,0.00646003
 ,0.00609484,0.00709122,-0.04308510,0.01372929,0.00505700,-0.00508160,-
 0.00024305,0.00542104,0.00808183,0.00000067,-0.00000030,0.00000162,0.0
 0000207,-0.00000071,-0.00000084,0.00000053,-0.00000013,-0.00000014,0.0
 0000037,-0.00000037,0.00000038,-0.00000024,0.00000016,0.00000013,-0.00
 000004,-0.00000025,-0.00000123,0.00000347,0.00000456,-0.00000016,-0.00
 000164,-0.00000112,0.00000127,0.00000030,-0.00000024,0.00000058,0.0000
 0035,0.00000148,0.00000040,0.00000011,0.00000040,-0.00000092,0.0000014
 7,-0.00000221,0.00000116,-0.00000019,-0.00000033,-0.00000045,-0.000008
 84,-0.00001473,-0.00000333,-0.00001370,0.00001425,0.00000617,0.0000109
 8,0.00000793,-0.00001191,0.00000734,-0.00000138,-0.00000920,-0.0004217
 1,-0.00030699,-0.00021660,0.00047670,-0.00120624,-0.00247173,-0.009292
 57,-0.01710493,0.03243566,0.00007221,-0.00005568,-0.00000055,-0.000127
 97,0.00009606,-0.00001152,-0.00001845,0.00002109,-0.00000029,0.0000316
 5,-0.00000763,-0.00001384,-0.00002098,0.00000532,0.00003492,0.00002285
 ,-0.00002156,0.00000012,0.00000374,0.00000087,-0.00000752,-0.00000129,
 0.00000054,0.00000175,0.00000246,-0.00000154,-0.00000102,-0.00000205,0
 .00000457,-0.00000224,-0.00000136,-0.00000156,0.00000855,-0.00001027,0
 .00001249,-0.00002473,0.00014514,0.00001042,0.00002457,0.00000226,-0.0
 0006136,-0.00000282,-0.00001666,0.00000562,0.00000148,0.00000714,0.000
 01359,0.00001017,-0.00000603,-0.00000188,-0.00001431,-0.00000732,-0.00
 017785,0.00028053,0.00021155,0.00018086,-0.00009199,-0.00019814,-0.000
 14966,-0.00019500,0.00118573,0.00081654,-0.00002273,-0.00038437,0.0001
 3626,0.00008167,-0.00035102,-0.00033582,-0.00000864,0.00547822,0.02136
 116,-0.00828153,-0.00417753,0.00214246,-0.00164758,-0.00073136,-0.0004
 8867,0.00012663,-0.00380498,-0.00302785,0.00007078,-0.01100413,-0.0343
 2592,0.01305434,-0.05336548,-0.01564532,0.00415328,0.00000217,-0.00000
 144,0.00000416,0.00000748,-0.00000285,-0.00000213,0.00000116,-0.000000
 74,-0.00000072,0.00000145,-0.00000185,0.00000092,-0.00000076,-0.000000
 35,0.00000131,-0.00000142,-0.00000084,-0.00000578,0.00001131,0.0000126
 4,0.00000207,-0.00000702,-0.00001082,0.00000479,0.00000043,0.00000096,
 0.00000373,0.00000492,0.00000632,0.00000085,0.00000059,0.00000002,-0.0
 0000353,0.00000712,-0.00001647,-0.00000097,0.00000555,-0.00000206,0.00
 000286,0.00000069,0.00000820,0.00001110,0.00002816,0.00001344,0.000076
 44,-0.00088282,0.00024499,0.00070735,-0.00001887,0.00004440,0.00000545
 ,0.00029127,0.00133636,-0.00047970,0.00024133,-0.00007543,0.00018874,-
 0.00009535,-0.00097414,0.00038069,0.06746903,-0.00004042,0.00005286,-0
 .00000222,0.00008545,-0.00008722,-0.00000563,0.00001402,-0.00001494,0.
 00000376,-0.00002220,0.00000733,0.00000940,0.00001216,-0.00000070,-0.0
 0002608,-0.00001470,0.00001400,0.,-0.00000312,0.00000006,0.00000497,0.
 00000156,-0.00000113,-0.00000001,-0.00000093,0.00000204,-0.00000064,0.
 00000110,-0.00000197,0.00000201,0.00000129,0.00000191,-0.00000511,0.00
 000800,-0.00001064,0.00001869,-0.00011846,0.00002685,-0.00004926,0.000
 01033,0.00002148,0.00001588,0.00000705,0.00000309,-0.00000278,-0.00000
 207,-0.00000695,-0.00000375,0.00000432,0.00000107,0.00001175,0.0000707
 8,-0.00004194,-0.00003000,-0.00009125,0.00002521,-0.00005071,0.0002111
 6,0.00015677,0.00010341,-0.00072663,-0.00012683,-0.00089868,0.00021656
 ,0.00011327,0.00095267,-0.00011245,0.00024713,-0.00038788,-0.00522919,
 -0.01143891,0.00688703,0.00327212,0.00071777,0.00252578,0.00027834,0.0
 0015769,-0.00031712,-0.00081169,0.00366212,0.00263451,-0.01104447,-0.0
 0936871,0.00138348,-0.01455060,-0.28981719,0.09455476,0.,0.00000084,-0
 .00000307,-0.00000344,0.00000254,0.00000220,-0.00000098,0.00000018,0.0
 0000049,-0.00000162,0.00000111,-0.00000088,-0.00000015,-0.00000004,-0.
 00000193,0.00000065,-0.00000087,0.00000384,-0.00000543,-0.00000394,0.0
 0000005,0.00000281,0.00001196,-0.00000358,-0.00000254,-0.00000072,-0.0
 0000345,-0.00000350,-0.00000334,-0.00000071,0.00000039,0.00000063,0.00
 000097,-0.00000238,0.00000928,-0.00000234,-0.00000225,0.00000061,-0.00
 000107,0.00001838,-0.00000724,-0.00001187,-0.00006472,-0.00001838,-0.0
 0011272,-0.00020807,0.00020209,-0.00064518,0.00002907,0.00003533,0.000
 02508,-0.00025755,-0.00070751,0.00021795,0.00010022,-0.00038602,-0.000
 55277,0.00006099,-0.00023533,0.00029815,0.02891413,0.30680526,0.000021
 75,-0.00002553,0.00000068,-0.00003287,0.00001587,-0.00000071,-0.000005
 80,0.00000932,-0.00000053,0.00000428,-0.00000316,-0.00000345,-0.000006
 34,0.00000038,0.00000598,0.00000478,-0.00000484,-0.00000027,0.00000058
 ,0.00000057,-0.00000134,0.00000004,-0.00000060,0.00000041,0.00000043,-
 0.00000079,-0.00000090,-0.00000112,0.00000038,-0.00000049,-0.00000165,
 -0.00000093,0.00000179,-0.00000042,0.00000225,-0.00000428,0.00000572,0
 .00001150,-0.00001183,0.00000361,0.00002072,0.00002113,-0.00000050,-0.
 00000855,0.00000638,-0.00000685,0.00000102,0.00000584,-0.00000615,0.00
 000285,-0.00002013,0.00008093,-0.00019791,0.00045592,0.00035045,0.0003
 6524,-0.00026305,-0.00095081,-0.00006200,-0.00034320,0.00203147,-0.000
 17285,-0.00215670,0.00088387,-0.00042733,0.00006969,-0.00047146,-0.000
 18661,-0.00024895,0.00010748,0.00901361,0.00302135,-0.00180277,0.00277
 565,0.00501691,-0.00061892,-0.00023762,-0.00040634,-0.00044799,0.00220
 521,0.00996492,0.00384827,-0.00024517,-0.00405721,0.00451098,0.0936279
 2,-0.07657840,0.00000053,0.00000071,0.00000252,-0.00000185,-0.00000145
 ,-0.00000211,0.00000062,0.00000007,0.00000002,0.00000057,-0.00000003,0
 .00000035,0.00000011,0.00000059,0.00000036,0.00000057,0.00000079,-0.00
 000038,0.00000160,-0.00000455,-0.00000591,-0.00000385,0.00000253,0.000
 00360,0.00000755,-0.00000117,-0.00000366,0.00000468,0.00000041,-0.0000
 0200,-0.00000204,0.00000193,0.00000055,-0.00000556,0.00000118,0.000014
 73,-0.00000144,-0.00000016,-0.00000469,-0.00001125,-0.00000843,-0.0000
 0800,-0.00001570,-0.00002539,-0.00000246,0.00075398,0.00017274,-0.0001
 3363,0.00002348,-0.00001073,-0.00000946,0.00007798,0.00027412,-0.00044
 014,0.00015727,-0.00059688,-0.00153868,-0.00006820,0.00025248,0.000457
 14,-0.00842011,-0.10653735,0.06719866\\-0.00000445,-0.00000132,0.00000
 064,0.00000955,0.00000001,0.00000015,0.00000160,0.00000431,0.00000156,
 -0.00000554,-0.00000468,0.00000747,0.00000897,-0.00000253,-0.00000424,
 -0.00000694,0.00000255,0.00000370,0.00000391,-0.00000160,-0.00000452,0
 .00000030,-0.00000033,-0.00000114,0.00000189,-0.00000324,0.00000225,-0
 .00000111,-0.00000141,0.00000288,-0.00000031,-0.00000012,0.00000016,-0
 .00000334,0.00000638,-0.00000498,-0.00000191,0.00000368,-0.00000355,-0
 .00000349,-0.00000323,0.00000072,0.00000565,-0.00000254,-0.00000155,0.
 00000164,0.00000334,0.00000095,-0.00000258,-0.00000136,0.00000021,0.00
 000206,-0.00000023,0.00000222,0.00000335,0.00000089,0.00000114,-0.0000
 0035,-0.00000122,0.00000038,-0.00000404,-0.00000246,-0.00000055,-0.000
 00115,-0.00000011,0.00000076,-0.00000210,0.00000006,-0.00000354,0.0000
 0091,0.00000157,0.00000076,-0.00000119,0.00000037,0.00000161,0.0000055
 8,-0.00000069,0.00000054,-0.00000948,0.00000279,-0.00000135,0.00000589
 ,-0.00000301,0.00000286,-0.00000193,0.00000375,-0.00000270,-0.00000388
 ,-0.00000324,-0.00000075,-0.00000028,-0.00000181,-0.00000234,-0.000000
 76,-0.00000113,0.00000083,-0.00000049,0.,-0.00000102,-0.00000060,0.000
 00052,-0.00000070,0.00000046,-0.00000114,0.00000028,0.00000121,0.00000
 036,-0.00000060,0.00000287,0.00000017,0.00000168,-0.00000176,0.0000031
 6,0.00000033,-0.00000052,-0.00000064,-0.00000120,0.00000055,-0.0000018
 3,0.00000075,0.00000187,0.00000130,0.00000033,0.00000138,0.00000041,-0
 .00000169,-0.00000143,-0.00000069,-0.00000047,0.00000144,0.00000244,-0
 .00000009,0.00000175,0.00000110,-0.00000061,-0.00000041,-0.00000091,0.
 00000086,-0.00000225,-0.00000056,-0.00000029,0.00000078,0.00000092,0.0
 0000144,0.00000184,0.00000361,-0.00000097,-0.00000317,-0.00000166,0.00
 000139\\\@


 CHARLIE BROWN..'I CAN'T GET THAT STUPID KITE IN THE   
 AIR... I CAN'T... I C A N N O T...'                          
 LUCY..'OH COME NOW CHARLIE BROWN...THAT'S NO WAY TO TALK...  
 THE TROUBLE WITH YOU IS YOU DON'T BELIEVE IN YOURSELF... YOU 
 DON'T BELIEVE IN YOUR OWN ABILITIES...  YOU'VE GOT TO SAY TO 
 YOURSELF...'I BELIEVE I CAN FLY THIS KITE.'... GO AHEAD SAY  
 IT....'
 CHARLIE BROWN..'I BELIEVE THAT I CAN FLY THIS STUPID  
 KITE.....I BELIEVE THAT I CAN FLY THIS KITE........          
 I  A C T U A L L Y  B E L I E V E  T H A T  I  C A N ******' 
 LUCY..'I'LL BET YOU TEN-TO-ONE YOU'RE WRONG.......'    SCHULZ
 Job cpu time:  0 days 17 hours 19 minutes 26.3 seconds.
 File lengths (MBytes):  RWF=   1473 Int=      0 D2E=      0 Chk=     21 Scr=      1
 Normal termination of Gaussian 09 at Sun Sep  4 16:46:36 2022.
