 Entering Gaussian System, Link 0=g09
 Input=Mol26.gjf
 Output=Mol26.log
 Initial command:
 /opt/gaussian/l1.exe /home/scr/lqcapf-6/Gau-233204.inp -scrdir=/home/scr/lqcapf-6/
 Entering Link 1 = /opt/gaussian/l1.exe PID=    233206.
  
 Copyright (c) 1988,1990,1992,1993,1995,1998,2003,2009,2011,
            Gaussian, Inc.  All Rights Reserved.
  
 This is part of the Gaussian(R) 09 program.  It is based on
 the Gaussian(R) 03 system (copyright 2003, Gaussian, Inc.),
 the Gaussian(R) 98 system (copyright 1998, Gaussian, Inc.),
 the Gaussian(R) 94 system (copyright 1995, Gaussian, Inc.),
 the Gaussian 92(TM) system (copyright 1992, Gaussian, Inc.),
 the Gaussian 90(TM) system (copyright 1990, Gaussian, Inc.),
 the Gaussian 88(TM) system (copyright 1988, Gaussian, Inc.),
 the Gaussian 86(TM) system (copyright 1986, Carnegie Mellon
 University), and the Gaussian 82(TM) system (copyright 1983,
 Carnegie Mellon University). Gaussian is a federally registered
 trademark of Gaussian, Inc.
  
 This software contains proprietary and confidential information,
 including trade secrets, belonging to Gaussian, Inc.
  
 This software is provided under written license and may be
 used, copied, transmitted, or stored only in accord with that
 written license.
  
 The following legend is applicable only to US Government
 contracts under FAR:
  
                    RESTRICTED RIGHTS LEGEND
  
 Use, reproduction and disclosure by the US Government is
 subject to restrictions as set forth in subparagraphs (a)
 and (c) of the Commercial Computer Software - Restricted
 Rights clause in FAR 52.227-19.
  
 Gaussian, Inc.
 340 Quinnipiac St., Bldg. 40, Wallingford CT 06492
  
  
 ---------------------------------------------------------------
 Warning -- This program may not be used in any manner that
 competes with the business of Gaussian, Inc. or will provide
 assistance to any competitor of Gaussian, Inc.  The licensee
 of this program is prohibited from giving any competitor of
 Gaussian, Inc. access to this program.  By using this program,
 the user acknowledges that Gaussian, Inc. is engaged in the
 business of creating and licensing software in the field of
 computational chemistry and represents and warrants to the
 licensee that it is not a competitor of Gaussian, Inc. and that
 it will not use this program in any manner prohibited above.
 ---------------------------------------------------------------
  

 Cite this work as:
 Gaussian 09, Revision C.01,
 M. J. Frisch, G. W. Trucks, H. B. Schlegel, G. E. Scuseria, 
 M. A. Robb, J. R. Cheeseman, G. Scalmani, V. Barone, B. Mennucci, 
 G. A. Petersson, H. Nakatsuji, M. Caricato, X. Li, H. P. Hratchian, 
 A. F. Izmaylov, J. Bloino, G. Zheng, J. L. Sonnenberg, M. Hada, 
 M. Ehara, K. Toyota, R. Fukuda, J. Hasegawa, M. Ishida, T. Nakajima, 
 Y. Honda, O. Kitao, H. Nakai, T. Vreven, J. A. Montgomery, Jr., 
 J. E. Peralta, F. Ogliaro, M. Bearpark, J. J. Heyd, E. Brothers, 
 K. N. Kudin, V. N. Staroverov, T. Keith, R. Kobayashi, J. Normand, 
 K. Raghavachari, A. Rendell, J. C. Burant, S. S. Iyengar, J. Tomasi, 
 M. Cossi, N. Rega, J. M. Millam, M. Klene, J. E. Knox, J. B. Cross, 
 V. Bakken, C. Adamo, J. Jaramillo, R. Gomperts, R. E. Stratmann, 
 O. Yazyev, A. J. Austin, R. Cammi, C. Pomelli, J. W. Ochterski, 
 R. L. Martin, K. Morokuma, V. G. Zakrzewski, G. A. Voth, 
 P. Salvador, J. J. Dannenberg, S. Dapprich, A. D. Daniels, 
 O. Farkas, J. B. Foresman, J. V. Ortiz, J. Cioslowski, 
 and D. J. Fox, Gaussian, Inc., Wallingford CT, 2010.
 
 ******************************************
 Gaussian 09:  EM64L-G09RevC.01 23-Sep-2011
                 5-Sep-2022 
 ******************************************
 %nprocshared=8
 Will use up to    8 processors via shared memory.
 %mem=1600MB
 -------------------------
 #p opt freq b3lyp/cc-pvdz
 -------------------------
 1/14=-1,18=20,19=15,26=3,38=1/1,3;
 2/9=110,12=2,17=6,18=5,40=1/2;
 3/5=16,11=2,16=1,25=1,30=1,71=1,74=-5/1,2,3;
 4//1;
 5/5=2,38=5/2;
 6/7=2,8=2,9=2,10=2,28=1/1;
 7//1,2,3,16;
 1/14=-1,18=20,19=15/3(2);
 2/9=110/2;
 99//99;
 2/9=110/2;
 3/5=16,11=2,16=1,25=1,30=1,71=1,74=-5/1,2,3;
 4/5=5,16=3/1;
 5/5=2,38=5/2;
 7//1,2,3,16;
 1/14=-1,18=20,19=15/3(-5);
 2/9=110/2;
 6/7=2,8=2,9=2,10=2,19=2,28=1/1;
 99/9=1/99;
 Leave Link    1 at Mon Sep  5 05:41:11 2022, MaxMem=  209715200 cpu:       0.2
 (Enter /opt/gaussian/l101.exe)
 ---------
 Mol26.log
 ---------
 Charge =  0 Multiplicity = 1
 Symbolic Z-Matrix:
 O                     0.98423  -1.21779  -0.38114 
 C                     1.17124  -0.03976  -0.64423 
 C                     2.57471   0.47069  -0.95666 
 N                     3.53568  -0.58949  -0.96915 
 N                     3.88948  -1.16152  -2.15379 
 N                     4.70179  -2.11163  -1.94048 
 C                     4.91636  -2.21911  -0.57572 
 C                     5.71993  -3.09672   0.15086 
 C                     5.73299  -2.95373   1.5166 
 C                     4.95972  -1.95599   2.15132 
 C                     4.16339  -1.08857   1.4426 
 C                     4.15692  -1.2408    0.05361 
 N                     0.14722   0.87165  -0.66869 
 C                     0.32081   2.30925  -0.89409 
 C                     0.11706   3.17124   0.36389 
 C                     0.56639   4.62418   0.08522 
 C                     2.07408   4.6194    0.42769 
 O                     2.31787   3.36404   1.10774 
 C                     1.05969   2.78397   1.50043 
 C                    -1.19851   0.40748  -0.47359 
 C                    -2.07953   0.38877  -1.54468 
 C                    -3.39022  -0.02181  -1.36513 
 C                    -3.84659  -0.4296   -0.11298 
 C                    -2.94761  -0.41716   0.95275 
 C                    -1.63827  -0.00277   0.77574 
 C                    -5.25029  -0.87238   0.07969 
 C                    -6.32234  -0.18066  -0.4803 
 C                    -7.61603  -0.63113  -0.27154 
 C                    -7.80959  -1.7655    0.4991 
 N                    -6.79191  -2.43486   1.03676 
 C                    -5.54999  -2.00629   0.83307 
 H                     2.59225   0.91076  -1.94285 
 H                     2.87538   1.22963  -0.2458 
 H                     6.29723  -3.8472   -0.35032 
 H                     6.3344   -3.60586   2.1186 
 H                     4.99599  -1.87834   3.22074 
 H                     3.57727  -0.33933   1.93556 
 H                     1.30392   2.494    -1.29479 
 H                    -0.38704   2.62572  -1.64986 
 H                    -0.91842   3.12279   0.67341 
 H                     0.38073   4.92534  -0.93853 
 H                     0.0287    5.31159   0.72589 
 H                     2.70885   4.64201  -0.44435 
 H                     2.34941   5.43494   1.08021 
 H                     0.73309   3.20653   2.44361 
 H                     1.20653   1.72484   1.62545 
 H                    -1.73485   0.67207  -2.52034 
 H                    -4.05061  -0.05553  -2.20981 
 H                    -3.2752   -0.71773   1.92877 
 H                    -0.95562  -0.01439   1.60151 
 H                    -6.14689   0.70705  -1.05665 
 H                    -8.45425  -0.11065  -0.68959 
 H                    -8.78968  -2.14967   0.69255 
 H                    -4.76975  -2.59574   1.26941 
 
 NAtoms=     54 NQM=        0 NQMF=       0 NMMI=     54 NMMIF=      0
                NMic=       0 NMicF=      0.
                    Isotopes and Nuclear Properties:
 (Nuclear quadrupole moments (NQMom) in fm**2, nuclear magnetic moments (NMagM)
  in nuclear magnetons)

  Atom         1           2           3           4           5           6           7           8           9          10
 IAtWgt=          16          12          12          14          14          14          12          12          12          12
 AtmWgt=  15.9949146  12.0000000  12.0000000  14.0030740  14.0030740  14.0030740  12.0000000  12.0000000  12.0000000  12.0000000
 NucSpn=           0           0           0           2           2           2           0           0           0           0
 AtZEff=   0.0000000   0.0000000   0.0000000   0.0000000   0.0000000   0.0000000   0.0000000   0.0000000   0.0000000   0.0000000
 NQMom=    0.0000000   0.0000000   0.0000000   2.0440000   2.0440000   2.0440000   0.0000000   0.0000000   0.0000000   0.0000000
 NMagM=    0.0000000   0.0000000   0.0000000   0.4037610   0.4037610   0.4037610   0.0000000   0.0000000   0.0000000   0.0000000

  Atom        11          12          13          14          15          16          17          18          19          20
 IAtWgt=          12          12          14          12          12          12          12          16          12          12
 AtmWgt=  12.0000000  12.0000000  14.0030740  12.0000000  12.0000000  12.0000000  12.0000000  15.9949146  12.0000000  12.0000000
 NucSpn=           0           0           2           0           0           0           0           0           0           0
 AtZEff=   0.0000000   0.0000000   0.0000000   0.0000000   0.0000000   0.0000000   0.0000000   0.0000000   0.0000000   0.0000000
 NQMom=    0.0000000   0.0000000   2.0440000   0.0000000   0.0000000   0.0000000   0.0000000   0.0000000   0.0000000   0.0000000
 NMagM=    0.0000000   0.0000000   0.4037610   0.0000000   0.0000000   0.0000000   0.0000000   0.0000000   0.0000000   0.0000000

  Atom        21          22          23          24          25          26          27          28          29          30
 IAtWgt=          12          12          12          12          12          12          12          12          12          14
 AtmWgt=  12.0000000  12.0000000  12.0000000  12.0000000  12.0000000  12.0000000  12.0000000  12.0000000  12.0000000  14.0030740
 NucSpn=           0           0           0           0           0           0           0           0           0           2
 AtZEff=   0.0000000   0.0000000   0.0000000   0.0000000   0.0000000   0.0000000   0.0000000   0.0000000   0.0000000   0.0000000
 NQMom=    0.0000000   0.0000000   0.0000000   0.0000000   0.0000000   0.0000000   0.0000000   0.0000000   0.0000000   2.0440000
 NMagM=    0.0000000   0.0000000   0.0000000   0.0000000   0.0000000   0.0000000   0.0000000   0.0000000   0.0000000   0.4037610

  Atom        31          32          33          34          35          36          37          38          39          40
 IAtWgt=          12           1           1           1           1           1           1           1           1           1
 AtmWgt=  12.0000000   1.0078250   1.0078250   1.0078250   1.0078250   1.0078250   1.0078250   1.0078250   1.0078250   1.0078250
 NucSpn=           0           1           1           1           1           1           1           1           1           1
 AtZEff=   0.0000000   0.0000000   0.0000000   0.0000000   0.0000000   0.0000000   0.0000000   0.0000000   0.0000000   0.0000000
 NQMom=    0.0000000   0.0000000   0.0000000   0.0000000   0.0000000   0.0000000   0.0000000   0.0000000   0.0000000   0.0000000
 NMagM=    0.0000000   2.7928460   2.7928460   2.7928460   2.7928460   2.7928460   2.7928460   2.7928460   2.7928460   2.7928460

  Atom        41          42          43          44          45          46          47          48          49          50
 IAtWgt=           1           1           1           1           1           1           1           1           1           1
 AtmWgt=   1.0078250   1.0078250   1.0078250   1.0078250   1.0078250   1.0078250   1.0078250   1.0078250   1.0078250   1.0078250
 NucSpn=           1           1           1           1           1           1           1           1           1           1
 AtZEff=   0.0000000   0.0000000   0.0000000   0.0000000   0.0000000   0.0000000   0.0000000   0.0000000   0.0000000   0.0000000
 NQMom=    0.0000000   0.0000000   0.0000000   0.0000000   0.0000000   0.0000000   0.0000000   0.0000000   0.0000000   0.0000000
 NMagM=    2.7928460   2.7928460   2.7928460   2.7928460   2.7928460   2.7928460   2.7928460   2.7928460   2.7928460   2.7928460

  Atom        51          52          53          54
 IAtWgt=           1           1           1           1
 AtmWgt=   1.0078250   1.0078250   1.0078250   1.0078250
 NucSpn=           1           1           1           1
 AtZEff=   0.0000000   0.0000000   0.0000000   0.0000000
 NQMom=    0.0000000   0.0000000   0.0000000   0.0000000
 NMagM=    2.7928460   2.7928460   2.7928460   2.7928460
 Leave Link  101 at Mon Sep  5 05:41:11 2022, MaxMem=  209715200 cpu:       0.9
 (Enter /opt/gaussian/l103.exe)

 GradGradGradGradGradGradGradGradGradGradGradGradGradGradGradGradGradGrad
 Berny optimization.
 Initialization pass.
                           ----------------------------
                           !    Initial Parameters    !
                           ! (Angstroms and Degrees)  !
 --------------------------                            --------------------------
 ! Name  Definition              Value          Derivative Info.                !
 --------------------------------------------------------------------------------
 ! R1    R(1,2)                  1.2215         estimate D2E/DX2                !
 ! R2    R(2,3)                  1.5257         estimate D2E/DX2                !
 ! R3    R(2,13)                 1.3711         estimate D2E/DX2                !
 ! R4    R(3,4)                  1.4309         estimate D2E/DX2                !
 ! R5    R(3,32)                 1.0801         estimate D2E/DX2                !
 ! R6    R(3,33)                 1.0825         estimate D2E/DX2                !
 ! R7    R(4,5)                  1.3623         estimate D2E/DX2                !
 ! R8    R(4,12)                 1.3624         estimate D2E/DX2                !
 ! R9    R(5,6)                  1.2681         estimate D2E/DX2                !
 ! R10   R(6,7)                  1.3857         estimate D2E/DX2                !
 ! R11   R(7,8)                  1.3942         estimate D2E/DX2                !
 ! R12   R(7,12)                 1.3892         estimate D2E/DX2                !
 ! R13   R(8,9)                  1.3733         estimate D2E/DX2                !
 ! R14   R(8,34)                 1.0713         estimate D2E/DX2                !
 ! R15   R(9,10)                 1.4129         estimate D2E/DX2                !
 ! R16   R(9,35)                 1.0721         estimate D2E/DX2                !
 ! R17   R(10,11)                1.3744         estimate D2E/DX2                !
 ! R18   R(10,36)                1.0728         estimate D2E/DX2                !
 ! R19   R(11,12)                1.3973         estimate D2E/DX2                !
 ! R20   R(11,37)                1.0714         estimate D2E/DX2                !
 ! R21   R(13,14)                1.4655         estimate D2E/DX2                !
 ! R22   R(13,20)                1.4368         estimate D2E/DX2                !
 ! R23   R(14,15)                1.5385         estimate D2E/DX2                !
 ! R24   R(14,38)                1.0776         estimate D2E/DX2                !
 ! R25   R(14,39)                1.0828         estimate D2E/DX2                !
 ! R26   R(15,16)                1.5462         estimate D2E/DX2                !
 ! R27   R(15,19)                1.5265         estimate D2E/DX2                !
 ! R28   R(15,40)                1.0818         estimate D2E/DX2                !
 ! R29   R(16,17)                1.5461         estimate D2E/DX2                !
 ! R30   R(16,41)                1.0832         estimate D2E/DX2                !
 ! R31   R(16,42)                1.0826         estimate D2E/DX2                !
 ! R32   R(17,18)                1.4484         estimate D2E/DX2                !
 ! R33   R(17,43)                1.0788         estimate D2E/DX2                !
 ! R34   R(17,44)                1.0801         estimate D2E/DX2                !
 ! R35   R(18,19)                1.44           estimate D2E/DX2                !
 ! R36   R(19,45)                1.0839         estimate D2E/DX2                !
 ! R37   R(19,46)                1.0765         estimate D2E/DX2                !
 ! R38   R(20,21)                1.387          estimate D2E/DX2                !
 ! R39   R(20,25)                1.3865         estimate D2E/DX2                !
 ! R40   R(21,22)                1.3852         estimate D2E/DX2                !
 ! R41   R(21,47)                1.0728         estimate D2E/DX2                !
 ! R42   R(22,23)                1.3937         estimate D2E/DX2                !
 ! R43   R(22,48)                1.0727         estimate D2E/DX2                !
 ! R44   R(23,24)                1.3943         estimate D2E/DX2                !
 ! R45   R(23,26)                1.4844         estimate D2E/DX2                !
 ! R46   R(24,25)                1.3847         estimate D2E/DX2                !
 ! R47   R(24,49)                1.0725         estimate D2E/DX2                !
 ! R48   R(25,50)                1.0715         estimate D2E/DX2                !
 ! R49   R(26,27)                1.3933         estimate D2E/DX2                !
 ! R50   R(26,31)                1.394          estimate D2E/DX2                !
 ! R51   R(27,28)                1.3857         estimate D2E/DX2                !
 ! R52   R(27,51)                1.0728         estimate D2E/DX2                !
 ! R53   R(28,29)                1.385          estimate D2E/DX2                !
 ! R54   R(28,52)                1.0716         estimate D2E/DX2                !
 ! R55   R(29,30)                1.3315         estimate D2E/DX2                !
 ! R56   R(29,53)                1.0703         estimate D2E/DX2                !
 ! R57   R(30,31)                1.3295         estimate D2E/DX2                !
 ! R58   R(31,54)                1.0708         estimate D2E/DX2                !
 ! A1    A(1,2,3)              120.5045         estimate D2E/DX2                !
 ! A2    A(1,2,13)             122.0458         estimate D2E/DX2                !
 ! A3    A(3,2,13)             117.4495         estimate D2E/DX2                !
 ! A4    A(2,3,4)              111.8179         estimate D2E/DX2                !
 ! A5    A(2,3,32)             109.7689         estimate D2E/DX2                !
 ! A6    A(2,3,33)             110.83           estimate D2E/DX2                !
 ! A7    A(4,3,32)             106.4394         estimate D2E/DX2                !
 ! A8    A(4,3,33)             109.795          estimate D2E/DX2                !
 ! A9    A(32,3,33)            108.0259         estimate D2E/DX2                !
 ! A10   A(3,4,5)              119.5456         estimate D2E/DX2                !
 ! A11   A(3,4,12)             130.8331         estimate D2E/DX2                !
 ! A12   A(5,4,12)             109.4902         estimate D2E/DX2                !
 ! A13   A(4,5,6)              109.5545         estimate D2E/DX2                !
 ! A14   A(5,6,7)              108.843          estimate D2E/DX2                !
 ! A15   A(6,7,8)              130.6422         estimate D2E/DX2                !
 ! A16   A(6,7,12)             107.8723         estimate D2E/DX2                !
 ! A17   A(8,7,12)             121.4852         estimate D2E/DX2                !
 ! A18   A(7,8,9)              117.2724         estimate D2E/DX2                !
 ! A19   A(7,8,34)             120.5139         estimate D2E/DX2                !
 ! A20   A(9,8,34)             122.2137         estimate D2E/DX2                !
 ! A21   A(8,9,10)             121.0036         estimate D2E/DX2                !
 ! A22   A(8,9,35)             120.0292         estimate D2E/DX2                !
 ! A23   A(10,9,35)            118.967          estimate D2E/DX2                !
 ! A24   A(9,10,11)            122.0831         estimate D2E/DX2                !
 ! A25   A(9,10,36)            118.7117         estimate D2E/DX2                !
 ! A26   A(11,10,36)           119.205          estimate D2E/DX2                !
 ! A27   A(10,11,12)           116.5209         estimate D2E/DX2                !
 ! A28   A(10,11,37)           121.4046         estimate D2E/DX2                !
 ! A29   A(12,11,37)           122.0741         estimate D2E/DX2                !
 ! A30   A(4,12,7)             104.2323         estimate D2E/DX2                !
 ! A31   A(4,12,11)            134.1268         estimate D2E/DX2                !
 ! A32   A(7,12,11)            121.6347         estimate D2E/DX2                !
 ! A33   A(2,13,14)            124.4971         estimate D2E/DX2                !
 ! A34   A(2,13,20)            118.8386         estimate D2E/DX2                !
 ! A35   A(14,13,20)           116.6622         estimate D2E/DX2                !
 ! A36   A(13,14,15)           114.0896         estimate D2E/DX2                !
 ! A37   A(13,14,38)           109.478          estimate D2E/DX2                !
 ! A38   A(13,14,39)           108.4596         estimate D2E/DX2                !
 ! A39   A(15,14,38)           109.1964         estimate D2E/DX2                !
 ! A40   A(15,14,39)           108.6864         estimate D2E/DX2                !
 ! A41   A(38,14,39)           106.6642         estimate D2E/DX2                !
 ! A42   A(14,15,16)           109.9158         estimate D2E/DX2                !
 ! A43   A(14,15,19)           112.6347         estimate D2E/DX2                !
 ! A44   A(14,15,40)           109.6091         estimate D2E/DX2                !
 ! A45   A(16,15,19)           101.1359         estimate D2E/DX2                !
 ! A46   A(16,15,40)           111.8273         estimate D2E/DX2                !
 ! A47   A(19,15,40)           111.5102         estimate D2E/DX2                !
 ! A48   A(15,16,17)           103.9198         estimate D2E/DX2                !
 ! A49   A(15,16,41)           112.446          estimate D2E/DX2                !
 ! A50   A(15,16,42)           110.2229         estimate D2E/DX2                !
 ! A51   A(17,16,41)           112.1705         estimate D2E/DX2                !
 ! A52   A(17,16,42)           110.8052         estimate D2E/DX2                !
 ! A53   A(41,16,42)           107.3162         estimate D2E/DX2                !
 ! A54   A(16,17,18)           105.7129         estimate D2E/DX2                !
 ! A55   A(16,17,43)           113.2443         estimate D2E/DX2                !
 ! A56   A(16,17,44)           112.3367         estimate D2E/DX2                !
 ! A57   A(18,17,43)           107.3765         estimate D2E/DX2                !
 ! A58   A(18,17,44)           109.1391         estimate D2E/DX2                !
 ! A59   A(43,17,44)           108.8145         estimate D2E/DX2                !
 ! A60   A(17,18,19)           109.2752         estimate D2E/DX2                !
 ! A61   A(15,19,18)           103.5503         estimate D2E/DX2                !
 ! A62   A(15,19,45)           111.2788         estimate D2E/DX2                !
 ! A63   A(15,19,46)           114.8524         estimate D2E/DX2                !
 ! A64   A(18,19,45)           110.0917         estimate D2E/DX2                !
 ! A65   A(18,19,46)           107.9866         estimate D2E/DX2                !
 ! A66   A(45,19,46)           108.8805         estimate D2E/DX2                !
 ! A67   A(13,20,21)           119.6315         estimate D2E/DX2                !
 ! A68   A(13,20,25)           120.9961         estimate D2E/DX2                !
 ! A69   A(21,20,25)           119.3641         estimate D2E/DX2                !
 ! A70   A(20,21,22)           120.3272         estimate D2E/DX2                !
 ! A71   A(20,21,47)           119.6465         estimate D2E/DX2                !
 ! A72   A(22,21,47)           120.0103         estimate D2E/DX2                !
 ! A73   A(21,22,23)           120.8653         estimate D2E/DX2                !
 ! A74   A(21,22,48)           119.3251         estimate D2E/DX2                !
 ! A75   A(23,22,48)           119.7788         estimate D2E/DX2                !
 ! A76   A(22,23,24)           118.2274         estimate D2E/DX2                !
 ! A77   A(22,23,26)           120.8988         estimate D2E/DX2                !
 ! A78   A(24,23,26)           120.873          estimate D2E/DX2                !
 ! A79   A(23,24,25)           120.9719         estimate D2E/DX2                !
 ! A80   A(23,24,49)           119.7452         estimate D2E/DX2                !
 ! A81   A(25,24,49)           119.276          estimate D2E/DX2                !
 ! A82   A(20,25,24)           120.2401         estimate D2E/DX2                !
 ! A83   A(20,25,50)           119.7067         estimate D2E/DX2                !
 ! A84   A(24,25,50)           120.0446         estimate D2E/DX2                !
 ! A85   A(23,26,27)           121.8248         estimate D2E/DX2                !
 ! A86   A(23,26,31)           121.0701         estimate D2E/DX2                !
 ! A87   A(27,26,31)           117.1052         estimate D2E/DX2                !
 ! A88   A(26,27,28)           119.7617         estimate D2E/DX2                !
 ! A89   A(26,27,51)           120.0574         estimate D2E/DX2                !
 ! A90   A(28,27,51)           120.1724         estimate D2E/DX2                !
 ! A91   A(27,28,29)           118.7227         estimate D2E/DX2                !
 ! A92   A(27,28,52)           120.9054         estimate D2E/DX2                !
 ! A93   A(29,28,52)           120.37           estimate D2E/DX2                !
 ! A94   A(28,29,30)           121.9806         estimate D2E/DX2                !
 ! A95   A(28,29,53)           121.502          estimate D2E/DX2                !
 ! A96   A(30,29,53)           116.5174         estimate D2E/DX2                !
 ! A97   A(29,30,31)           119.3449         estimate D2E/DX2                !
 ! A98   A(26,31,30)           123.0834         estimate D2E/DX2                !
 ! A99   A(26,31,54)           120.7538         estimate D2E/DX2                !
 ! A100  A(30,31,54)           116.1535         estimate D2E/DX2                !
 ! D1    D(1,2,3,4)              3.3418         estimate D2E/DX2                !
 ! D2    D(1,2,3,32)           121.234          estimate D2E/DX2                !
 ! D3    D(1,2,3,33)          -119.5197         estimate D2E/DX2                !
 ! D4    D(13,2,3,4)          -176.8283         estimate D2E/DX2                !
 ! D5    D(13,2,3,32)          -58.936          estimate D2E/DX2                !
 ! D6    D(13,2,3,33)           60.3103         estimate D2E/DX2                !
 ! D7    D(1,2,13,14)          175.9805         estimate D2E/DX2                !
 ! D8    D(1,2,13,20)           -4.5737         estimate D2E/DX2                !
 ! D9    D(3,2,13,14)           -3.8466         estimate D2E/DX2                !
 ! D10   D(3,2,13,20)          175.5991         estimate D2E/DX2                !
 ! D11   D(2,3,4,5)             96.6278         estimate D2E/DX2                !
 ! D12   D(2,3,4,12)           -78.7338         estimate D2E/DX2                !
 ! D13   D(32,3,4,5)           -23.2384         estimate D2E/DX2                !
 ! D14   D(32,3,4,12)          161.4            estimate D2E/DX2                !
 ! D15   D(33,3,4,5)          -139.9243         estimate D2E/DX2                !
 ! D16   D(33,3,4,12)           44.7141         estimate D2E/DX2                !
 ! D17   D(3,4,5,6)           -177.1643         estimate D2E/DX2                !
 ! D18   D(12,4,5,6)            -0.8856         estimate D2E/DX2                !
 ! D19   D(3,4,12,7)           176.5691         estimate D2E/DX2                !
 ! D20   D(3,4,12,11)           -4.357          estimate D2E/DX2                !
 ! D21   D(5,4,12,7)             0.849          estimate D2E/DX2                !
 ! D22   D(5,4,12,11)          179.9229         estimate D2E/DX2                !
 ! D23   D(4,5,6,7)              0.5165         estimate D2E/DX2                !
 ! D24   D(5,6,7,8)           -179.8014         estimate D2E/DX2                !
 ! D25   D(5,6,7,12)             0.0235         estimate D2E/DX2                !
 ! D26   D(6,7,8,9)            179.6824         estimate D2E/DX2                !
 ! D27   D(6,7,8,34)            -0.3633         estimate D2E/DX2                !
 ! D28   D(12,7,8,9)            -0.1222         estimate D2E/DX2                !
 ! D29   D(12,7,8,34)          179.8321         estimate D2E/DX2                !
 ! D30   D(6,7,12,4)            -0.5385         estimate D2E/DX2                !
 ! D31   D(6,7,12,11)         -179.7577         estimate D2E/DX2                !
 ! D32   D(8,7,12,4)           179.3057         estimate D2E/DX2                !
 ! D33   D(8,7,12,11)            0.0865         estimate D2E/DX2                !
 ! D34   D(7,8,9,10)             0.0516         estimate D2E/DX2                !
 ! D35   D(7,8,9,35)           179.9184         estimate D2E/DX2                !
 ! D36   D(34,8,9,10)         -179.9019         estimate D2E/DX2                !
 ! D37   D(34,8,9,35)           -0.0351         estimate D2E/DX2                !
 ! D38   D(8,9,10,11)            0.0589         estimate D2E/DX2                !
 ! D39   D(8,9,10,36)          179.8755         estimate D2E/DX2                !
 ! D40   D(35,9,10,11)        -179.8093         estimate D2E/DX2                !
 ! D41   D(35,9,10,36)           0.0073         estimate D2E/DX2                !
 ! D42   D(9,10,11,12)          -0.0953         estimate D2E/DX2                !
 ! D43   D(9,10,11,37)         179.6624         estimate D2E/DX2                !
 ! D44   D(36,10,11,12)       -179.9111         estimate D2E/DX2                !
 ! D45   D(36,10,11,37)         -0.1534         estimate D2E/DX2                !
 ! D46   D(10,11,12,4)        -178.9215         estimate D2E/DX2                !
 ! D47   D(10,11,12,7)           0.0242         estimate D2E/DX2                !
 ! D48   D(37,11,12,4)           1.3226         estimate D2E/DX2                !
 ! D49   D(37,11,12,7)        -179.7317         estimate D2E/DX2                !
 ! D50   D(2,13,14,15)        -107.4473         estimate D2E/DX2                !
 ! D51   D(2,13,14,38)          15.2483         estimate D2E/DX2                !
 ! D52   D(2,13,14,39)         131.2715         estimate D2E/DX2                !
 ! D53   D(20,13,14,15)         73.096          estimate D2E/DX2                !
 ! D54   D(20,13,14,38)       -164.2084         estimate D2E/DX2                !
 ! D55   D(20,13,14,39)        -48.1852         estimate D2E/DX2                !
 ! D56   D(2,13,20,21)        -108.4312         estimate D2E/DX2                !
 ! D57   D(2,13,20,25)          72.6218         estimate D2E/DX2                !
 ! D58   D(14,13,20,21)         71.0576         estimate D2E/DX2                !
 ! D59   D(14,13,20,25)       -107.8893         estimate D2E/DX2                !
 ! D60   D(13,14,15,16)        169.8747         estimate D2E/DX2                !
 ! D61   D(13,14,15,19)         57.9347         estimate D2E/DX2                !
 ! D62   D(13,14,15,40)        -66.8348         estimate D2E/DX2                !
 ! D63   D(38,14,15,16)         47.0256         estimate D2E/DX2                !
 ! D64   D(38,14,15,19)        -64.9144         estimate D2E/DX2                !
 ! D65   D(38,14,15,40)        170.3161         estimate D2E/DX2                !
 ! D66   D(39,14,15,16)        -68.9698         estimate D2E/DX2                !
 ! D67   D(39,14,15,19)        179.0902         estimate D2E/DX2                !
 ! D68   D(39,14,15,40)         54.3207         estimate D2E/DX2                !
 ! D69   D(14,15,16,17)        -88.0091         estimate D2E/DX2                !
 ! D70   D(14,15,16,41)         33.527          estimate D2E/DX2                !
 ! D71   D(14,15,16,42)        153.2219         estimate D2E/DX2                !
 ! D72   D(19,15,16,17)         31.2334         estimate D2E/DX2                !
 ! D73   D(19,15,16,41)        152.7695         estimate D2E/DX2                !
 ! D74   D(19,15,16,42)        -87.5356         estimate D2E/DX2                !
 ! D75   D(40,15,16,17)        150.0106         estimate D2E/DX2                !
 ! D76   D(40,15,16,41)        -88.4534         estimate D2E/DX2                !
 ! D77   D(40,15,16,42)         31.2416         estimate D2E/DX2                !
 ! D78   D(14,15,19,18)         76.9137         estimate D2E/DX2                !
 ! D79   D(14,15,19,45)       -164.8523         estimate D2E/DX2                !
 ! D80   D(14,15,19,46)        -40.582          estimate D2E/DX2                !
 ! D81   D(16,15,19,18)        -40.3589         estimate D2E/DX2                !
 ! D82   D(16,15,19,45)         77.8751         estimate D2E/DX2                !
 ! D83   D(16,15,19,46)       -157.8546         estimate D2E/DX2                !
 ! D84   D(40,15,19,18)       -159.3644         estimate D2E/DX2                !
 ! D85   D(40,15,19,45)        -41.1303         estimate D2E/DX2                !
 ! D86   D(40,15,19,46)         83.1399         estimate D2E/DX2                !
 ! D87   D(15,16,17,18)        -11.583          estimate D2E/DX2                !
 ! D88   D(15,16,17,43)        105.7065         estimate D2E/DX2                !
 ! D89   D(15,16,17,44)       -130.5176         estimate D2E/DX2                !
 ! D90   D(41,16,17,18)       -133.3026         estimate D2E/DX2                !
 ! D91   D(41,16,17,43)        -16.0132         estimate D2E/DX2                !
 ! D92   D(41,16,17,44)        107.7628         estimate D2E/DX2                !
 ! D93   D(42,16,17,18)        106.7859         estimate D2E/DX2                !
 ! D94   D(42,16,17,43)       -135.9247         estimate D2E/DX2                !
 ! D95   D(42,16,17,44)        -12.1488         estimate D2E/DX2                !
 ! D96   D(16,17,18,19)        -14.4924         estimate D2E/DX2                !
 ! D97   D(43,17,18,19)       -135.6648         estimate D2E/DX2                !
 ! D98   D(44,17,18,19)        106.5409         estimate D2E/DX2                !
 ! D99   D(17,18,19,15)         35.1055         estimate D2E/DX2                !
 ! D100  D(17,18,19,45)        -83.9491         estimate D2E/DX2                !
 ! D101  D(17,18,19,46)        157.2986         estimate D2E/DX2                !
 ! D102  D(13,20,21,22)       -178.2586         estimate D2E/DX2                !
 ! D103  D(13,20,21,47)          3.1944         estimate D2E/DX2                !
 ! D104  D(25,20,21,22)          0.7057         estimate D2E/DX2                !
 ! D105  D(25,20,21,47)       -177.8414         estimate D2E/DX2                !
 ! D106  D(13,20,25,24)        178.4591         estimate D2E/DX2                !
 ! D107  D(13,20,25,50)         -2.6121         estimate D2E/DX2                !
 ! D108  D(21,20,25,24)         -0.4907         estimate D2E/DX2                !
 ! D109  D(21,20,25,50)        178.4381         estimate D2E/DX2                !
 ! D110  D(20,21,22,23)         -0.3618         estimate D2E/DX2                !
 ! D111  D(20,21,22,48)       -178.3423         estimate D2E/DX2                !
 ! D112  D(47,21,22,23)        178.18           estimate D2E/DX2                !
 ! D113  D(47,21,22,48)          0.1995         estimate D2E/DX2                !
 ! D114  D(21,22,23,24)         -0.1978         estimate D2E/DX2                !
 ! D115  D(21,22,23,26)       -179.8739         estimate D2E/DX2                !
 ! D116  D(48,22,23,24)        177.7736         estimate D2E/DX2                !
 ! D117  D(48,22,23,26)         -1.9024         estimate D2E/DX2                !
 ! D118  D(22,23,24,25)          0.4142         estimate D2E/DX2                !
 ! D119  D(22,23,24,49)        179.4535         estimate D2E/DX2                !
 ! D120  D(26,23,24,25)       -179.9097         estimate D2E/DX2                !
 ! D121  D(26,23,24,49)         -0.8704         estimate D2E/DX2                !
 ! D122  D(22,23,26,27)        -43.9165         estimate D2E/DX2                !
 ! D123  D(22,23,26,31)        136.0278         estimate D2E/DX2                !
 ! D124  D(24,23,26,27)        136.416          estimate D2E/DX2                !
 ! D125  D(24,23,26,31)        -43.6397         estimate D2E/DX2                !
 ! D126  D(23,24,25,20)         -0.072          estimate D2E/DX2                !
 ! D127  D(23,24,25,50)       -178.9972         estimate D2E/DX2                !
 ! D128  D(49,24,25,20)       -179.1158         estimate D2E/DX2                !
 ! D129  D(49,24,25,50)          1.9591         estimate D2E/DX2                !
 ! D130  D(23,26,27,28)       -179.9184         estimate D2E/DX2                !
 ! D131  D(23,26,27,51)         -0.9772         estimate D2E/DX2                !
 ! D132  D(31,26,27,28)          0.1352         estimate D2E/DX2                !
 ! D133  D(31,26,27,51)        179.0764         estimate D2E/DX2                !
 ! D134  D(23,26,31,30)        179.6616         estimate D2E/DX2                !
 ! D135  D(23,26,31,54)         -1.4941         estimate D2E/DX2                !
 ! D136  D(27,26,31,30)         -0.3915         estimate D2E/DX2                !
 ! D137  D(27,26,31,54)        178.4528         estimate D2E/DX2                !
 ! D138  D(26,27,28,29)          0.1968         estimate D2E/DX2                !
 ! D139  D(26,27,28,52)        179.7038         estimate D2E/DX2                !
 ! D140  D(51,27,28,29)       -178.7432         estimate D2E/DX2                !
 ! D141  D(51,27,28,52)          0.7638         estimate D2E/DX2                !
 ! D142  D(27,28,29,30)         -0.3143         estimate D2E/DX2                !
 ! D143  D(27,28,29,53)        179.7133         estimate D2E/DX2                !
 ! D144  D(52,28,29,30)       -179.8241         estimate D2E/DX2                !
 ! D145  D(52,28,29,53)          0.2035         estimate D2E/DX2                !
 ! D146  D(28,29,30,31)          0.0743         estimate D2E/DX2                !
 ! D147  D(53,29,30,31)       -179.952          estimate D2E/DX2                !
 ! D148  D(29,30,31,26)          0.2905         estimate D2E/DX2                !
 ! D149  D(29,30,31,54)       -178.6031         estimate D2E/DX2                !
 --------------------------------------------------------------------------------
 Trust Radius=3.00D-01 FncErr=1.00D-07 GrdErr=1.00D-06
 Number of steps in this run=    317 maximum allowed number of steps=    324.
 GradGradGradGradGradGradGradGradGradGradGradGradGradGradGradGradGradGrad

 Leave Link  103 at Mon Sep  5 05:41:11 2022, MaxMem=  209715200 cpu:       0.1
 (Enter /opt/gaussian/l202.exe)
 Stoichiometry    C24H23N5O2
 Framework group  C1[X(C24H23N5O2)]
 Deg. of freedom   156
 Full point group                 C1      NOp   1
 Largest Abelian subgroup         C1      NOp   1
 Largest concise Abelian subgroup C1      NOp   1
                         Standard orientation:                         
 ---------------------------------------------------------------------
 Center     Atomic      Atomic             Coordinates (Angstroms)
 Number     Number       Type             X           Y           Z
 ---------------------------------------------------------------------
      1          8           0        0.984230   -1.217789   -0.381140
      2          6           0        1.171240   -0.039759   -0.644230
      3          6           0        2.574710    0.470691   -0.956660
      4          7           0        3.535680   -0.589489   -0.969150
      5          7           0        3.889480   -1.161519   -2.153790
      6          7           0        4.701790   -2.111629   -1.940480
      7          6           0        4.916360   -2.219109   -0.575720
      8          6           0        5.719930   -3.096719    0.150860
      9          6           0        5.732990   -2.953729    1.516600
     10          6           0        4.959720   -1.955989    2.151320
     11          6           0        4.163390   -1.088569    1.442600
     12          6           0        4.156920   -1.240799    0.053610
     13          7           0        0.147220    0.871651   -0.668690
     14          6           0        0.320810    2.309251   -0.894090
     15          6           0        0.117060    3.171241    0.363890
     16          6           0        0.566390    4.624181    0.085220
     17          6           0        2.074080    4.619401    0.427690
     18          8           0        2.317870    3.364041    1.107740
     19          6           0        1.059690    2.783971    1.500430
     20          6           0       -1.198510    0.407480   -0.473590
     21          6           0       -2.079530    0.388770   -1.544680
     22          6           0       -3.390220   -0.021810   -1.365130
     23          6           0       -3.846590   -0.429600   -0.112980
     24          6           0       -2.947610   -0.417160    0.952750
     25          6           0       -1.638270   -0.002770    0.775740
     26          6           0       -5.250290   -0.872380    0.079690
     27          6           0       -6.322340   -0.180660   -0.480300
     28          6           0       -7.616030   -0.631130   -0.271540
     29          6           0       -7.809590   -1.765500    0.499100
     30          7           0       -6.791910   -2.434860    1.036760
     31          6           0       -5.549990   -2.006290    0.833070
     32          1           0        2.592250    0.910761   -1.942850
     33          1           0        2.875380    1.229631   -0.245800
     34          1           0        6.297230   -3.847199   -0.350320
     35          1           0        6.334400   -3.605859    2.118600
     36          1           0        4.995990   -1.878339    3.220740
     37          1           0        3.577270   -0.339329    1.935560
     38          1           0        1.303920    2.494001   -1.294790
     39          1           0       -0.387040    2.625721   -1.649860
     40          1           0       -0.918420    3.122790    0.673410
     41          1           0        0.380730    4.925341   -0.938530
     42          1           0        0.028700    5.311591    0.725890
     43          1           0        2.708850    4.642011   -0.444350
     44          1           0        2.349410    5.434941    1.080210
     45          1           0        0.733090    3.206531    2.443610
     46          1           0        1.206530    1.724841    1.625450
     47          1           0       -1.734850    0.672070   -2.520340
     48          1           0       -4.050610   -0.055530   -2.209810
     49          1           0       -3.275200   -0.717730    1.928770
     50          1           0       -0.955620   -0.014390    1.601510
     51          1           0       -6.146890    0.707050   -1.056650
     52          1           0       -8.454250   -0.110650   -0.689590
     53          1           0       -8.789680   -2.149670    0.692550
     54          1           0       -4.769750   -2.595740    1.269410
 ---------------------------------------------------------------------
 Rotational constants (GHZ):      0.2178405      0.0681936      0.0577512
 Leave Link  202 at Mon Sep  5 05:41:11 2022, MaxMem=  209715200 cpu:       0.0
 (Enter /opt/gaussian/l301.exe)
 Standard basis: CC-pVDZ (5D, 7F)
 Ernie: Thresh=  0.10000D-02 Tol=  0.10000D-05 Strict=F.
 Ernie:  62 primitive shells out of 797 were deleted.
 There are   549 symmetry adapted basis functions of A   symmetry.
 Integral buffers will be    131072 words long.
 Raffenetti 2 integral format.
 Two-electron integral symmetry is turned on.
   549 basis functions,  1184 primitive gaussians,   580 cartesian basis functions
   109 alpha electrons      109 beta electrons
       nuclear repulsion energy      2852.3156882740 Hartrees.
 IExCor=  402 DFT=T Ex+Corr=B3LYP ExCW=0 ScaHFX=  0.200000
 ScaDFX=  0.800000  0.720000  1.000000  0.810000 ScalE2=  1.000000  1.000000
 IRadAn=      0 IRanWt=     -1 IRanGd=            0 ICorTp=0
 NAtoms=   54 NActive=   54 NUniq=   54 SFac= 1.00D+00 NAtFMM=   60 NAOKFM=F Big=F
 Leave Link  301 at Mon Sep  5 05:41:11 2022, MaxMem=  209715200 cpu:       0.3
 (Enter /opt/gaussian/l302.exe)
 NPDir=0 NMtPBC=     1 NCelOv=     1 NCel=       1 NClECP=     1 NCelD=      1
         NCelK=      1 NCelE2=     1 NClLst=     1 CellRange=     0.0.
 One-electron integrals computed using PRISM.
 NBasis=   549 RedAO= T  NBF=   549
 NBsUse=   549 1.00D-06 NBFU=   549
 Precomputing XC quadrature grid using
 IXCGrd= 2 IRadAn=           0 IRanWt=          -1 IRanGd=           0 AccXCQ= 0.00D+00.
 NRdTot=    3491 NPtTot=      446488 NUsed=      471640 NTot=      471672
 NSgBfM=   564   564   564   564   565 NAtAll=    54    54.
 Leave Link  302 at Mon Sep  5 05:41:12 2022, MaxMem=  209715200 cpu:       8.2
 (Enter /opt/gaussian/l303.exe)
 DipDrv:  MaxL=1.
 Leave Link  303 at Mon Sep  5 05:41:12 2022, MaxMem=  209715200 cpu:       1.1
 (Enter /opt/gaussian/l401.exe)
 Harris functional with IExCor=  402 diagonalized for initial guess.
 ExpMin= 1.22D-01 ExpMax= 1.17D+04 ExpMxC= 4.01D+02 IAcc=1 IRadAn=         1 AccDes= 0.00D+00
 HarFok:  IExCor=  402 AccDes= 0.00D+00 IRadAn=         1 IDoV= 1
 ScaDFX=  1.000000  1.000000  1.000000  1.000000
 FoFCou: FMM=F IPFlag=           0 FMFlag=      100000 FMFlg1=           0
         NFxFlg=           0 DoJE=T BraDBF=F KetDBF=T FulRan=T
         Omega=  0.000000  0.000000  1.000000  0.000000  0.000000 ICntrl=     500 IOpCl=  0
         NMat0=    1 NMatS0=    1 NMatT0=    0 NMatD0=    1 NMtDS0=    0 NMtDT0=    0
         I1Cent=           4 NGrid=           0.
 Petite list used in FoFCou.
 Harris En= -1352.48873444396    
 Initial guess orbital symmetries:
       Occupied  (A) (A) (A) (A) (A) (A) (A) (A) (A) (A) (A) (A)
                 (A) (A) (A) (A) (A) (A) (A) (A) (A) (A) (A) (A)
                 (A) (A) (A) (A) (A) (A) (A) (A) (A) (A) (A) (A)
                 (A) (A) (A) (A) (A) (A) (A) (A) (A) (A) (A) (A)
                 (A) (A) (A) (A) (A) (A) (A) (A) (A) (A) (A) (A)
                 (A) (A) (A) (A) (A) (A) (A) (A) (A) (A) (A) (A)
                 (A) (A) (A) (A) (A) (A) (A) (A) (A) (A) (A) (A)
                 (A) (A) (A) (A) (A) (A) (A) (A) (A) (A) (A) (A)
                 (A) (A) (A) (A) (A) (A) (A) (A) (A) (A) (A) (A)
                 (A)
       Virtual   (A) (A) (A) (A) (A) (A) (A) (A) (A) (A) (A) (A)
                 (A) (A) (A) (A) (A) (A) (A) (A) (A) (A) (A) (A)
                 (A) (A) (A) (A) (A) (A) (A) (A) (A) (A) (A) (A)
                 (A) (A) (A) (A) (A) (A) (A) (A) (A) (A) (A) (A)
                 (A) (A) (A) (A) (A) (A) (A) (A) (A) (A) (A) (A)
                 (A) (A) (A) (A) (A) (A) (A) (A) (A) (A) (A) (A)
                 (A) (A) (A) (A) (A) (A) (A) (A) (A) (A) (A) (A)
                 (A) (A) (A) (A) (A) (A) (A) (A) (A) (A) (A) (A)
                 (A) (A) (A) (A) (A) (A) (A) (A) (A) (A) (A) (A)
                 (A) (A) (A) (A) (A) (A) (A) (A) (A) (A) (A) (A)
                 (A) (A) (A) (A) (A) (A) (A) (A) (A) (A) (A) (A)
                 (A) (A) (A) (A) (A) (A) (A) (A) (A) (A) (A) (A)
                 (A) (A) (A) (A) (A) (A) (A) (A) (A) (A) (A) (A)
                 (A) (A) (A) (A) (A) (A) (A) (A) (A) (A) (A) (A)
                 (A) (A) (A) (A) (A) (A) (A) (A) (A) (A) (A) (A)
                 (A) (A) (A) (A) (A) (A) (A) (A) (A) (A) (A) (A)
                 (A) (A) (A) (A) (A) (A) (A) (A) (A) (A) (A) (A)
                 (A) (A) (A) (A) (A) (A) (A) (A) (A) (A) (A) (A)
                 (A) (A) (A) (A) (A) (A) (A) (A) (A) (A) (A) (A)
                 (A) (A) (A) (A) (A) (A) (A) (A) (A) (A) (A) (A)
                 (A) (A) (A) (A) (A) (A) (A) (A) (A) (A) (A) (A)
                 (A) (A) (A) (A) (A) (A) (A) (A) (A) (A) (A) (A)
                 (A) (A) (A) (A) (A) (A) (A) (A) (A) (A) (A) (A)
                 (A) (A) (A) (A) (A) (A) (A) (A) (A) (A) (A) (A)
                 (A) (A) (A) (A) (A) (A) (A) (A) (A) (A) (A) (A)
                 (A) (A) (A) (A) (A) (A) (A) (A) (A) (A) (A) (A)
                 (A) (A) (A) (A) (A) (A) (A) (A) (A) (A) (A) (A)
                 (A) (A) (A) (A) (A) (A) (A) (A) (A) (A) (A) (A)
                 (A) (A) (A) (A) (A) (A) (A) (A) (A) (A) (A) (A)
                 (A) (A) (A) (A) (A) (A) (A) (A) (A) (A) (A) (A)
                 (A) (A) (A) (A) (A) (A) (A) (A) (A) (A) (A) (A)
                 (A) (A) (A) (A) (A) (A) (A) (A) (A) (A) (A) (A)
                 (A) (A) (A) (A) (A) (A) (A) (A) (A) (A) (A) (A)
                 (A) (A) (A) (A) (A) (A) (A) (A) (A) (A) (A) (A)
                 (A) (A) (A) (A) (A) (A) (A) (A) (A) (A) (A) (A)
                 (A) (A) (A) (A) (A) (A) (A) (A) (A) (A) (A) (A)
                 (A) (A) (A) (A) (A) (A) (A) (A)
 The electronic state of the initial guess is 1-A.
 Leave Link  401 at Mon Sep  5 05:41:14 2022, MaxMem=  209715200 cpu:      14.6
 (Enter /opt/gaussian/l502.exe)
 Closed shell SCF:
 Requested convergence on RMS density matrix=1.00D-08 within 128 cycles.
 Requested convergence on MAX density matrix=1.00D-06.
 Requested convergence on             energy=1.00D-06.
 No special actions if energy rises.
 Using DIIS extrapolation, IDIIS=  1040.
 Integral symmetry usage will be decided dynamically.
       471141 words used for storage of precomputed grid.
 IEnd=     1507519 IEndB=     1507519 NGot=   209715200 MDV=   208561302
 LenX=   208561302 LenY=   208224322
 Fock matrices will be formed incrementally for  20 cycles.
 Integral accuracy reduced to 1.0D-05 until final iterations.

 Cycle   1  Pass 0  IDiag  1:
 FoFCou: FMM=F IPFlag=           0 FMFlag=      100000 FMFlg1=           0
         NFxFlg=           0 DoJE=F BraDBF=F KetDBF=F FulRan=T
         Omega=  0.000000  0.000000  1.000000  0.000000  0.000000 ICntrl=       0 IOpCl=  0
         NMat0=    1 NMatS0=    1 NMatT0=    0 NMatD0=    1 NMtDS0=    0 NMtDT0=    0
         I1Cent=           0 NGrid=           0.
 Symmetry not used in FoFCou.
 E= -1352.07423348702    
 DIIS: error= 2.37D-02 at cycle   1 NSaved=   1.
 NSaved= 1 IEnMin= 1 EnMin= -1352.07423348702     IErMin= 1 ErrMin= 2.37D-02
 ErrMax= 2.37D-02 EMaxC= 1.00D-01 BMatC= 5.18D-01 BMatP= 5.18D-01
 IDIUse=3 WtCom= 7.63D-01 WtEn= 2.37D-01
 Coeff-Com:  0.100D+01
 Coeff-En:   0.100D+01
 Coeff:      0.100D+01
 Gap=     0.244 Goal=   None    Shift=    0.000
 GapD=    0.244 DampG=1.000 DampE=0.500 DampFc=0.5000 IDamp=-1.
 Damping current iteration by 5.00D-01
 RMSDP=3.84D-03 MaxDP=2.28D-01              OVMax= 2.84D-01

 Cycle   2  Pass 0  IDiag  1:
 RMSU=  1.34D-03    CP:  9.79D-01
 E= -1352.23622129434     Delta-E=       -0.161987807318 Rises=F Damp=T
 DIIS: error= 7.48D-03 at cycle   2 NSaved=   2.
 NSaved= 2 IEnMin= 2 EnMin= -1352.23622129434     IErMin= 2 ErrMin= 7.48D-03
 ErrMax= 7.48D-03 EMaxC= 1.00D-01 BMatC= 9.88D-02 BMatP= 5.18D-01
 IDIUse=3 WtCom= 9.25D-01 WtEn= 7.48D-02
 Coeff-Com:  0.221D+00 0.779D+00
 Coeff-En:   0.318D+00 0.682D+00
 Coeff:      0.229D+00 0.771D+00
 Gap=     0.245 Goal=   None    Shift=    0.000
 RMSDP=1.32D-03 MaxDP=8.26D-02 DE=-1.62D-01 OVMax= 3.14D-01

 Cycle   3  Pass 0  IDiag  1:
 RMSU=  8.93D-04    CP:  9.64D-01  8.24D-01
 E= -1352.53953115713     Delta-E=       -0.303309862795 Rises=F Damp=F
 DIIS: error= 9.24D-03 at cycle   3 NSaved=   3.
 NSaved= 3 IEnMin= 3 EnMin= -1352.53953115713     IErMin= 2 ErrMin= 7.48D-03
 ErrMax= 9.24D-03 EMaxC= 1.00D-01 BMatC= 1.08D-01 BMatP= 9.88D-02
 IDIUse=3 WtCom= 9.08D-01 WtEn= 9.24D-02
 Coeff-Com:  0.436D-01 0.503D+00 0.454D+00
 Coeff-En:   0.000D+00 0.000D+00 0.100D+01
 Coeff:      0.396D-01 0.456D+00 0.504D+00
 Gap=     0.186 Goal=   None    Shift=    0.000
 RMSDP=7.75D-04 MaxDP=7.02D-02 DE=-3.03D-01 OVMax= 1.11D-01

 Cycle   4  Pass 0  IDiag  1:
 RMSU=  3.41D-04    CP:  9.67D-01  9.37D-01  5.54D-01
 E= -1352.62439478555     Delta-E=       -0.084863628421 Rises=F Damp=F
 DIIS: error= 3.38D-03 at cycle   4 NSaved=   4.
 NSaved= 4 IEnMin= 4 EnMin= -1352.62439478555     IErMin= 4 ErrMin= 3.38D-03
 ErrMax= 3.38D-03 EMaxC= 1.00D-01 BMatC= 1.59D-02 BMatP= 9.88D-02
 IDIUse=3 WtCom= 9.66D-01 WtEn= 3.38D-02
 Coeff-Com:  0.806D-02 0.141D+00 0.302D+00 0.548D+00
 Coeff-En:   0.000D+00 0.000D+00 0.145D+00 0.855D+00
 Coeff:      0.779D-02 0.136D+00 0.297D+00 0.559D+00
 Gap=     0.182 Goal=   None    Shift=    0.000
 RMSDP=2.72D-04 MaxDP=1.94D-02 DE=-8.49D-02 OVMax= 2.90D-02

 Cycle   5  Pass 0  IDiag  1:
 RMSU=  1.13D-04    CP:  9.66D-01  8.98D-01  6.54D-01  6.63D-01
 E= -1352.63708449174     Delta-E=       -0.012689706191 Rises=F Damp=F
 DIIS: error= 1.10D-03 at cycle   5 NSaved=   5.
 NSaved= 5 IEnMin= 5 EnMin= -1352.63708449174     IErMin= 5 ErrMin= 1.10D-03
 ErrMax= 1.10D-03 EMaxC= 1.00D-01 BMatC= 1.26D-03 BMatP= 1.59D-02
 IDIUse=3 WtCom= 9.89D-01 WtEn= 1.10D-02
 Coeff-Com:  0.788D-03 0.319D-01 0.126D+00 0.330D+00 0.511D+00
 Coeff-En:   0.000D+00 0.000D+00 0.000D+00 0.311D-01 0.969D+00
 Coeff:      0.780D-03 0.316D-01 0.125D+00 0.326D+00 0.517D+00
 Gap=     0.183 Goal=   None    Shift=    0.000
 RMSDP=9.74D-05 MaxDP=4.84D-03 DE=-1.27D-02 OVMax= 1.48D-02

 Cycle   6  Pass 0  IDiag  1:
 RMSU=  3.54D-05    CP:  9.66D-01  9.04D-01  6.56D-01  7.09D-01  5.02D-01
 E= -1352.63825290243     Delta-E=       -0.001168410688 Rises=F Damp=F
 DIIS: error= 3.93D-04 at cycle   6 NSaved=   6.
 NSaved= 6 IEnMin= 6 EnMin= -1352.63825290243     IErMin= 6 ErrMin= 3.93D-04
 ErrMax= 3.93D-04 EMaxC= 1.00D-01 BMatC= 1.61D-04 BMatP= 1.26D-03
 IDIUse=3 WtCom= 9.96D-01 WtEn= 3.93D-03
 Coeff-Com: -0.457D-03-0.690D-03 0.322D-01 0.113D+00 0.312D+00 0.544D+00
 Coeff-En:   0.000D+00 0.000D+00 0.000D+00 0.000D+00 0.116D+00 0.884D+00
 Coeff:     -0.455D-03-0.687D-03 0.321D-01 0.113D+00 0.311D+00 0.545D+00
 Gap=     0.183 Goal=   None    Shift=    0.000
 RMSDP=3.00D-05 MaxDP=1.52D-03 DE=-1.17D-03 OVMax= 4.42D-03

 Cycle   7  Pass 0  IDiag  1:
 RMSU=  1.17D-05    CP:  9.66D-01  9.05D-01  6.57D-01  7.07D-01  5.97D-01
                    CP:  6.04D-01
 E= -1352.63841858123     Delta-E=       -0.000165678796 Rises=F Damp=F
 DIIS: error= 1.60D-04 at cycle   7 NSaved=   7.
 NSaved= 7 IEnMin= 7 EnMin= -1352.63841858123     IErMin= 7 ErrMin= 1.60D-04
 ErrMax= 1.60D-04 EMaxC= 1.00D-01 BMatC= 1.70D-05 BMatP= 1.61D-04
 IDIUse=3 WtCom= 9.98D-01 WtEn= 1.60D-03
 Coeff-Com: -0.205D-03-0.302D-02 0.945D-02 0.409D-01 0.148D+00 0.332D+00
 Coeff-Com:  0.473D+00
 Coeff-En:   0.000D+00 0.000D+00 0.000D+00 0.000D+00 0.000D+00 0.180D-01
 Coeff-En:   0.982D+00
 Coeff:     -0.205D-03-0.302D-02 0.944D-02 0.408D-01 0.148D+00 0.332D+00
 Coeff:      0.473D+00
 Gap=     0.183 Goal=   None    Shift=    0.000
 RMSDP=8.96D-06 MaxDP=4.38D-04 DE=-1.66D-04 OVMax= 1.01D-03

 Initial convergence to 1.0D-05 achieved.  Increase integral accuracy.
 Cycle   8  Pass 1  IDiag  1:
 E= -1352.63854923670     Delta-E=       -0.000130655473 Rises=F Damp=F
 DIIS: error= 1.46D-04 at cycle   1 NSaved=   1.
 NSaved= 1 IEnMin= 1 EnMin= -1352.63854923670     IErMin= 1 ErrMin= 1.46D-04
 ErrMax= 1.46D-04 EMaxC= 1.00D-01 BMatC= 9.85D-06 BMatP= 9.85D-06
 IDIUse=3 WtCom= 9.99D-01 WtEn= 1.46D-03
 Coeff-Com:  0.100D+01
 Coeff-En:   0.100D+01
 Coeff:      0.100D+01
 Gap=     0.183 Goal=   None    Shift=    0.000
 RMSDP=8.96D-06 MaxDP=4.38D-04 DE=-1.31D-04 OVMax= 7.69D-04

 Cycle   9  Pass 1  IDiag  1:
 RMSU=  7.94D-05    CP:  1.00D+00
 E= -1352.63855444159     Delta-E=       -0.000005204894 Rises=F Damp=F
 DIIS: error= 1.11D-04 at cycle   2 NSaved=   2.
 NSaved= 2 IEnMin= 2 EnMin= -1352.63855444159     IErMin= 2 ErrMin= 1.11D-04
 ErrMax= 1.11D-04 EMaxC= 1.00D-01 BMatC= 3.85D-06 BMatP= 9.85D-06
 IDIUse=3 WtCom= 9.99D-01 WtEn= 1.11D-03
 Coeff-Com:  0.325D+00 0.675D+00
 Coeff-En:   0.795D-01 0.921D+00
 Coeff:      0.325D+00 0.675D+00
 Gap=     0.183 Goal=   None    Shift=    0.000
 RMSDP=8.26D-06 MaxDP=4.40D-04 DE=-5.20D-06 OVMax= 1.14D-03

 Cycle  10  Pass 1  IDiag  1:
 RMSU=  5.83D-06    CP:  1.00D+00  1.00D+00
 E= -1352.63855291140     Delta-E=        0.000001530191 Rises=F Damp=F
 DIIS: error= 1.35D-04 at cycle   3 NSaved=   3.
 NSaved= 3 IEnMin= 2 EnMin= -1352.63855444159     IErMin= 2 ErrMin= 1.11D-04
 ErrMax= 1.35D-04 EMaxC= 1.00D-01 BMatC= 5.23D-06 BMatP= 3.85D-06
 IDIUse=3 WtCom= 4.63D-01 WtEn= 5.37D-01
 Coeff-Com:  0.327D-02 0.537D+00 0.459D+00
 Coeff-En:   0.000D+00 0.556D+00 0.444D+00
 Coeff:      0.151D-02 0.547D+00 0.451D+00
 Gap=     0.183 Goal=   None    Shift=    0.000
 RMSDP=4.45D-06 MaxDP=2.46D-04 DE= 1.53D-06 OVMax= 6.28D-04

 Cycle  11  Pass 1  IDiag  1:
 RMSU=  7.25D-07    CP:  1.00D+00  1.01D+00  4.82D-01
 E= -1352.63855864188     Delta-E=       -0.000005730473 Rises=F Damp=F
 DIIS: error= 1.10D-05 at cycle   4 NSaved=   4.
 NSaved= 4 IEnMin= 4 EnMin= -1352.63855864188     IErMin= 4 ErrMin= 1.10D-05
 ErrMax= 1.10D-05 EMaxC= 1.00D-01 BMatC= 1.04D-07 BMatP= 3.85D-06
 IDIUse=1 WtCom= 1.00D+00 WtEn= 0.00D+00
 Coeff-Com: -0.367D-02 0.341D+00 0.286D+00 0.376D+00
 Coeff:     -0.367D-02 0.341D+00 0.286D+00 0.376D+00
 Gap=     0.183 Goal=   None    Shift=    0.000
 RMSDP=6.36D-07 MaxDP=4.34D-05 DE=-5.73D-06 OVMax= 8.42D-05

 Cycle  12  Pass 1  IDiag  1:
 RMSU=  1.99D-07    CP:  1.00D+00  1.01D+00  4.71D-01  4.50D-01
 E= -1352.63855873690     Delta-E=       -0.000000095028 Rises=F Damp=F
 DIIS: error= 1.08D-06 at cycle   5 NSaved=   5.
 NSaved= 5 IEnMin= 5 EnMin= -1352.63855873690     IErMin= 5 ErrMin= 1.08D-06
 ErrMax= 1.08D-06 EMaxC= 1.00D-01 BMatC= 2.44D-09 BMatP= 1.04D-07
 IDIUse=1 WtCom= 1.00D+00 WtEn= 0.00D+00
 Coeff-Com: -0.230D-02 0.180D+00 0.150D+00 0.222D+00 0.450D+00
 Coeff:     -0.230D-02 0.180D+00 0.150D+00 0.222D+00 0.450D+00
 Gap=     0.183 Goal=   None    Shift=    0.000
 RMSDP=1.12D-07 MaxDP=9.46D-06 DE=-9.50D-08 OVMax= 1.30D-05

 Cycle  13  Pass 1  IDiag  1:
 RMSU=  6.23D-08    CP:  1.00D+00  1.01D+00  4.72D-01  4.71D-01  7.69D-01
 E= -1352.63855873892     Delta-E=       -0.000000002014 Rises=F Damp=F
 DIIS: error= 6.19D-07 at cycle   6 NSaved=   6.
 NSaved= 6 IEnMin= 6 EnMin= -1352.63855873892     IErMin= 6 ErrMin= 6.19D-07
 ErrMax= 6.19D-07 EMaxC= 1.00D-01 BMatC= 2.59D-10 BMatP= 2.44D-09
 IDIUse=1 WtCom= 1.00D+00 WtEn= 0.00D+00
 Coeff-Com: -0.940D-03 0.673D-01 0.554D-01 0.898D-01 0.274D+00 0.515D+00
 Coeff:     -0.940D-03 0.673D-01 0.554D-01 0.898D-01 0.274D+00 0.515D+00
 Gap=     0.183 Goal=   None    Shift=    0.000
 RMSDP=3.53D-08 MaxDP=3.21D-06 DE=-2.01D-09 OVMax= 3.92D-06

 Cycle  14  Pass 1  IDiag  1:
 RMSU=  1.81D-08    CP:  1.00D+00  1.01D+00  4.71D-01  4.76D-01  8.02D-01
                    CP:  7.61D-01
 E= -1352.63855873924     Delta-E=       -0.000000000322 Rises=F Damp=F
 DIIS: error= 1.47D-07 at cycle   7 NSaved=   7.
 NSaved= 7 IEnMin= 7 EnMin= -1352.63855873924     IErMin= 7 ErrMin= 1.47D-07
 ErrMax= 1.47D-07 EMaxC= 1.00D-01 BMatC= 2.68D-11 BMatP= 2.59D-10
 IDIUse=1 WtCom= 1.00D+00 WtEn= 0.00D+00
 Coeff-Com: -0.193D-03 0.117D-01 0.933D-02 0.187D-01 0.853D-01 0.290D+00
 Coeff-Com:  0.585D+00
 Coeff:     -0.193D-03 0.117D-01 0.933D-02 0.187D-01 0.853D-01 0.290D+00
 Coeff:      0.585D+00
 Gap=     0.183 Goal=   None    Shift=    0.000
 RMSDP=1.25D-08 MaxDP=8.09D-07 DE=-3.22D-10 OVMax= 1.64D-06

 Cycle  15  Pass 1  IDiag  1:
 RMSU=  5.88D-09    CP:  1.00D+00  1.01D+00  4.71D-01  4.75D-01  8.10D-01
                    CP:  8.01D-01  6.77D-01
 E= -1352.63855873921     Delta-E=        0.000000000029 Rises=F Damp=F
 DIIS: error= 7.04D-08 at cycle   8 NSaved=   8.
 NSaved= 8 IEnMin= 7 EnMin= -1352.63855873924     IErMin= 8 ErrMin= 7.04D-08
 ErrMax= 7.04D-08 EMaxC= 1.00D-01 BMatC= 3.99D-12 BMatP= 2.68D-11
 IDIUse=1 WtCom= 1.00D+00 WtEn= 0.00D+00
 Coeff-Com:  0.170D-04-0.241D-02-0.220D-02-0.135D-02 0.106D-01 0.100D+00
 Coeff-Com:  0.342D+00 0.553D+00
 Coeff:      0.170D-04-0.241D-02-0.220D-02-0.135D-02 0.106D-01 0.100D+00
 Coeff:      0.342D+00 0.553D+00
 Gap=     0.183 Goal=   None    Shift=    0.000
 RMSDP=4.74D-09 MaxDP=2.53D-07 DE= 2.91D-11 OVMax= 9.52D-07

 SCF Done:  E(RB3LYP) =  -1352.63855874     A.U. after   15 cycles
             Convg  =    0.4735D-08             -V/T =  2.0058
 KE= 1.344866203012D+03 PE=-8.850266086458D+03 EE= 3.300445636433D+03
 Leave Link  502 at Mon Sep  5 05:53:17 2022, MaxMem=  209715200 cpu:    5766.1
 (Enter /opt/gaussian/l601.exe)
 Copying SCF densities to generalized density rwf, IOpCl= 0 IROHF=0.

 **********************************************************************

            Population analysis using the SCF density.

 **********************************************************************

 Orbital symmetries:
       Occupied  (A) (A) (A) (A) (A) (A) (A) (A) (A) (A) (A) (A)
                 (A) (A) (A) (A) (A) (A) (A) (A) (A) (A) (A) (A)
                 (A) (A) (A) (A) (A) (A) (A) (A) (A) (A) (A) (A)
                 (A) (A) (A) (A) (A) (A) (A) (A) (A) (A) (A) (A)
                 (A) (A) (A) (A) (A) (A) (A) (A) (A) (A) (A) (A)
                 (A) (A) (A) (A) (A) (A) (A) (A) (A) (A) (A) (A)
                 (A) (A) (A) (A) (A) (A) (A) (A) (A) (A) (A) (A)
                 (A) (A) (A) (A) (A) (A) (A) (A) (A) (A) (A) (A)
                 (A) (A) (A) (A) (A) (A) (A) (A) (A) (A) (A) (A)
                 (A)
       Virtual   (A) (A) (A) (A) (A) (A) (A) (A) (A) (A) (A) (A)
                 (A) (A) (A) (A) (A) (A) (A) (A) (A) (A) (A) (A)
                 (A) (A) (A) (A) (A) (A) (A) (A) (A) (A) (A) (A)
                 (A) (A) (A) (A) (A) (A) (A) (A) (A) (A) (A) (A)
                 (A) (A) (A) (A) (A) (A) (A) (A) (A) (A) (A) (A)
                 (A) (A) (A) (A) (A) (A) (A) (A) (A) (A) (A) (A)
                 (A) (A) (A) (A) (A) (A) (A) (A) (A) (A) (A) (A)
                 (A) (A) (A) (A) (A) (A) (A) (A) (A) (A) (A) (A)
                 (A) (A) (A) (A) (A) (A) (A) (A) (A) (A) (A) (A)
                 (A) (A) (A) (A) (A) (A) (A) (A) (A) (A) (A) (A)
                 (A) (A) (A) (A) (A) (A) (A) (A) (A) (A) (A) (A)
                 (A) (A) (A) (A) (A) (A) (A) (A) (A) (A) (A) (A)
                 (A) (A) (A) (A) (A) (A) (A) (A) (A) (A) (A) (A)
                 (A) (A) (A) (A) (A) (A) (A) (A) (A) (A) (A) (A)
                 (A) (A) (A) (A) (A) (A) (A) (A) (A) (A) (A) (A)
                 (A) (A) (A) (A) (A) (A) (A) (A) (A) (A) (A) (A)
                 (A) (A) (A) (A) (A) (A) (A) (A) (A) (A) (A) (A)
                 (A) (A) (A) (A) (A) (A) (A) (A) (A) (A) (A) (A)
                 (A) (A) (A) (A) (A) (A) (A) (A) (A) (A) (A) (A)
                 (A) (A) (A) (A) (A) (A) (A) (A) (A) (A) (A) (A)
                 (A) (A) (A) (A) (A) (A) (A) (A) (A) (A) (A) (A)
                 (A) (A) (A) (A) (A) (A) (A) (A) (A) (A) (A) (A)
                 (A) (A) (A) (A) (A) (A) (A) (A) (A) (A) (A) (A)
                 (A) (A) (A) (A) (A) (A) (A) (A) (A) (A) (A) (A)
                 (A) (A) (A) (A) (A) (A) (A) (A) (A) (A) (A) (A)
                 (A) (A) (A) (A) (A) (A) (A) (A) (A) (A) (A) (A)
                 (A) (A) (A) (A) (A) (A) (A) (A) (A) (A) (A) (A)
                 (A) (A) (A) (A) (A) (A) (A) (A) (A) (A) (A) (A)
                 (A) (A) (A) (A) (A) (A) (A) (A) (A) (A) (A) (A)
                 (A) (A) (A) (A) (A) (A) (A) (A) (A) (A) (A) (A)
                 (A) (A) (A) (A) (A) (A) (A) (A) (A) (A) (A) (A)
                 (A) (A) (A) (A) (A) (A) (A) (A) (A) (A) (A) (A)
                 (A) (A) (A) (A) (A) (A) (A) (A) (A) (A) (A) (A)
                 (A) (A) (A) (A) (A) (A) (A) (A) (A) (A) (A) (A)
                 (A) (A) (A) (A) (A) (A) (A) (A) (A) (A) (A) (A)
                 (A) (A) (A) (A) (A) (A) (A) (A) (A) (A) (A) (A)
                 (A) (A) (A) (A) (A) (A) (A) (A)
 The electronic state is 1-A.
 Alpha  occ. eigenvalues --  -19.15287 -19.11295 -14.40208 -14.38169 -14.37594
 Alpha  occ. eigenvalues --  -14.33925 -14.32720 -10.29688 -10.24556 -10.24530
 Alpha  occ. eigenvalues --  -10.24452 -10.24439 -10.23937 -10.22396 -10.22362
 Alpha  occ. eigenvalues --  -10.22236 -10.21415 -10.21314 -10.21156 -10.21083
 Alpha  occ. eigenvalues --  -10.20867 -10.20494 -10.20398 -10.20339 -10.20277
 Alpha  occ. eigenvalues --  -10.20198 -10.20103 -10.19493 -10.19120 -10.18914
 Alpha  occ. eigenvalues --  -10.18511  -1.09599  -1.04914  -1.04501  -0.96012
 Alpha  occ. eigenvalues --   -0.95122  -0.92277  -0.88018  -0.86551  -0.82777
 Alpha  occ. eigenvalues --   -0.81867  -0.79151  -0.77764  -0.77019  -0.76728
 Alpha  occ. eigenvalues --   -0.76409  -0.75174  -0.73711  -0.71416  -0.66208
 Alpha  occ. eigenvalues --   -0.64911  -0.64596  -0.62522  -0.62447  -0.62139
 Alpha  occ. eigenvalues --   -0.61959  -0.60280  -0.59370  -0.57237  -0.54366
 Alpha  occ. eigenvalues --   -0.53698  -0.52539  -0.52315  -0.52006  -0.51517
 Alpha  occ. eigenvalues --   -0.51439  -0.49988  -0.49588  -0.47858  -0.46719
 Alpha  occ. eigenvalues --   -0.46542  -0.46091  -0.46039  -0.45617  -0.45224
 Alpha  occ. eigenvalues --   -0.44392  -0.44225  -0.43925  -0.43616  -0.42550
 Alpha  occ. eigenvalues --   -0.41788  -0.41213  -0.41121  -0.40835  -0.39753
 Alpha  occ. eigenvalues --   -0.38825  -0.38279  -0.37557  -0.37355  -0.36856
 Alpha  occ. eigenvalues --   -0.36593  -0.36357  -0.36275  -0.36013  -0.35400
 Alpha  occ. eigenvalues --   -0.33185  -0.32741  -0.30721  -0.30384  -0.28687
 Alpha  occ. eigenvalues --   -0.27418  -0.27089  -0.26437  -0.26171  -0.25568
 Alpha  occ. eigenvalues --   -0.25507  -0.24639  -0.24280  -0.23031
 Alpha virt. eigenvalues --   -0.04738  -0.03276  -0.02992  -0.02453   0.00056
 Alpha virt. eigenvalues --    0.01261   0.01728   0.02952   0.04419   0.05079
 Alpha virt. eigenvalues --    0.05565   0.06020   0.06754   0.07113   0.08022
 Alpha virt. eigenvalues --    0.08261   0.09011   0.09311   0.10324   0.10568
 Alpha virt. eigenvalues --    0.11256   0.11408   0.11947   0.12185   0.12864
 Alpha virt. eigenvalues --    0.13051   0.13777   0.13840   0.14142   0.14627
 Alpha virt. eigenvalues --    0.15160   0.15609   0.16545   0.16994   0.17286
 Alpha virt. eigenvalues --    0.18312   0.19017   0.19796   0.20155   0.21212
 Alpha virt. eigenvalues --    0.21663   0.22483   0.23006   0.23419   0.23830
 Alpha virt. eigenvalues --    0.24804   0.25726   0.25924   0.26787   0.28171
 Alpha virt. eigenvalues --    0.28420   0.28853   0.29631   0.30453   0.31125
 Alpha virt. eigenvalues --    0.31318   0.32063   0.32307   0.33923   0.34845
 Alpha virt. eigenvalues --    0.36065   0.37257   0.37848   0.38102   0.38788
 Alpha virt. eigenvalues --    0.41164   0.41553   0.41878   0.42509   0.43279
 Alpha virt. eigenvalues --    0.44317   0.44961   0.45671   0.46108   0.46227
 Alpha virt. eigenvalues --    0.46356   0.46449   0.46854   0.47284   0.47850
 Alpha virt. eigenvalues --    0.47923   0.48156   0.48631   0.49139   0.49358
 Alpha virt. eigenvalues --    0.49996   0.50059   0.50435   0.50723   0.50883
 Alpha virt. eigenvalues --    0.51621   0.52175   0.52305   0.52627   0.52946
 Alpha virt. eigenvalues --    0.53381   0.53657   0.53907   0.54428   0.55026
 Alpha virt. eigenvalues --    0.55598   0.55850   0.56206   0.56397   0.56953
 Alpha virt. eigenvalues --    0.57415   0.57691   0.58167   0.58805   0.59415
 Alpha virt. eigenvalues --    0.59749   0.60154   0.60377   0.60768   0.61213
 Alpha virt. eigenvalues --    0.61611   0.61798   0.62164   0.62933   0.63277
 Alpha virt. eigenvalues --    0.63855   0.64619   0.64875   0.65331   0.65464
 Alpha virt. eigenvalues --    0.66185   0.66605   0.66722   0.67142   0.67328
 Alpha virt. eigenvalues --    0.67489   0.68238   0.68685   0.68859   0.69351
 Alpha virt. eigenvalues --    0.69781   0.70321   0.70769   0.71016   0.71150
 Alpha virt. eigenvalues --    0.72294   0.72599   0.73716   0.73951   0.74587
 Alpha virt. eigenvalues --    0.75149   0.76018   0.77415   0.78558   0.78774
 Alpha virt. eigenvalues --    0.80126   0.80733   0.81275   0.82454   0.84098
 Alpha virt. eigenvalues --    0.84662   0.84978   0.85486   0.85975   0.86838
 Alpha virt. eigenvalues --    0.87428   0.87644   0.88587   0.88767   0.89770
 Alpha virt. eigenvalues --    0.90035   0.90774   0.91377   0.91781   0.92803
 Alpha virt. eigenvalues --    0.92971   0.93147   0.93873   0.94110   0.94755
 Alpha virt. eigenvalues --    0.95762   0.96932   0.97092   0.98253   0.99095
 Alpha virt. eigenvalues --    0.99302   0.99881   1.00575   1.01409   1.01765
 Alpha virt. eigenvalues --    1.02294   1.02504   1.03357   1.03897   1.04441
 Alpha virt. eigenvalues --    1.04614   1.05460   1.06014   1.06515   1.06672
 Alpha virt. eigenvalues --    1.07392   1.08672   1.09092   1.10112   1.10561
 Alpha virt. eigenvalues --    1.11378   1.12230   1.12694   1.13182   1.13924
 Alpha virt. eigenvalues --    1.14804   1.15273   1.16639   1.18812   1.19322
 Alpha virt. eigenvalues --    1.19637   1.19939   1.20913   1.21129   1.23412
 Alpha virt. eigenvalues --    1.24044   1.24804   1.25256   1.26392   1.27578
 Alpha virt. eigenvalues --    1.28112   1.29619   1.29875   1.30834   1.31774
 Alpha virt. eigenvalues --    1.32126   1.33482   1.34126   1.35231   1.35725
 Alpha virt. eigenvalues --    1.36516   1.37572   1.39146   1.40859   1.41949
 Alpha virt. eigenvalues --    1.42365   1.44164   1.44662   1.45922   1.46427
 Alpha virt. eigenvalues --    1.47358   1.48317   1.48474   1.49120   1.49476
 Alpha virt. eigenvalues --    1.50006   1.50512   1.51596   1.52136   1.52388
 Alpha virt. eigenvalues --    1.52630   1.53276   1.54167   1.55431   1.56180
 Alpha virt. eigenvalues --    1.57128   1.57429   1.57683   1.58159   1.59139
 Alpha virt. eigenvalues --    1.59422   1.59790   1.60086   1.61002   1.61349
 Alpha virt. eigenvalues --    1.61946   1.62229   1.62978   1.63301   1.63735
 Alpha virt. eigenvalues --    1.63947   1.64282   1.64544   1.64879   1.65212
 Alpha virt. eigenvalues --    1.65470   1.66203   1.66651   1.67235   1.67581
 Alpha virt. eigenvalues --    1.68329   1.68504   1.69158   1.69731   1.70015
 Alpha virt. eigenvalues --    1.70504   1.71388   1.71490   1.71623   1.71863
 Alpha virt. eigenvalues --    1.72405   1.72559   1.73301   1.74045   1.74921
 Alpha virt. eigenvalues --    1.75492   1.75915   1.76483   1.77157   1.77610
 Alpha virt. eigenvalues --    1.78453   1.78967   1.79257   1.79555   1.79937
 Alpha virt. eigenvalues --    1.80857   1.81455   1.81599   1.82135   1.82692
 Alpha virt. eigenvalues --    1.83136   1.83812   1.84471   1.85050   1.85253
 Alpha virt. eigenvalues --    1.85834   1.86494   1.86956   1.87277   1.87546
 Alpha virt. eigenvalues --    1.88066   1.88567   1.89046   1.89878   1.90135
 Alpha virt. eigenvalues --    1.90600   1.91754   1.92354   1.93140   1.93913
 Alpha virt. eigenvalues --    1.95098   1.96568   1.97435   1.97796   1.98334
 Alpha virt. eigenvalues --    1.99320   1.99628   2.00307   2.00558   2.01323
 Alpha virt. eigenvalues --    2.02006   2.03148   2.03318   2.04623   2.05061
 Alpha virt. eigenvalues --    2.05571   2.05896   2.07143   2.07941   2.08674
 Alpha virt. eigenvalues --    2.08834   2.10413   2.12000   2.13026   2.13962
 Alpha virt. eigenvalues --    2.14217   2.15250   2.15957   2.18583   2.19270
 Alpha virt. eigenvalues --    2.19872   2.20421   2.21314   2.21938   2.23254
 Alpha virt. eigenvalues --    2.23892   2.24869   2.27351   2.28281   2.30165
 Alpha virt. eigenvalues --    2.32029   2.33609   2.36590   2.37619   2.37791
 Alpha virt. eigenvalues --    2.39909   2.41011   2.41598   2.42415   2.42913
 Alpha virt. eigenvalues --    2.43510   2.43825   2.44716   2.45875   2.46851
 Alpha virt. eigenvalues --    2.47379   2.47654   2.47944   2.49274   2.49436
 Alpha virt. eigenvalues --    2.50141   2.50731   2.52207   2.53470   2.54244
 Alpha virt. eigenvalues --    2.55148   2.56133   2.56880   2.57756   2.58660
 Alpha virt. eigenvalues --    2.61110   2.62325   2.63888   2.65731   2.66151
 Alpha virt. eigenvalues --    2.69639   2.70723   2.71390   2.73333   2.74827
 Alpha virt. eigenvalues --    2.76053   2.76506   2.78142   2.78735   2.79113
 Alpha virt. eigenvalues --    2.81018   2.81786   2.82578   2.83133   2.85548
 Alpha virt. eigenvalues --    2.88211   2.90119   2.94095   2.96432   2.97786
 Alpha virt. eigenvalues --    2.99024   2.99576   3.01389   3.01750   3.02899
 Alpha virt. eigenvalues --    3.09246   3.13786   3.17655   3.19175   3.27057
 Alpha virt. eigenvalues --    3.42065   3.46105   3.49143   3.59618   3.61011
          Condensed to atoms (all electrons):
 Mulliken atomic charges:
              1
     1  O   -0.245724
     2  C    0.109553
     3  C    0.132378
     4  N   -0.225848
     5  N   -0.055623
     6  N   -0.181772
     7  C   -0.001986
     8  C    0.063193
     9  C    0.049886
    10  C    0.050827
    11  C    0.046424
    12  C    0.208931
    13  N   -0.280860
    14  C    0.165544
    15  C   -0.125154
    16  C    0.010566
    17  C    0.196213
    18  O   -0.355405
    19  C    0.224659
    20  C    0.059474
    21  C    0.089894
    22  C    0.042897
    23  C    0.027214
    24  C    0.041922
    25  C    0.106066
    26  C   -0.063978
    27  C    0.096913
    28  C   -0.001488
    29  C    0.122045
    30  N   -0.171554
    31  C    0.121628
    32  H    0.050202
    33  H    0.051211
    34  H   -0.034924
    35  H   -0.039760
    36  H   -0.039203
    37  H   -0.042012
    38  H    0.016970
    39  H    0.014495
    40  H   -0.017440
    41  H    0.004922
    42  H    0.011565
    43  H    0.014377
    44  H    0.010666
    45  H    0.006717
    46  H    0.022458
    47  H   -0.045645
    48  H   -0.044419
    49  H   -0.042925
    50  H   -0.047151
    51  H   -0.042090
    52  H   -0.035030
    53  H   -0.013058
    54  H   -0.016764
 Sum of Mulliken atomic charges =   0.00000
 Mulliken charges with hydrogens summed into heavy atoms:
              1
     1  O   -0.245724
     2  C    0.109553
     3  C    0.233791
     4  N   -0.225848
     5  N   -0.055623
     6  N   -0.181772
     7  C   -0.001986
     8  C    0.028269
     9  C    0.010126
    10  C    0.011624
    11  C    0.004412
    12  C    0.208931
    13  N   -0.280860
    14  C    0.197010
    15  C   -0.142595
    16  C    0.027053
    17  C    0.221256
    18  O   -0.355405
    19  C    0.253834
    20  C    0.059474
    21  C    0.044249
    22  C   -0.001522
    23  C    0.027214
    24  C   -0.001003
    25  C    0.058915
    26  C   -0.063978
    27  C    0.054823
    28  C   -0.036517
    29  C    0.108987
    30  N   -0.171554
    31  C    0.104865
 Sum of Mulliken charges with hydrogens summed into heavy atoms =   0.00000
 Electronic spatial extent (au):  <R**2>=          18029.8849
 Charge=              0.0000 electrons
 Dipole moment (field-independent basis, Debye):
    X=             -3.3073    Y=              7.5897    Z=              1.4080  Tot=              8.3979
 Quadrupole moment (field-independent basis, Debye-Ang):
   XX=           -183.7914   YY=           -174.9841   ZZ=           -179.1149
   XY=             -5.2980   XZ=             20.6996   YZ=             -9.5003
 Traceless Quadrupole moment (field-independent basis, Debye-Ang):
   XX=             -4.4946   YY=              4.3127   ZZ=              0.1819
   XY=             -5.2980   XZ=             20.6996   YZ=             -9.5003
 Octapole moment (field-independent basis, Debye-Ang**2):
  XXX=           -121.3856  YYY=            101.1182  ZZZ=             24.9167  XYY=             62.3430
  XXY=             56.7364  XXZ=              0.1400  XZZ=            -13.5454  YZZ=             27.6274
  YYZ=              3.0481  XYZ=            -53.0407
 Hexadecapole moment (field-independent basis, Debye-Ang**3):
 XXXX=         -17366.3413 YYYY=          -4730.1950 ZZZZ=          -1504.2383 XXXY=           -476.0091
 XXXZ=            683.9708 YYYX=            -83.3516 YYYZ=             29.7345 ZZZX=            160.9140
 ZZZY=            -43.0270 XXYY=          -4036.1539 XXZZ=          -3482.6863 YYZZ=          -1108.9894
 XXYZ=           -125.8329 YYXZ=             90.6777 ZZXY=             15.0908
 N-N= 2.852315688274D+03 E-N=-8.850266090030D+03  KE= 1.344866203012D+03
 No NMR shielding tensors so no spin-rotation constants.
 Leave Link  601 at Mon Sep  5 05:53:17 2022, MaxMem=  209715200 cpu:       3.9
 (Enter /opt/gaussian/l701.exe)
 Compute integral first derivatives.
 ... and contract with generalized density number  0.
 Leave Link  701 at Mon Sep  5 05:53:18 2022, MaxMem=  209715200 cpu:       3.3
 (Enter /opt/gaussian/l702.exe)
 L702 exits ... SP integral derivatives will be done elsewhere.
 Leave Link  702 at Mon Sep  5 05:53:18 2022, MaxMem=  209715200 cpu:       0.2
 (Enter /opt/gaussian/l703.exe)
 Compute integral first derivatives, UseDBF=F ICtDFT=           0.
 Integral derivatives from FoFDir, PRISM(SPDF).
 Calling FoFJK, ICntrl=      2127 FMM=F ISym2X=0 I1Cent= 0 IOpClX= 0 NMat=1 NMatS=1 NMatT=0.
 FoFCou: FMM=F IPFlag=           0 FMFlag=      100000 FMFlg1=         800
         NFxFlg=           0 DoJE=F BraDBF=F KetDBF=F FulRan=T
         Omega=  0.000000  0.000000  1.000000  0.000000  0.000000 ICntrl=    2127 IOpCl=  0
         NMat0=    1 NMatS0=    1 NMatT0=    0 NMatD0=    1 NMtDS0=    0 NMtDT0=    0
         I1Cent=           0 NGrid=           0.
 Symmetry not used in FoFCou.
 Leave Link  703 at Mon Sep  5 05:57:25 2022, MaxMem=  209715200 cpu:    1974.9
 (Enter /opt/gaussian/l716.exe)
 Dipole        =-1.30119187D+00 2.98601368D+00 5.53968106D-01
 ***** Axes restored to original set *****
 -------------------------------------------------------------------
 Center     Atomic                   Forces (Hartrees/Bohr)
 Number     Number              X              Y              Z
 -------------------------------------------------------------------
      1        8           0.000273288    0.001779637   -0.001131607
      2        6          -0.002813938   -0.016158545    0.006023104
      3        6          -0.000639892   -0.005028450    0.002325417
      4        7           0.000294576    0.000696031    0.000213467
      5        7          -0.010939179    0.012378467   -0.007715349
      6        7           0.014766403   -0.017608250   -0.000965776
      7        6           0.001627468   -0.003889275   -0.015738353
      8        6          -0.001622943    0.001944973   -0.001318649
      9        6          -0.004510587    0.005755374    0.003143549
     10        6           0.004456313   -0.005448286   -0.002808185
     11        6          -0.000535527    0.000687923   -0.005002779
     12        6          -0.007458177    0.008289318    0.007419991
     13        7          -0.002744466    0.008535254   -0.003102582
     14        6          -0.004076334   -0.006099906    0.011243079
     15        6           0.008942641    0.002057769   -0.002459544
     16        6           0.005943079   -0.008166236    0.003846841
     17        6          -0.015534931   -0.021560407    0.008740599
     18        8           0.003240556   -0.002944978    0.000405407
     19        6           0.009600429    0.019350379   -0.017818778
     20        6           0.008326052    0.002582997   -0.000412908
     21        6          -0.002213448   -0.000726112    0.001621864
     22        6           0.002723146    0.001387257    0.002050076
     23        6          -0.010142697   -0.002671169    0.001110957
     24        6           0.002310675    0.000308132   -0.002807180
     25        6          -0.002358375   -0.001789751   -0.001030269
     26        6           0.011766767    0.005251155   -0.002074415
     27        6          -0.002020023   -0.003717392    0.001299044
     28        6           0.002546514    0.000193054   -0.000223132
     29        6           0.015240420    0.002958467   -0.000829942
     30        7          -0.002762778   -0.015506471    0.010262405
     31        6          -0.014471123    0.005689461   -0.004071121
     32        1           0.001161317    0.005634223   -0.012196889
     33        1           0.003639265    0.010242657    0.008091324
     34        1           0.007729656   -0.010007998   -0.006930854
     35        1           0.008043369   -0.008722258    0.008086464
     36        1           0.000394468    0.001118386    0.014156481
[...]
 .00016189,0.00024484,0.00036775,-0.00026583,0.00110668,0.00716024,0.00
 175257,0.01550457,0.10642148,-0.08693419,-0.00014603,0.00560156,0.0023
 5696,0.00165655,0.00238305,0.00770899,-0.00058985,-0.00165349,-0.00317
 421,-0.00133462,0.00325372,0.00639397,0.00000139,0.00000063,0.00000182
 ,-0.00000156,0.00000119,0.00000020,0.00000060,-0.00000012,-0.00000006,
 0.00000034,0.00000009,0.00000019,-0.00000004,0.00000058,-0.00000021,0.
 00000065,0.00000029,-0.00000017,0.00000104,-0.00000312,-0.00000250,0.0
 0000013,0.00000274,0.00000033,0.00000427,0.00000149,0.00000106,0.00000
 099,0.00000126,-0.00000210,-0.00000122,-0.00000529,-0.00000155,0.00000
 271,0.00000048,-0.00000086,-0.00000034,-0.00000038,-0.00000017,-0.0000
 0084,-0.00000393,-0.00000659,0.00000082,-0.00000122,0.00000150,0.00002
 696,-0.00000580,-0.00000891,0.00071632,0.00006212,-0.00024055,-0.00001
 196,-0.00005661,-0.00001213,-0.00002684,-0.00000631,0.00000043,-0.0184
 7992,-0.12018295,0.07952975,-0.00004949,0.00003558,0.00000228,0.000105
 09,-0.00008101,0.00002692,0.00001125,-0.00001913,-0.00000205,-0.000024
 45,0.00001168,0.00001051,0.00001365,-0.00001578,-0.00002741,-0.0000173
 8,0.00001899,-0.00000378,-0.00000233,0.00000170,0.00000685,0.00000048,
 -0.00000087,-0.00000149,-0.00000226,0.00000121,0.00000087,0.00000155,-
 0.00000423,0.00000205,-0.00000129,-0.00000136,-0.00000704,0.00000996,-
 0.00000565,0.00002194,-0.00015183,-0.00001424,0.00002555,-0.00001370,0
 .00007431,-0.00002140,-0.00000058,-0.00000555,0.00000518,-0.00000155,0
 .00000369,-0.00000590,0.00000179,0.00001945,-0.00000195,-0.00001158,-0
 .00002951,0.00000070,0.00001534,0.00001643,0.00000587,0.00010122,0.000
 02671,-0.00002525,-0.00002520,-0.00001351,0.00001608,-0.00005874,-0.00
 003763,-0.00009945,-0.00019564,0.00119184,-0.00066021,-0.00032216,-0.0
 0017046,0.00023502,-0.00003831,-0.00005056,-0.00011099,-0.00325601,-0.
 00335227,0.00187011,-0.01700730,0.01817086,-0.00754606,-0.23671476,0.1
 2532971,-0.05155395,0.00590031,-0.00426813,0.00186937,0.00172412,-0.00
 089319,0.00063843,-0.00019121,-0.00101497,0.00048154,-0.00000352,0.000
 00193,-0.00000272,-0.00000840,0.00000497,0.00000319,-0.00000037,0.0000
 0094,0.00000036,-0.00000053,0.00000141,-0.00000081,0.00000107,0.000000
 36,-0.00000050,0.00000156,0.00000329,0.00000392,-0.00000953,-0.0000140
 5,-0.00000066,0.00000671,0.00000032,-0.00000412,-0.00000462,0.00000937
 ,0.00000190,-0.00000135,0.00000179,0.00000289,-0.00000108,-0.00000810,
 -0.00000412,-0.00000161,-0.00000098,0.00000215,-0.00000137,-0.00000523
 ,-0.00000401,-0.00000214,-0.00000416,-0.00000578,0.00000682,-0.0000047
 4,0.00000687,-0.00002410,-0.00001098,0.00001775,0.00001676,0.00002071,
 0.00001489,0.00001437,0.00003206,0.00000531,-0.00004215,-0.00001441,0.
 00000090,0.00110892,-0.00016794,-0.00003242,0.24868414,0.00001518,-0.0
 0000980,-0.00000125,-0.00002865,0.00002001,-0.00000423,-0.00000453,0.0
 0000669,-0.00000021,0.00000754,-0.00000471,-0.00000406,-0.00000553,0.0
 0000559,0.00000904,0.00000645,-0.00000678,0.00000117,0.00000068,-0.000
 00037,-0.00000211,-0.00000020,0.00000036,0.00000076,0.00000085,-0.0000
 0026,-0.00000062,-0.00000057,0.00000154,-0.00000057,0.00000022,0.00000
 054,0.00000261,-0.00000253,0.00000139,-0.00000678,0.00003785,-0.000007
 20,-0.00000353,0.00000053,-0.00000905,0.00000327,-0.00000485,0.0000000
 7,0.00000170,0.00000087,-0.00000007,0.00000226,-0.00000321,-0.00000493
 ,-0.00000037,0.00001012,0.00000611,0.00000011,-0.00000825,-0.00000219,
 -0.00000189,-0.00002888,-0.00000417,0.00001932,0.00000837,-0.00001535,
 0.00001423,0.00003517,-0.00003451,-0.00005476,-0.00042336,0.00048392,-
 0.00006049,-0.00009569,-0.00009917,0.00001196,0.00000678,0.00001744,-0
 .00006557,-0.00276251,0.00172684,0.00320091,-0.01013488,0.00926178,-0.
 00264239,0.12545511,-0.14225473,0.04463374,0.02537545,-0.00780013,0.00
 324209,-0.00031011,-0.00425190,0.00564566,-0.00215257,-0.00077182,0.00
 029915,0.00000067,-0.00000013,0.00000120,0.00000139,-0.00000086,-0.000
 00079,0.00000014,-0.00000040,-0.00000019,0.00000004,-0.00000048,0.0000
 0030,-0.00000063,-0.00000007,-0.00000015,-0.00000020,-0.00000118,-0.00
 000114,0.00000239,0.00000169,-0.00000023,-0.00000205,-0.00000032,0.000
 00211,0.00000223,-0.00000067,-0.00000151,-0.00000029,-0.00000037,-0.00
 000029,-0.00000030,-0.00000019,-0.00000030,0.00000140,0.00000027,-0.00
 000097,0.00000046,0.00000133,0.00000125,0.00000046,0.00000006,-0.00000
 007,-0.00000105,0.00000050,-0.00000098,-0.00000047,0.00000378,-0.00000
 090,0.00002413,0.00000885,0.00002844,-0.00000278,0.00000822,-0.0000203
 5,-0.00001020,-0.00000023,0.00000524,0.00036720,0.00008521,-0.00195504
 ,-0.13519041,0.14380627,-0.00000780,0.00000112,-0.00000191,0.00001265,
 -0.00000419,0.00000257,0.00000195,-0.00000309,0.00000162,-0.00000317,0
 .00000174,0.00000056,-0.00000014,-0.00000110,-0.00000447,-0.00000175,0
 .00000127,-0.00000047,-0.00000042,0.00000083,0.00000060,0.00000026,-0.
 00000059,0.00000046,-0.00000007,-0.00000025,-0.00000069,-0.00000032,-0
 .00000025,0.00000039,-0.00000060,0.00000009,-0.00000036,0.00000232,-0.
 00000133,0.00000361,-0.00000926,-0.00001155,-0.00000917,-0.00000107,0.
 00000978,0.00000231,-0.00000242,0.00000017,0.00000101,-0.00000103,0.00
 000060,0.00000047,0.00000122,0.00000282,0.00000165,0.00000045,-0.00000
 355,-0.00000378,-0.00000043,0.00000238,0.00000486,0.00000062,-0.000000
 76,0.00001411,0.00000986,0.00001578,0.00000758,-0.00001919,-0.00005398
 ,-0.00003201,0.00028275,-0.00002408,0.00042403,0.00013861,-0.00002808,
 -0.00009662,0.00003870,0.00002592,0.00000512,0.00138804,0.00300437,0.0
 0680327,0.00534399,-0.00368631,0.00426084,-0.05162427,0.04440036,-0.05
 523914,-0.01210257,0.00450293,-0.00062521,0.00070618,0.00583959,0.0051
 0544,0.00094489,0.00016052,-0.00042402,-0.00000026,0.00000052,-0.00000
 019,-0.00000138,0.00000117,0.00000058,0.00000020,0.00000009,0.00000011
 ,-0.00000010,0.00000038,-0.00000012,0.00000009,0.00000023,-0.00000041,
 0.00000040,0.00000032,0.00000077,-0.00000101,-0.00000229,-0.00000018,0
 .00000036,0.00000064,-0.00000183,0.00000031,0.00000122,0.00000140,0.00
 000052,0.00000068,-0.00000097,0.,-0.00000194,-0.00000037,0.00000020,0.
 00000008,0.,-0.00000072,-0.00000119,-0.00000123,-0.00000034,-0.0000019
 7,-0.00000306,0.00000049,-0.00000036,0.00000132,0.00000333,0.00000094,
 0.00000191,0.00005006,0.00000709,-0.00001114,0.00000714,-0.00000141,-0
 .00001574,0.00000611,0.00000975,0.00000374,-0.00030234,-0.00186236,-0.
 00332522,0.05522584,-0.05016589,0.04696271,-0.00004695,0.00002933,0.00
 000261,0.00009270,-0.00006442,0.00001512,0.00001298,-0.00002075,0.0000
 0052,-0.00002350,0.00001338,0.00001052,0.00001323,-0.00001480,-0.00002
 798,-0.00001729,0.00001876,-0.00000413,-0.00000235,0.00000162,0.000007
 20,0.00000124,-0.00000159,-0.00000155,-0.00000169,0.00000071,0.0000010
 8,0.00000148,-0.00000402,0.00000264,-0.00000142,-0.00000121,-0.0000068
 1,0.00000958,-0.00000539,0.00002135,-0.00011933,-0.00000516,0.00001131
 ,-0.00000748,0.00004992,-0.00000924,0.00000504,-0.00000199,-0.00000013
 ,-0.00000228,0.00000245,-0.00000505,0.00000560,0.00001580,0.00000108,-
 0.00001864,-0.00002270,-0.00000186,0.00001760,0.00001170,0.00000725,0.
 00008287,0.00001116,0.00000088,-0.00003324,0.00001013,0.00001939,-0.00
 006045,-0.00003212,-0.00002379,0.00020549,-0.00015610,0.00004674,-0.00
 005704,-0.00001715,-0.00001661,0.00003330,-0.00002892,-0.00000208,-0.0
 0001960,0.00009614,-0.00011585,0.00144989,-0.00038570,0.00038929,-0.00
 002786,0.00126703,-0.00044872,-0.27297148,-0.09688176,0.05290307,-0.03
 002947,-0.00011705,0.00084382,-0.00058285,0.00248465,-0.00077149,-0.00
 000260,0.00000145,-0.00000320,-0.00000669,0.00000389,0.00000275,-0.000
 00070,0.00000113,0.00000075,-0.00000101,0.00000179,-0.00000129,0.00000
 123,0.00000018,-0.00000092,0.00000167,0.00000281,0.00000376,-0.0000079
 6,-0.00000986,0.00000016,0.00000590,0.00000150,-0.00000546,-0.00000512
 ,0.00000593,0.00000345,-0.00000011,0.00000159,0.00000104,-0.00000022,-
 0.00000442,-0.00000183,-0.00000235,-0.00000074,0.00000210,-0.00000155,
 -0.00000469,-0.00000418,-0.00000153,-0.00000310,-0.00000404,0.00000509
 ,-0.00000280,0.00000522,-0.00001323,-0.00000620,0.00001290,0.00001066,
 -0.00000018,-0.00001483,0.00002556,0.00001779,0.00004759,-0.00000907,-
 0.00000078,-0.00000505,-0.00009894,0.00011802,-0.00004774,0.00044464,-
 0.00042755,0.00008680,0.30242072,-0.00001095,0.00001506,-0.00000181,0.
 00002871,-0.00003064,0.00000845,0.00000382,-0.00000518,-0.00000009,-0.
 00000724,0.00000404,0.00000296,0.00000337,-0.00000420,-0.00000851,-0.0
 0000496,0.00000510,-0.00000123,-0.00000079,0.00000080,0.00000206,0.000
 00025,-0.00000051,-0.00000028,-0.00000060,0.00000015,0.00000005,0.0000
 0029,-0.00000105,0.00000071,-0.00000040,-0.00000019,-0.00000188,0.0000
 0305,-0.00000188,0.00000680,-0.00004447,0.00000901,-0.00000421,-0.0000
 0036,0.00001479,-0.00000245,0.00000371,-0.00000007,-0.00000105,-0.0000
 0143,0.00000104,-0.00000151,0.00000240,0.00000536,0.00000105,-0.000006
 74,-0.00000715,-0.00000206,0.00000539,0.00000292,0.00000461,0.00003462
 ,-0.00002905,0.00003879,-0.00005184,0.00006005,-0.00006995,0.00016330,
 0.00001539,0.00007129,0.00005875,-0.00007551,-0.00076730,-0.00014217,-
 0.00001153,0.00004721,0.00001758,0.00004447,-0.00005358,0.00069637,-0.
 00066429,0.00009908,0.00069857,-0.00343960,0.00484328,-0.02565955,-0.0
 0429523,0.00581179,-0.09728217,-0.09496983,0.02850702,0.02288096,0.007
 78907,-0.00632512,0.00457074,0.00132411,0.00408453,-0.00000053,0.00000
 057,-0.00000098,-0.00000192,0.00000127,0.00000094,-0.00000004,0.000000
 34,0.00000015,-0.00000019,0.00000058,-0.00000031,0.00000027,0.00000018
 ,-0.00000039,0.00000047,0.00000057,0.00000118,-0.00000256,-0.00000235,
 0.00000016,0.00000228,0.00000064,-0.00000225,-0.00000156,0.00000173,0.
 00000221,0.00000026,0.00000067,-0.00000005,0.00000021,-0.00000124,-0.0
 0000036,-0.00000088,-0.00000015,0.00000058,-0.00000078,-0.00000168,-0.
 00000165,-0.00000048,-0.00000138,-0.00000186,0.00000118,-0.00000062,0.
 00000172,0.00001037,-0.00000203,-0.00000154,0.00000582,0.00001267,-0.0
 0006234,-0.00002587,-0.00000108,-0.00003394,-0.00000562,-0.00000482,-0
 .00000311,-0.00136087,-0.00048301,0.00009422,0.00033687,0.00007494,-0.
 00144865,0.09441845,0.09435944,0.00000353,0.00000913,-0.00000429,0.000
 00820,-0.00002105,0.00001337,0.00000071,-0.00000011,-0.00000174,-0.000
 00225,0.00000072,-0.00000051,-0.00000084,0.00000023,-0.00000240,-0.000
 00045,0.00000037,-0.00000008,-0.00000037,0.00000043,0.00000014,0.00000
 033,-0.00000041,0.00000062,0.00000012,0.00000006,-0.00000095,-0.000000
 25,0.00000026,0.00000046,-0.00000037,0.00000036,0.00000003,0.00000165,
 -0.00000141,0.00000232,-0.00002769,0.00000609,-0.00000693,-0.00000084,
 0.00001339,-0.00000564,-0.00000179,-0.00000120,0.00000204,0.00000009,0
 .00000002,-0.00000042,-0.00000015,0.00000036,0.00000091,0.00000282,-0.
 00000079,-0.00000274,-0.00000247,0.00000051,0.00000300,0.00004154,-0.0
 0009213,0.00016596,-0.00019134,0.00006071,-0.00008811,0.00030185,0.000
 03216,-0.00001203,0.00021751,-0.00065976,-0.00137485,-0.00030867,-0.00
 004034,0.00001287,0.00013443,0.00013266,-0.00008064,-0.00052923,-0.000
 17879,-0.00037282,-0.00013206,0.00501713,0.00463042,0.01221084,0.00466
 643,0.00373537,0.05288235,0.02884481,-0.05585269,-0.00982003,-0.006028
 39,-0.00107626,-0.00171668,0.00442973,0.00831792,0.00000007,0.00000058
 ,0.00000009,-0.00000145,0.00000058,0.00000059,0.00000009,-0.00000002,0
 .00000004,-0.00000017,0.00000008,0.00000004,-0.00000027,0.00000006,-0.
 00000051,0.00000021,-0.00000025,0.00000052,-0.00000041,-0.00000210,0.0
 0000032,0.,-0.00000081,0.00000132,0.00000035,0.00000097,0.00000045,-0.
 00000003,0.00000036,-0.00000032,-0.00000039,-0.00000159,-0.00000036,0.
 00000043,0.00000012,-0.00000024,-0.00000025,-0.00000037,-0.00000033,0.
 00000001,-0.00000173,-0.00000197,0.00000009,-0.00000002,0.00000134,0.0
 0001606,-0.00000144,-0.00000784,-0.00000171,0.00002095,0.00001326,-0.0
 0002072,-0.00000300,-0.00001420,-0.00000254,-0.00000837,-0.00000643,0.
 00060926,0.00003688,-0.00032452,-0.00028460,-0.00138252,-0.00235785,-0
 .05311127,-0.03493034,0.04417476,0.00001468,-0.00003097,0.00000381,-0.
 00004642,0.00005878,-0.00002019,-0.00000761,0.00001172,0.00000146,0.00
 001273,-0.00000771,-0.00000450,-0.00000713,0.00000599,0.00001559,0.000
 00801,-0.00001061,0.00000195,0.00000179,-0.00000071,-0.00000369,-0.000
 00080,0.00000022,-0.00000001,0.00000039,-0.00000175,0.00000057,-0.0000
 0135,0.00000115,-0.00000145,-0.00000020,-0.00000016,0.00000363,-0.0000
 0547,0.00000469,-0.00001268,0.00007209,-0.00002125,0.00000187,0.000003
 50,-0.00001773,0.00000830,-0.00000329,0.00000090,-0.00000022,0.0000011
 3,-0.00000052,0.00000293,-0.00000371,-0.00000227,-0.00000249,0.0000077
 7,0.00000321,0.00000467,-0.00000584,-0.00000052,-0.00000615,-0.0000946
 6,0.00010987,-0.00007328,0.00007351,-0.00003004,0.00002810,0.00013557,
 0.00013029,-0.00003585,0.00032586,-0.00035068,0.00008274,-0.00027607,-
 0.00054232,-0.00054903,-0.00015840,-0.00008892,0.00025187,0.00549399,-
 0.00449601,0.00171239,0.00055301,-0.00143713,0.00080096,-0.00028547,0.
 00002069,0.00007489,-0.00255661,-0.00163644,0.00132936,-0.03399308,0.0
 1304750,-0.00482619,-0.19270592,0.12901055,-0.04838957,0.00000132,-0.0
 0000041,0.00000209,0.00000367,-0.00000121,-0.00000188,0.00000087,0.000
 00003,-0.00000018,0.00000121,-0.00000027,0.00000055,0.00000048,0.00000
 051,0.00000097,-0.00000024,-0.00000028,-0.00000233,0.00000396,0.000004
 46,0.00000020,-0.00000131,-0.00000155,0.00000360,0.00000192,-0.0000018
 0,-0.00000244,-0.00000032,-0.00000083,0.00000036,0.00000027,0.00000140
 ,0.,0.00000088,-0.00000003,-0.00000043,0.00000084,0.00000115,0.0000014
 1,0.00000049,0.00000227,0.00000219,-0.00000074,-0.00000062,-0.00000289
 ,0.00001276,0.00000654,-0.00000792,-0.00000488,-0.00000968,0.00001261,
 -0.00060315,-0.00094425,0.00012914,0.00002198,-0.00004682,-0.00003076,
 0.00037204,-0.00035557,0.00007467,0.00001676,0.00024057,-0.00017369,-0
 .00067246,0.00066691,-0.00027325,0.22429168,0.00007740,-0.00001675,-0.
 00002794,-0.00012284,0.00004521,0.00000887,-0.00001685,0.00003269,0.00
 000263,0.00003108,-0.00001722,-0.00001535,-0.00002015,0.00002146,0.000
 03792,0.00002416,-0.00002726,0.00000512,0.00000291,-0.00000148,-0.0000
 0984,-0.00000113,0.00000099,0.00000222,0.00000213,-0.00000172,-0.00000
 216,-0.00000257,0.00000577,-0.00000329,0.00000078,0.00000295,0.0000103
 3,-0.00001236,0.00000640,-0.00002815,0.00012850,0.00004315,-0.00006431
 ,0.00001328,-0.00007794,-0.00000302,-0.00000047,0.00000358,-0.00000170
 ,0.00000221,-0.00000432,0.00000574,-0.00000328,-0.00002384,0.00000252,
 0.00002104,0.00003711,-0.00000462,-0.00002355,-0.00002339,-0.00000204,
 -0.00009808,-0.00004389,-0.00007640,0.00013214,0.00012170,-0.00006123,
 -0.00023743,0.00004915,0.00021375,0.00111382,0.00029220,-0.00114061,-0
 .00017167,-0.00035881,0.00078780,-0.00035958,0.00028136,-0.00028423,0.
 02147635,-0.01103762,0.00693621,-0.00255119,-0.00329538,0.00434396,-0.
 00080546,-0.00010808,-0.00017106,-0.00377509,0.00288689,0.00350296,-0.
 01019444,0.01136424,-0.00630879,0.12845653,-0.16844877,0.04984312,0.00
 000413,-0.00000141,0.00000356,0.00001022,-0.00000531,-0.00000372,0.000
 00143,-0.00000126,-0.00000101,0.00000179,-0.00000214,0.00000178,-0.000
 00188,0.00000036,0.00000077,-0.00000230,-0.00000510,-0.00000496,0.0000
 1134,0.00001698,0.00000053,-0.00000699,-0.00000038,0.00000614,0.000006
 79,-0.00001096,-0.00000208,0.00000143,-0.00000156,-0.00000324,0.000000
 83,0.00000754,0.00000414,0.00000255,0.00000167,-0.00000326,0.00000138,
 0.00000650,0.00000491,0.00000232,0.00000290,0.00000434,-0.00001002,0.0
 0000684,-0.00000644,-0.00000271,-0.00002148,-0.00002063,0.00003626,0.0
 0001350,-0.00014914,-0.00076888,-0.00042348,-0.00082396,-0.00002793,-0
 .00001914,0.00002120,0.00122762,-0.00079227,0.00022733,0.00008289,-0.0
 0024136,-0.00068823,-0.00036615,0.00028930,0.00008077,-0.13329033,0.16
 947186,-0.00000849,-0.00002040,-0.00000597,0.00001662,0.00000608,0.000
 00777,0.00000314,-0.00000736,0.00000044,-0.00000612,0.00000333,0.00000
 005,-0.00000268,-0.00000099,-0.00000999,-0.00000290,0.00000083,-0.0000
 0088,-0.00000079,0.00000181,0.00000122,0.00000136,-0.00000217,0.000001
 61,0.00000001,-0.00000023,-0.00000249,-0.00000077,0.00000018,0.0000019
 6,-0.00000164,0.00000097,-0.00000013,0.00000647,-0.00000369,0.00000858
 ,-0.00006206,0.00001620,-0.00000330,0.00001394,0.00002328,0.00000444,-
 0.00000446,-0.00000115,0.00000161,-0.00000033,0.00000085,-0.00000175,0
 .00000096,0.00000352,0.00000169,0.00000229,-0.00000566,-0.00000619,-0.
 00000236,0.00000204,0.00000645,0.00021762,-0.00018202,0.00045898,-0.00
 058221,0.00002252,-0.00013250,0.00065469,0.00050146,-0.00058126,-0.002
 10345,-0.00163437,-0.00153466,-0.00032551,-0.00074463,0.00024690,0.000
 47065,0.00013466,-0.00040582,-0.00822336,0.00934646,0.00297480,0.00078
 394,0.00439002,0.00428453,0.00067750,0.00019763,-0.00059667,0.00215673
 ,0.00301793,0.00948083,0.00515385,-0.00702220,-0.00148173,-0.04786141,
 0.04858589,-0.06021886,-0.00000048,0.00000176,0.00000010,-0.00000434,0
 .00000185,0.00000120,0.00000058,0.00000030,0.00000021,-0.00000055,0.00
 000074,-0.00000023,-0.00000076,0.00000022,-0.00000180,0.00000088,-0.00
 000052,0.00000213,-0.00000155,0.00000010,-0.00000160,-0.00000275,-0.00
 000043,-0.00000295,0.00000050,0.00000222,0.00000173,-0.00000006,0.0000
 0133,-0.00000026,-0.00000040,-0.00000320,-0.00000094,0.00000031,0.0000
 0035,-0.00000006,-0.00000062,-0.00000154,-0.00000140,-0.00000012,-0.00
 000428,-0.00000449,0.00000100,0.,0.00000428,0.00000891,0.00000271,-0.0
 0000694,0.00002963,-0.00001245,-0.00000093,-0.00041922,-0.00009664,0.0
 0027129,-0.00001725,-0.00001319,-0.00000037,-0.00051924,0.00028550,-0.
 00043725,-0.00009856,-0.00074636,-0.00145689,0.00018471,0.00009795,0.0
 0051951,0.04986816,-0.05614722,0.04861601\\0.00000042,-0.00000049,0.00
 000231,0.00000111,0.00000278,0.00000388,0.00000049,-0.00000047,-0.0000
 0714,-0.00000435,0.00000209,0.00001923,0.00000942,-0.00000990,-0.00000
 727,-0.00000466,0.00000011,0.00000417,0.00000565,-0.00000143,-0.000005
 35,0.00000054,0.00000042,-0.00000026,0.00000018,-0.00000010,0.00000348
 ,0.00000082,-0.00000007,0.00000242,-0.00000078,0.00000122,0.00000090,-
 0.00000626,0.00000434,-0.00000723,0.00000306,-0.00000148,-0.00001263,-
 0.00000137,-0.00000042,0.00000447,-0.00000269,0.00000048,-0.00000279,-
 0.00000194,0.00000236,-0.00000352,0.00000455,-0.00000392,-0.00000129,-
 0.00000631,0.00000339,-0.00000164,0.00000725,-0.00000047,-0.00000206,-
 0.00000318,-0.00000155,0.00000525,-0.00000151,0.00000062,-0.00000197,0
 .00000010,0.00000023,-0.00000115,0.00000029,0.00000030,0.00000028,-0.0
 0000003,0.00000019,0.00000230,0.00000058,0.00000138,0.00000148,-0.0000
 0157,-0.00000040,0.00000167,-0.00000084,0.00000163,-0.00000022,0.00000
 227,0.00000219,0.00000003,-0.00000399,-0.00000143,0.00000254,0.0000007
 9,0.00000279,0.00000124,0.00000220,-0.00000161,0.00000196,0.00000113,-
 0.00000109,0.00000327,-0.00000244,-0.00000076,0.00000003,-0.00000137,0
 .00000022,0.00000259,-0.00000052,0.00000161,-0.00000004,0.00000005,0.0
 0000228,-0.00000053,0.00000045,-0.00000047,0.00000003,-0.00000107,-0.0
 0000113,-0.00000207,0.00000080,-0.00000076,0.00000002,0.00000217,0.000
 00038,-0.00000182,0.00000040,-0.00000157,-0.00000055,0.00000143,-0.000
 00070,-0.00000305,-0.00000127,-0.00000048,-0.00000106,-0.00000056,0.00
 000004,-0.00000322,-0.00000062,0.00000036,-0.00000208,0.00000043,0.000
 00223,-0.00000016,0.00000101,-0.00000233,0.00000107,0.00000090,-0.0000
 0159,0.00000128,0.00000047,0.00000149,-0.00000055,-0.00000156,-0.00000
 018,-0.00000078,-0.00000049,-0.00000167,0.00000071,0.00000056,-0.00000
 119,0.00000104,0.00000235,0.00000116,0.00000140,-0.00000248,0.00000138
 ,0.00000135\\\@


 HERE WE GO......
 SLIDING DOWN THE RAZOR BLADE OF LIFE......
                                 TOM LEHRER
 Job cpu time:  0 days 22 hours  0 minutes 49.2 seconds.
 File lengths (MBytes):  RWF=   1773 Int=      0 D2E=      0 Chk=     24 Scr=      1
 Normal termination of Gaussian 09 at Mon Sep  5 13:41:24 2022.
