 Entering Gaussian System, Link 0=g09
 Input=Mol21.gjf
 Output=Mol21.log
 Initial command:
 /opt/gaussian/l1.exe /home/scr/lqcapf-6/Gau-195102.inp -scrdir=/home/scr/lqcapf-6/
 Entering Link 1 = /opt/gaussian/l1.exe PID=    195104.
  
 Copyright (c) 1988,1990,1992,1993,1995,1998,2003,2009,2011,
            Gaussian, Inc.  All Rights Reserved.
  
 This is part of the Gaussian(R) 09 program.  It is based on
 the Gaussian(R) 03 system (copyright 2003, Gaussian, Inc.),
 the Gaussian(R) 98 system (copyright 1998, Gaussian, Inc.),
 the Gaussian(R) 94 system (copyright 1995, Gaussian, Inc.),
 the Gaussian 92(TM) system (copyright 1992, Gaussian, Inc.),
 the Gaussian 90(TM) system (copyright 1990, Gaussian, Inc.),
 the Gaussian 88(TM) system (copyright 1988, Gaussian, Inc.),
 the Gaussian 86(TM) system (copyright 1986, Carnegie Mellon
 University), and the Gaussian 82(TM) system (copyright 1983,
 Carnegie Mellon University). Gaussian is a federally registered
 trademark of Gaussian, Inc.
  
 This software contains proprietary and confidential information,
 including trade secrets, belonging to Gaussian, Inc.
  
 This software is provided under written license and may be
 used, copied, transmitted, or stored only in accord with that
 written license.
  
 The following legend is applicable only to US Government
 contracts under FAR:
  
                    RESTRICTED RIGHTS LEGEND
  
 Use, reproduction and disclosure by the US Government is
 subject to restrictions as set forth in subparagraphs (a)
 and (c) of the Commercial Computer Software - Restricted
 Rights clause in FAR 52.227-19.
  
 Gaussian, Inc.
 340 Quinnipiac St., Bldg. 40, Wallingford CT 06492
  
  
 ---------------------------------------------------------------
 Warning -- This program may not be used in any manner that
 competes with the business of Gaussian, Inc. or will provide
 assistance to any competitor of Gaussian, Inc.  The licensee
 of this program is prohibited from giving any competitor of
 Gaussian, Inc. access to this program.  By using this program,
 the user acknowledges that Gaussian, Inc. is engaged in the
 business of creating and licensing software in the field of
 computational chemistry and represents and warrants to the
 licensee that it is not a competitor of Gaussian, Inc. and that
 it will not use this program in any manner prohibited above.
 ---------------------------------------------------------------
  

 Cite this work as:
 Gaussian 09, Revision C.01,
 M. J. Frisch, G. W. Trucks, H. B. Schlegel, G. E. Scuseria, 
 M. A. Robb, J. R. Cheeseman, G. Scalmani, V. Barone, B. Mennucci, 
 G. A. Petersson, H. Nakatsuji, M. Caricato, X. Li, H. P. Hratchian, 
 A. F. Izmaylov, J. Bloino, G. Zheng, J. L. Sonnenberg, M. Hada, 
 M. Ehara, K. Toyota, R. Fukuda, J. Hasegawa, M. Ishida, T. Nakajima, 
 Y. Honda, O. Kitao, H. Nakai, T. Vreven, J. A. Montgomery, Jr., 
 J. E. Peralta, F. Ogliaro, M. Bearpark, J. J. Heyd, E. Brothers, 
 K. N. Kudin, V. N. Staroverov, T. Keith, R. Kobayashi, J. Normand, 
 K. Raghavachari, A. Rendell, J. C. Burant, S. S. Iyengar, J. Tomasi, 
 M. Cossi, N. Rega, J. M. Millam, M. Klene, J. E. Knox, J. B. Cross, 
 V. Bakken, C. Adamo, J. Jaramillo, R. Gomperts, R. E. Stratmann, 
 O. Yazyev, A. J. Austin, R. Cammi, C. Pomelli, J. W. Ochterski, 
 R. L. Martin, K. Morokuma, V. G. Zakrzewski, G. A. Voth, 
 P. Salvador, J. J. Dannenberg, S. Dapprich, A. D. Daniels, 
 O. Farkas, J. B. Foresman, J. V. Ortiz, J. Cioslowski, 
 and D. J. Fox, Gaussian, Inc., Wallingford CT, 2010.
 
 ******************************************
 Gaussian 09:  EM64L-G09RevC.01 23-Sep-2011
                 4-Sep-2022 
 ******************************************
 %nprocshared=8
 Will use up to    8 processors via shared memory.
 %mem=1600MB
 -------------------------
 #p opt freq b3lyp/cc-pvdz
 -------------------------
 1/14=-1,18=20,19=15,26=3,38=1/1,3;
 2/9=110,12=2,17=6,18=5,40=1/2;
 3/5=16,11=2,16=1,25=1,30=1,71=1,74=-5/1,2,3;
 4//1;
 5/5=2,38=5/2;
 6/7=2,8=2,9=2,10=2,28=1/1;
 7//1,2,3,16;
 1/14=-1,18=20,19=15/3(2);
 2/9=110/2;
 99//99;
 2/9=110/2;
 3/5=16,11=2,16=1,25=1,30=1,71=1,74=-5/1,2,3;
 4/5=5,16=3/1;
 5/5=2,38=5/2;
 7//1,2,3,16;
 1/14=-1,18=20,19=15/3(-5);
 2/9=110/2;
 6/7=2,8=2,9=2,10=2,19=2,28=1/1;
 99/9=1/99;
 Leave Link    1 at Sun Sep  4 00:55:24 2022, MaxMem=  209715200 cpu:       0.2
 (Enter /opt/gaussian/l101.exe)
 ---------
 Mol21.log
 ---------
 Charge =  0 Multiplicity = 1
 Symbolic Z-Matrix:
 O                     0.7595   -1.40668  -0.00202 
 C                     0.89553  -0.372    -0.6363 
 C                     2.26562   0.02704  -1.17251 
 N                     3.25246  -0.98402  -0.94521 
 N                     3.63507  -1.7904   -1.97578 
 N                     4.49029  -2.63006  -1.56188 
 C                     4.70885  -2.41784  -0.21025 
 C                     5.55362  -3.07146   0.68632 
 C                     5.55893  -2.62513   1.98472 
 C                     4.73521  -1.55009   2.38839 
 C                     3.89768  -0.90317   1.51202 
 C                     3.90258  -1.36031   0.19153 
 N                    -0.14719   0.47833  -0.90135 
 C                     0.04158   1.77422  -1.55609 
 C                     0.58068   2.87187  -0.66772 
 C                     0.96177   4.15977  -1.21455 
 C                     1.41081   5.02972  -0.29805 
 S                     1.40434   4.32385   1.34379 
 C                     0.75613   2.80044   0.6633 
 C                    -1.49107   0.09245  -0.5614 
 C                    -2.30469   0.95421   0.16006 
 C                    -3.61878   0.60968   0.43252 
 C                    -4.14527  -0.60575   0.00657 
 C                    -3.31684  -1.46479  -0.71471 
 C                    -2.00913  -1.11942  -1.00088 
 C                    -5.52826  -0.99418   0.2973 
 C                    -6.45201  -0.40512   1.10687 
 N                    -7.58599  -1.18443   1.01885 
 C                    -7.30984  -2.20988   0.16905 
 N                    -6.09211  -2.12598  -0.27799 
 H                     2.21791   0.16766  -2.24181 
 H                     2.58472   0.95844  -0.7251 
 H                     6.16651  -3.8873    0.36011 
 H                     6.19057  -3.09642   2.71154 
 H                     4.76271  -1.23673   3.41403 
 H                     3.26346  -0.10209   1.83345 
 H                     0.68992   1.66675  -2.41785 
 H                    -0.92153   2.07203  -1.94619 
 H                     0.89083   4.39514  -2.25786 
 H                     1.74946   6.03008  -0.44637 
 H                     0.54699   1.979     1.31109 
 H                    -1.92223   1.8929    0.50816 
 H                    -4.22937   1.30169   0.97995 
 H                    -3.71114  -2.40069  -1.05265 
 H                    -1.38702  -1.79823  -1.54634 
 H                    -6.4082    0.45954   1.72556 
 H                    -8.01488  -2.96727  -0.08075 
 H                    -8.44042  -1.02827   1.49289 
 
 NAtoms=     48 NQM=        0 NQMF=       0 NMMI=     48 NMMIF=      0
                NMic=       0 NMicF=      0.
                    Isotopes and Nuclear Properties:
 (Nuclear quadrupole moments (NQMom) in fm**2, nuclear magnetic moments (NMagM)
  in nuclear magnetons)

  Atom         1           2           3           4           5           6           7           8           9          10
 IAtWgt=          16          12          12          14          14          14          12          12          12          12
 AtmWgt=  15.9949146  12.0000000  12.0000000  14.0030740  14.0030740  14.0030740  12.0000000  12.0000000  12.0000000  12.0000000
 NucSpn=           0           0           0           2           2           2           0           0           0           0
 AtZEff=   0.0000000   0.0000000   0.0000000   0.0000000   0.0000000   0.0000000   0.0000000   0.0000000   0.0000000   0.0000000
 NQMom=    0.0000000   0.0000000   0.0000000   2.0440000   2.0440000   2.0440000   0.0000000   0.0000000   0.0000000   0.0000000
 NMagM=    0.0000000   0.0000000   0.0000000   0.4037610   0.4037610   0.4037610   0.0000000   0.0000000   0.0000000   0.0000000

  Atom        11          12          13          14          15          16          17          18          19          20
 IAtWgt=          12          12          14          12          12          12          12          32          12          12
 AtmWgt=  12.0000000  12.0000000  14.0030740  12.0000000  12.0000000  12.0000000  12.0000000  31.9720718  12.0000000  12.0000000
 NucSpn=           0           0           2           0           0           0           0           0           0           0
 AtZEff=   0.0000000   0.0000000   0.0000000   0.0000000   0.0000000   0.0000000   0.0000000   0.0000000   0.0000000   0.0000000
 NQMom=    0.0000000   0.0000000   2.0440000   0.0000000   0.0000000   0.0000000   0.0000000   0.0000000   0.0000000   0.0000000
 NMagM=    0.0000000   0.0000000   0.4037610   0.0000000   0.0000000   0.0000000   0.0000000   0.0000000   0.0000000   0.0000000

  Atom        21          22          23          24          25          26          27          28          29          30
 IAtWgt=          12          12          12          12          12          12          12          14          12          14
 AtmWgt=  12.0000000  12.0000000  12.0000000  12.0000000  12.0000000  12.0000000  12.0000000  14.0030740  12.0000000  14.0030740
 NucSpn=           0           0           0           0           0           0           0           2           0           2
 AtZEff=   0.0000000   0.0000000   0.0000000   0.0000000   0.0000000   0.0000000   0.0000000   0.0000000   0.0000000   0.0000000
 NQMom=    0.0000000   0.0000000   0.0000000   0.0000000   0.0000000   0.0000000   0.0000000   2.0440000   0.0000000   2.0440000
 NMagM=    0.0000000   0.0000000   0.0000000   0.0000000   0.0000000   0.0000000   0.0000000   0.4037610   0.0000000   0.4037610

  Atom        31          32          33          34          35          36          37          38          39          40
 IAtWgt=           1           1           1           1           1           1           1           1           1           1
 AtmWgt=   1.0078250   1.0078250   1.0078250   1.0078250   1.0078250   1.0078250   1.0078250   1.0078250   1.0078250   1.0078250
 NucSpn=           1           1           1           1           1           1           1           1           1           1
 AtZEff=   0.0000000   0.0000000   0.0000000   0.0000000   0.0000000   0.0000000   0.0000000   0.0000000   0.0000000   0.0000000
 NQMom=    0.0000000   0.0000000   0.0000000   0.0000000   0.0000000   0.0000000   0.0000000   0.0000000   0.0000000   0.0000000
 NMagM=    2.7928460   2.7928460   2.7928460   2.7928460   2.7928460   2.7928460   2.7928460   2.7928460   2.7928460   2.7928460

  Atom        41          42          43          44          45          46          47          48
 IAtWgt=           1           1           1           1           1           1           1           1
 AtmWgt=   1.0078250   1.0078250   1.0078250   1.0078250   1.0078250   1.0078250   1.0078250   1.0078250
 NucSpn=           1           1           1           1           1           1           1           1
 AtZEff=   0.0000000   0.0000000   0.0000000   0.0000000   0.0000000   0.0000000   0.0000000   0.0000000
 NQMom=    0.0000000   0.0000000   0.0000000   0.0000000   0.0000000   0.0000000   0.0000000   0.0000000
 NMagM=    2.7928460   2.7928460   2.7928460   2.7928460   2.7928460   2.7928460   2.7928460   2.7928460
 Leave Link  101 at Sun Sep  4 00:55:25 2022, MaxMem=  209715200 cpu:       0.9
 (Enter /opt/gaussian/l103.exe)

 GradGradGradGradGradGradGradGradGradGradGradGradGradGradGradGradGradGrad
 Berny optimization.
 Initialization pass.
                           ----------------------------
                           !    Initial Parameters    !
                           ! (Angstroms and Degrees)  !
 --------------------------                            --------------------------
 ! Name  Definition              Value          Derivative Info.                !
 --------------------------------------------------------------------------------
 ! R1    R(1,2)                  1.2212         estimate D2E/DX2                !
 ! R2    R(2,3)                  1.5244         estimate D2E/DX2                !
 ! R3    R(2,13)                 1.3713         estimate D2E/DX2                !
 ! R4    R(3,4)                  1.431          estimate D2E/DX2                !
 ! R5    R(3,31)                 1.0796         estimate D2E/DX2                !
 ! R6    R(3,32)                 1.0814         estimate D2E/DX2                !
 ! R7    R(4,5)                  1.3633         estimate D2E/DX2                !
 ! R8    R(4,12)                 1.3625         estimate D2E/DX2                !
 ! R9    R(5,6)                  1.268          estimate D2E/DX2                !
 ! R10   R(6,7)                  1.3855         estimate D2E/DX2                !
 ! R11   R(7,8)                  1.3945         estimate D2E/DX2                !
 ! R12   R(7,12)                 1.3892         estimate D2E/DX2                !
 ! R13   R(8,9)                  1.373          estimate D2E/DX2                !
 ! R14   R(8,33)                 1.0713         estimate D2E/DX2                !
 ! R15   R(9,10)                 1.4132         estimate D2E/DX2                !
 ! R16   R(9,34)                 1.0721         estimate D2E/DX2                !
 ! R17   R(10,11)                1.374          estimate D2E/DX2                !
 ! R18   R(10,35)                1.0728         estimate D2E/DX2                !
 ! R19   R(11,12)                1.3974         estimate D2E/DX2                !
 ! R20   R(11,36)                1.0711         estimate D2E/DX2                !
 ! R21   R(13,14)                1.4641         estimate D2E/DX2                !
 ! R22   R(13,20)                1.4389         estimate D2E/DX2                !
 ! R23   R(14,15)                1.5115         estimate D2E/DX2                !
 ! R24   R(14,37)                1.0838         estimate D2E/DX2                !
 ! R25   R(14,38)                1.0809         estimate D2E/DX2                !
 ! R26   R(15,16)                1.4502         estimate D2E/DX2                !
 ! R27   R(15,19)                1.3444         estimate D2E/DX2                !
 ! R28   R(16,17)                1.3411         estimate D2E/DX2                !
 ! R29   R(16,39)                1.0719         estimate D2E/DX2                !
 ! R30   R(17,18)                1.7872         estimate D2E/DX2                !
 ! R31   R(17,40)                1.0665         estimate D2E/DX2                !
 ! R32   R(18,19)                1.79           estimate D2E/DX2                !
 ! R33   R(19,41)                1.0668         estimate D2E/DX2                !
 ! R34   R(20,21)                1.3875         estimate D2E/DX2                !
 ! R35   R(20,25)                1.3893         estimate D2E/DX2                !
 ! R36   R(21,22)                1.3856         estimate D2E/DX2                !
 ! R37   R(21,42)                1.0717         estimate D2E/DX2                !
 ! R38   R(22,23)                1.3914         estimate D2E/DX2                !
 ! R39   R(22,43)                1.073          estimate D2E/DX2                !
 ! R40   R(23,24)                1.3945         estimate D2E/DX2                !
 ! R41   R(23,26)                1.4656         estimate D2E/DX2                !
 ! R42   R(24,25)                1.3825         estimate D2E/DX2                !
 ! R43   R(24,44)                1.0703         estimate D2E/DX2                !
 ! R44   R(25,45)                1.0702         estimate D2E/DX2                !
 ! R45   R(26,27)                1.3622         estimate D2E/DX2                !
 ! R46   R(26,30)                1.3892         estimate D2E/DX2                !
 ! R47   R(27,28)                1.3788         estimate D2E/DX2                !
 ! R48   R(27,46)                1.0641         estimate D2E/DX2                !
 ! R49   R(28,29)                1.3601         estimate D2E/DX2                !
 ! R50   R(28,48)                0.9895         estimate D2E/DX2                !
 ! R51   R(29,30)                1.2999         estimate D2E/DX2                !
 ! R52   R(29,47)                1.0645         estimate D2E/DX2                !
 ! A1    A(1,2,3)              120.3034         estimate D2E/DX2                !
 ! A2    A(1,2,13)             122.7548         estimate D2E/DX2                !
 ! A3    A(3,2,13)             116.9417         estimate D2E/DX2                !
 ! A4    A(2,3,4)              112.2703         estimate D2E/DX2                !
 ! A5    A(2,3,31)             110.0462         estimate D2E/DX2                !
 ! A6    A(2,3,32)             110.189          estimate D2E/DX2                !
 ! A7    A(4,3,31)             106.2506         estimate D2E/DX2                !
 ! A8    A(4,3,32)             109.8352         estimate D2E/DX2                !
 ! A9    A(31,3,32)            108.0979         estimate D2E/DX2                !
 ! A10   A(3,4,5)              119.4302         estimate D2E/DX2                !
 ! A11   A(3,4,12)             131.0486         estimate D2E/DX2                !
 ! A12   A(5,4,12)             109.4753         estimate D2E/DX2                !
 ! A13   A(4,5,6)              109.5247         estimate D2E/DX2                !
 ! A14   A(5,6,7)              108.869          estimate D2E/DX2                !
 ! A15   A(6,7,8)              130.6138         estimate D2E/DX2                !
 ! A16   A(6,7,12)             107.8898         estimate D2E/DX2                !
 ! A17   A(8,7,12)             121.4963         estimate D2E/DX2                !
 ! A18   A(7,8,9)              117.2564         estimate D2E/DX2                !
 ! A19   A(7,8,33)             120.5136         estimate D2E/DX2                !
 ! A20   A(9,8,33)             122.2299         estimate D2E/DX2                !
 ! A21   A(8,9,10)             121.0081         estimate D2E/DX2                !
 ! A22   A(8,9,34)             120.033          estimate D2E/DX2                !
 ! A23   A(10,9,34)            118.9581         estimate D2E/DX2                !
 ! A24   A(9,10,11)            122.09           estimate D2E/DX2                !
 ! A25   A(9,10,35)            118.7078         estimate D2E/DX2                !
 ! A26   A(11,10,35)           119.2008         estimate D2E/DX2                !
 ! A27   A(10,11,12)           116.5224         estimate D2E/DX2                !
 ! A28   A(10,11,36)           121.4422         estimate D2E/DX2                !
 ! A29   A(12,11,36)           122.0269         estimate D2E/DX2                !
 ! A30   A(4,12,7)             104.2336         estimate D2E/DX2                !
 ! A31   A(4,12,11)            134.1363         estimate D2E/DX2                !
 ! A32   A(7,12,11)            121.626          estimate D2E/DX2                !
 ! A33   A(2,13,14)            122.4947         estimate D2E/DX2                !
 ! A34   A(2,13,20)            119.8806         estimate D2E/DX2                !
 ! A35   A(14,13,20)           117.6084         estimate D2E/DX2                !
 ! A36   A(13,14,15)           115.2081         estimate D2E/DX2                !
 ! A37   A(13,14,37)           110.1787         estimate D2E/DX2                !
 ! A38   A(13,14,38)           106.8796         estimate D2E/DX2                !
 ! A39   A(15,14,37)           109.0255         estimate D2E/DX2                !
 ! A40   A(15,14,38)           109.2576         estimate D2E/DX2                !
 ! A41   A(37,14,38)           105.8653         estimate D2E/DX2                !
 ! A42   A(14,15,16)           121.1343         estimate D2E/DX2                !
 ! A43   A(14,15,19)           126.1453         estimate D2E/DX2                !
 ! A44   A(16,15,19)           112.7191         estimate D2E/DX2                !
 ! A45   A(15,16,17)           113.9797         estimate D2E/DX2                !
 ! A46   A(15,16,39)           123.0014         estimate D2E/DX2                !
 ! A47   A(17,16,39)           123.0189         estimate D2E/DX2                !
 ! A48   A(16,17,18)           111.7414         estimate D2E/DX2                !
 ! A49   A(16,17,40)           128.2987         estimate D2E/DX2                !
 ! A50   A(18,17,40)           119.9597         estimate D2E/DX2                !
 ! A51   A(17,18,19)            89.3242         estimate D2E/DX2                !
 ! A52   A(15,19,18)           112.2355         estimate D2E/DX2                !
 ! A53   A(15,19,41)           128.0592         estimate D2E/DX2                !
 ! A54   A(18,19,41)           119.7003         estimate D2E/DX2                !
 ! A55   A(13,20,21)           120.262          estimate D2E/DX2                !
 ! A56   A(13,20,25)           120.4944         estimate D2E/DX2                !
 ! A57   A(21,20,25)           119.1826         estimate D2E/DX2                !
 ! A58   A(20,21,22)           120.2625         estimate D2E/DX2                !
 ! A59   A(20,21,42)           120.2401         estimate D2E/DX2                !
 ! A60   A(22,21,42)           119.4971         estimate D2E/DX2                !
 ! A61   A(21,22,23)           121.0574         estimate D2E/DX2                !
 ! A62   A(21,22,43)           118.6622         estimate D2E/DX2                !
 ! A63   A(23,22,43)           120.2802         estimate D2E/DX2                !
 ! A64   A(22,23,24)           118.1442         estimate D2E/DX2                !
 ! A65   A(22,23,26)           121.8603         estimate D2E/DX2                !
 ! A66   A(24,23,26)           119.9954         estimate D2E/DX2                !
 ! A67   A(23,24,25)           121.0059         estimate D2E/DX2                !
 ! A68   A(23,24,44)           118.89           estimate D2E/DX2                !
 ! A69   A(25,24,44)           120.1029         estimate D2E/DX2                !
 ! A70   A(20,25,24)           120.3417         estimate D2E/DX2                !
 ! A71   A(20,25,45)           119.8507         estimate D2E/DX2                !
 ! A72   A(24,25,45)           119.7955         estimate D2E/DX2                !
 ! A73   A(23,26,27)           130.0278         estimate D2E/DX2                !
 ! A74   A(23,26,30)           121.116          estimate D2E/DX2                !
 ! A75   A(27,26,30)           108.8549         estimate D2E/DX2                !
 ! A76   A(26,27,28)           105.9838         estimate D2E/DX2                !
 ! A77   A(26,27,46)           131.9884         estimate D2E/DX2                !
 ! A78   A(28,27,46)           122.0231         estimate D2E/DX2                !
 ! A79   A(27,28,29)           107.4001         estimate D2E/DX2                !
 ! A80   A(27,28,48)           126.1851         estimate D2E/DX2                !
 ! A81   A(29,28,48)           126.4134         estimate D2E/DX2                !
 ! A82   A(28,29,30)           110.8794         estimate D2E/DX2                !
 ! A83   A(28,29,47)           123.2693         estimate D2E/DX2                !
 ! A84   A(30,29,47)           125.8512         estimate D2E/DX2                !
 ! A85   A(26,30,29)           106.8815         estimate D2E/DX2                !
 ! D1    D(1,2,3,4)              5.3178         estimate D2E/DX2                !
 ! D2    D(1,2,3,31)           123.4382         estimate D2E/DX2                !
 ! D3    D(1,2,3,32)          -117.4514         estimate D2E/DX2                !
 ! D4    D(13,2,3,4)          -174.711          estimate D2E/DX2                !
 ! D5    D(13,2,3,31)          -56.5906         estimate D2E/DX2                !
 ! D6    D(13,2,3,32)           62.5197         estimate D2E/DX2                !
 ! D7    D(1,2,13,14)          174.3339         estimate D2E/DX2                !
 ! D8    D(1,2,13,20)           -7.1695         estimate D2E/DX2                !
 ! D9    D(3,2,13,14)           -5.6364         estimate D2E/DX2                !
 ! D10   D(3,2,13,20)          172.8602         estimate D2E/DX2                !
 ! D11   D(2,3,4,5)            102.6912         estimate D2E/DX2                !
 ! D12   D(2,3,4,12)           -74.5613         estimate D2E/DX2                !
 ! D13   D(31,3,4,5)           -17.6529         estimate D2E/DX2                !
 ! D14   D(31,3,4,12)          165.0946         estimate D2E/DX2                !
 ! D15   D(32,3,4,5)          -134.34           estimate D2E/DX2                !
 ! D16   D(32,3,4,12)           48.4075         estimate D2E/DX2                !
 ! D17   D(3,4,5,6)           -178.6356         estimate D2E/DX2                !
 ! D18   D(12,4,5,6)            -0.833          estimate D2E/DX2                !
 ! D19   D(3,4,12,7)           178.3373         estimate D2E/DX2                !
 ! D20   D(3,4,12,11)           -2.4261         estimate D2E/DX2                !
 ! D21   D(5,4,12,7)             0.8753         estimate D2E/DX2                !
 ! D22   D(5,4,12,11)         -179.888          estimate D2E/DX2                !
 ! D23   D(4,5,6,7)              0.4071         estimate D2E/DX2                !
 ! D24   D(5,6,7,8)           -179.6984         estimate D2E/DX2                !
 ! D25   D(5,6,7,12)             0.1497         estimate D2E/DX2                !
 ! D26   D(6,7,8,9)            179.6924         estimate D2E/DX2                !
 ! D27   D(6,7,8,33)            -0.3604         estimate D2E/DX2                !
 ! D28   D(12,7,8,9)            -0.1381         estimate D2E/DX2                !
 ! D29   D(12,7,8,33)          179.8091         estimate D2E/DX2                !
 ! D30   D(6,7,12,4)            -0.6281         estimate D2E/DX2                !
 ! D31   D(6,7,12,11)         -179.9847         estimate D2E/DX2                !
 ! D32   D(8,7,12,4)           179.2367         estimate D2E/DX2                !
 ! D33   D(8,7,12,11)           -0.1199         estimate D2E/DX2                !
 ! D34   D(7,8,9,10)             0.2292         estimate D2E/DX2                !
 ! D35   D(7,8,9,34)           179.9112         estimate D2E/DX2                !
 ! D36   D(33,8,9,10)         -179.717          estimate D2E/DX2                !
 ! D37   D(33,8,9,34)           -0.035          estimate D2E/DX2                !
 ! D38   D(8,9,10,11)           -0.0689         estimate D2E/DX2                !
 ! D39   D(8,9,10,35)          179.4989         estimate D2E/DX2                !
 ! D40   D(34,9,10,11)        -179.7542         estimate D2E/DX2                !
 ! D41   D(34,9,10,35)          -0.1864         estimate D2E/DX2                !
 ! D42   D(9,10,11,12)          -0.1843         estimate D2E/DX2                !
 ! D43   D(9,10,11,36)         178.7748         estimate D2E/DX2                !
 ! D44   D(35,10,11,12)       -179.75           estimate D2E/DX2                !
 ! D45   D(35,10,11,36)         -0.7909         estimate D2E/DX2                !
 ! D46   D(10,11,12,4)        -178.8549         estimate D2E/DX2                !
 ! D47   D(10,11,12,7)           0.2761         estimate D2E/DX2                !
 ! D48   D(36,11,12,4)           2.1925         estimate D2E/DX2                !
 ! D49   D(36,11,12,7)        -178.6765         estimate D2E/DX2                !
 ! D50   D(2,13,14,15)         -77.6433         estimate D2E/DX2                !
 ! D51   D(2,13,14,37)          46.1958         estimate D2E/DX2                !
 ! D52   D(2,13,14,38)         160.7705         estimate D2E/DX2                !
 ! D53   D(20,13,14,15)        103.8278         estimate D2E/DX2                !
 ! D54   D(20,13,14,37)       -132.3332         estimate D2E/DX2                !
 ! D55   D(20,13,14,38)        -17.7584         estimate D2E/DX2                !
 ! D56   D(2,13,20,21)         129.8049         estimate D2E/DX2                !
 ! D57   D(2,13,20,25)         -53.0593         estimate D2E/DX2                !
 ! D58   D(14,13,20,21)        -51.6261         estimate D2E/DX2                !
 ! D59   D(14,13,20,25)        125.5097         estimate D2E/DX2                !
 ! D60   D(13,14,15,16)        172.8174         estimate D2E/DX2                !
 ! D61   D(13,14,15,19)         -7.6349         estimate D2E/DX2                !
 ! D62   D(37,14,15,16)         48.3727         estimate D2E/DX2                !
 ! D63   D(37,14,15,19)       -132.0796         estimate D2E/DX2                !
 ! D64   D(38,14,15,16)        -66.8908         estimate D2E/DX2                !
 ! D65   D(38,14,15,19)        112.6569         estimate D2E/DX2                !
 ! D66   D(14,15,16,17)        179.4854         estimate D2E/DX2                !
 ! D67   D(14,15,16,39)         -0.5144         estimate D2E/DX2                !
 ! D68   D(19,15,16,17)         -0.1187         estimate D2E/DX2                !
 ! D69   D(19,15,16,39)        179.8815         estimate D2E/DX2                !
 ! D70   D(14,15,19,18)       -179.478          estimate D2E/DX2                !
 ! D71   D(14,15,19,41)         -0.2963         estimate D2E/DX2                !
 ! D72   D(16,15,19,18)          0.1024         estimate D2E/DX2                !
 ! D73   D(16,15,19,41)        179.284          estimate D2E/DX2                !
 ! D74   D(15,16,17,18)          0.0769         estimate D2E/DX2                !
 ! D75   D(15,16,17,40)        179.9075         estimate D2E/DX2                !
 ! D76   D(39,16,17,18)       -179.9233         estimate D2E/DX2                !
 ! D77   D(39,16,17,40)         -0.0928         estimate D2E/DX2                !
 ! D78   D(16,17,18,19)         -0.0168         estimate D2E/DX2                !
 ! D79   D(40,17,18,19)       -179.8633         estimate D2E/DX2                !
 ! D80   D(17,18,19,15)         -0.0511         estimate D2E/DX2                !
 ! D81   D(17,18,19,41)       -179.3093         estimate D2E/DX2                !
 ! D82   D(13,20,21,22)        176.9172         estimate D2E/DX2                !
 ! D83   D(13,20,21,42)         -2.8888         estimate D2E/DX2                !
 ! D84   D(25,20,21,22)         -0.256          estimate D2E/DX2                !
 ! D85   D(25,20,21,42)        179.938          estimate D2E/DX2                !
 ! D86   D(13,20,25,24)       -177.5778         estimate D2E/DX2                !
 ! D87   D(13,20,25,45)          3.6919         estimate D2E/DX2                !
 ! D88   D(21,20,25,24)         -0.4113         estimate D2E/DX2                !
 ! D89   D(21,20,25,45)       -179.1416         estimate D2E/DX2                !
 ! D90   D(20,21,22,23)          0.7708         estimate D2E/DX2                !
 ! D91   D(20,21,22,43)       -179.105          estimate D2E/DX2                !
 ! D92   D(42,21,22,23)       -179.4218         estimate D2E/DX2                !
 ! D93   D(42,21,22,43)          0.7024         estimate D2E/DX2                !
 ! D94   D(21,22,23,24)         -0.5984         estimate D2E/DX2                !
 ! D95   D(21,22,23,26)        179.3364         estimate D2E/DX2                !
 ! D96   D(43,22,23,24)        179.2755         estimate D2E/DX2                !
 ! D97   D(43,22,23,26)         -0.7897         estimate D2E/DX2                !
 ! D98   D(22,23,24,25)         -0.0756         estimate D2E/DX2                !
 ! D99   D(22,23,24,44)       -179.6837         estimate D2E/DX2                !
 ! D100  D(26,23,24,25)        179.9884         estimate D2E/DX2                !
 ! D101  D(26,23,24,44)          0.3802         estimate D2E/DX2                !
 ! D102  D(22,23,26,27)         -8.8786         estimate D2E/DX2                !
 ! D103  D(22,23,26,30)        171.5712         estimate D2E/DX2                !
 ! D104  D(24,23,26,27)        171.055          estimate D2E/DX2                !
 ! D105  D(24,23,26,30)         -8.4952         estimate D2E/DX2                !
 ! D106  D(23,24,25,20)          0.5809         estimate D2E/DX2                !
 ! D107  D(23,24,25,45)        179.3119         estimate D2E/DX2                !
 ! D108  D(44,24,25,20)       -179.8157         estimate D2E/DX2                !
 ! D109  D(44,24,25,45)         -1.0847         estimate D2E/DX2                !
 ! D110  D(23,26,27,28)       -179.741          estimate D2E/DX2                !
 ! D111  D(23,26,27,46)         -0.5409         estimate D2E/DX2                !
 ! D112  D(30,26,27,28)         -0.1479         estimate D2E/DX2                !
 ! D113  D(30,26,27,46)        179.0522         estimate D2E/DX2                !
 ! D114  D(23,26,30,29)        179.7482         estimate D2E/DX2                !
 ! D115  D(27,26,30,29)          0.1122         estimate D2E/DX2                !
 ! D116  D(26,27,28,29)          0.1289         estimate D2E/DX2                !
 ! D117  D(26,27,28,48)        179.7185         estimate D2E/DX2                !
 ! D118  D(46,27,28,29)       -179.1699         estimate D2E/DX2                !
 ! D119  D(46,27,28,48)          0.4197         estimate D2E/DX2                !
 ! D120  D(27,28,29,30)         -0.0631         estimate D2E/DX2                !
 ! D121  D(27,28,29,47)        179.9728         estimate D2E/DX2                !
 ! D122  D(48,28,29,30)       -179.6515         estimate D2E/DX2                !
 ! D123  D(48,28,29,47)          0.3844         estimate D2E/DX2                !
 ! D124  D(28,29,30,26)         -0.029          estimate D2E/DX2                !
 ! D125  D(47,29,30,26)        179.934          estimate D2E/DX2                !
 --------------------------------------------------------------------------------
 Trust Radius=3.00D-01 FncErr=1.00D-07 GrdErr=1.00D-06
 Number of steps in this run=    272 maximum allowed number of steps=    288.
 GradGradGradGradGradGradGradGradGradGradGradGradGradGradGradGradGradGrad

 Leave Link  103 at Sun Sep  4 00:55:25 2022, MaxMem=  209715200 cpu:       0.1
 (Enter /opt/gaussian/l202.exe)
                          Input orientation:                          
 ---------------------------------------------------------------------
 Center     Atomic      Atomic             Coordinates (Angstroms)
 Number     Number       Type             X           Y           Z
 ---------------------------------------------------------------------
      1          8           0        0.759500   -1.406680   -0.002020
      2          6           0        0.895530   -0.372000   -0.636300
      3          6           0        2.265620    0.027040   -1.172510
      4          7           0        3.252460   -0.984020   -0.945210
      5          7           0        3.635070   -1.790400   -1.975780
      6          7           0        4.490290   -2.630060   -1.561880
      7          6           0        4.708850   -2.417840   -0.210250
      8          6           0        5.553620   -3.071460    0.686320
      9          6           0        5.558930   -2.625130    1.984720
     10          6           0        4.735210   -1.550090    2.388390
     11          6           0        3.897680   -0.903170    1.512020
     12          6           0        3.902580   -1.360310    0.191530
     13          7           0       -0.147190    0.478330   -0.901350
     14          6           0        0.041580    1.774220   -1.556090
     15          6           0        0.580680    2.871870   -0.667720
     16          6           0        0.961770    4.159770   -1.214550
     17          6           0        1.410810    5.029720   -0.298050
     18         16           0        1.404340    4.323850    1.343790
     19          6           0        0.756130    2.800440    0.663300
     20          6           0       -1.491070    0.092450   -0.561400
     21          6           0       -2.304690    0.954210    0.160060
     22          6           0       -3.618780    0.609680    0.432520
     23          6           0       -4.145270   -0.605750    0.006570
     24          6           0       -3.316840   -1.464790   -0.714710
     25          6           0       -2.009130   -1.119420   -1.000880
     26          6           0       -5.528260   -0.994180    0.297300
     27          6           0       -6.452010   -0.405120    1.106870
     28          7           0       -7.585990   -1.184430    1.018850
     29          6           0       -7.309840   -2.209880    0.169050
     30          7           0       -6.092110   -2.125980   -0.277990
     31          1           0        2.217910    0.167660   -2.241810
     32          1           0        2.584720    0.958440   -0.725100
     33          1           0        6.166510   -3.887300    0.360110
     34          1           0        6.190570   -3.096420    2.711540
     35          1           0        4.762710   -1.236730    3.414030
     36          1           0        3.263460   -0.102090    1.833450
     37          1           0        0.689920    1.666750   -2.417850
     38          1           0       -0.921530    2.072030   -1.946190
     39          1           0        0.890830    4.395140   -2.257860
     40          1           0        1.749460    6.030080   -0.446370
     41          1           0        0.546990    1.979000    1.311090
     42          1           0       -1.922230    1.892900    0.508160
     43          1           0       -4.229370    1.301690    0.979950
     44          1           0       -3.711140   -2.400690   -1.052650
     45          1           0       -1.387020   -1.798230   -1.546340
     46          1           0       -6.408200    0.459540    1.725560
     47          1           0       -8.014880   -2.967270   -0.080750
     48          1           0       -8.440420   -1.028270    1.492890
 ---------------------------------------------------------------------
                    Distance matrix (angstroms):
                    1          2          3          4          5
     1  O    0.000000
     2  C    1.221220   0.000000
     3  C    2.386210   1.524435   0.000000
     4  N    2.698722   2.454611   1.431000   0.000000
     5  N    3.508828   3.363205   2.413239   1.363346   0.000000
     6  N    4.224762   4.344863   3.487255   2.149873   1.267968
     7  C    4.082055   4.348378   3.587862   2.171883   2.159579
     8  C    5.121415   5.543844   4.885376   3.509221   3.522602
     9  C    5.335380   5.804622   5.277120   4.074007   4.481470
    10  C    4.641217   5.027901   4.611531   3.692136   4.507110
    11  C    3.520513   3.729655   3.276524   2.541815   3.608447
    12  C    3.149375   3.271759   2.542633   1.362508   2.225707
    13  N    2.276872   1.371342   2.469583   3.701082   4.539496
    14  C    3.612294   2.486263   2.854142   4.276776   5.078959
    15  C    4.333719   3.259265   3.344681   4.699287   5.725127
    16  C    5.700571   4.568993   4.333734   5.637232   6.567384
    17  C    6.476039   5.436773   5.149970   6.322623   7.367235
    18  S    5.921655   5.121587   5.053330   6.068653   7.306145
    19  C    4.259404   3.431147   3.652466   4.810520   6.027342
    20  C    2.761406   2.432526   3.806633   4.879260   5.641180
    21  C    3.871606   3.554494   4.850064   5.988345   6.882982
    22  C    4.839821   4.741842   6.127133   7.186930   8.011157
    23  C    4.969742   5.087002   6.549058   7.468292   8.115836
    24  C    4.138581   4.352516   5.796464   6.590901   7.072862
    25  C    2.957288   3.021358   4.429144   5.263626   5.766944
    26  C    6.308381   6.521027   7.996737   8.868200   9.474570
    27  C    7.364688   7.551562   9.021054   9.935940  10.638182
    28  N    8.410635   8.679617  10.164838  11.016791  11.629583
    29  C    8.111020   8.447159   9.924365  10.691421  11.160973
    30  N    6.894789   7.213317   8.676826   9.437703   9.879936
    31  H    3.101962   2.148856   1.079561   2.019364   2.431689
    32  H    3.073771   2.152050   1.081437   2.065787   3.197430
    33  H    5.959897   6.413532   5.734799   4.315621   4.032562
    34  H    6.301996   6.831394   6.344059   5.144565   5.496111
    35  H    5.265356   5.666393   5.372981   4.620356   5.534273
    36  H    3.367599   3.432143   3.169882   2.915283   4.183147
    37  H    3.909865   2.715271   2.592750   3.970121   4.563028
    38  H    4.325168   3.315238   3.865034   5.269117   5.973428
    39  H    6.226329   5.035385   4.706201   6.019610   6.772837
    40  H    7.515508   6.461571   6.068788   7.190650   8.188683
    41  H    3.637616   3.072622   3.596124   4.603254   5.877766
    42  H    4.282428   3.792009   4.883050   6.096423   7.114790
    43  H    5.760934   5.628330   6.960080   8.056581   8.952473
    44  H    4.698777   5.050776   6.452124   7.107054   7.429093
    45  H    2.673160   2.841186   4.100383   4.748586   5.040423
    46  H    7.605474   7.721031   9.155382  10.126462  10.937523
    47  H    8.912429   9.297283  10.763202  11.473165  11.861598
    48  H    9.328262   9.598130  11.083200  11.944444  12.586897
                    6          7          8          9         10
     6  N    0.000000
     7  C    1.385536   0.000000
     8  C    2.525848   1.394523   0.000000
     9  C    3.704104   2.362943   1.372983   0.000000
    10  C    4.102555   2.739820   2.425161   1.413214   0.000000
    11  C    3.575220   2.432784   2.850509   2.438923   1.374040
    12  C    2.243238   1.389197   2.428741   2.749326   2.357007
    13  N    5.621798   5.696187   6.900793   7.107789   6.226934
    14  C    6.260091   6.416234   7.674086   7.895110   6.974247
    15  C    6.808510   6.725481   7.866812   7.876257   6.793648
    16  C    7.659823   7.636372   8.774342   8.797959   7.734502
    17  C    8.351808   8.145608   9.152102   9.000815   7.846177
    18  S    8.143885   7.667151   8.505257   8.121560   6.832939
    19  C    6.955984   6.604357   7.582589   7.365450   6.142974
    20  C    6.647533   6.698050   7.822710   7.973109   7.082779
    21  C    7.872981   7.790866   8.845112   8.830491   7.797254
    22  C    8.957151   8.884169   9.886765   9.854120   8.847552
    23  C    9.007262   9.040250  10.030466  10.107545   9.242714
    24  C    7.938944   8.097807   9.123011   9.349471   8.629717
    25  C    6.696209   6.887833   7.990763   8.273844   7.560341
    26  C   10.320077  10.348084  11.281600  11.332836  10.489066
    27  C   11.480702  11.417121  12.305340  12.245887  11.318443
    28  N   12.433284  12.417531  13.278585  13.258863  12.402472
    29  C   11.933807  12.026472  12.902654  13.002859  12.265562
    30  N   10.671910  10.805115  11.723773  11.879215  11.165666
    31  H    3.667868   4.125146   5.494798   6.068414   5.543123
    32  H    4.148341   4.021973   5.200631   5.388044   4.539950
    33  H    2.843310   2.146950   1.071281   2.145130   3.409559
    34  H    4.622831   3.345567   2.123168   1.072078   2.147937
    35  H    5.174482   3.812260   3.381150   2.145821   1.072795
    36  H    4.407268   3.410067   3.921466   3.414351   2.137922
    37  H    5.799834   6.140779   7.466062   7.842838   7.057788
    38  H    7.179494   7.407672   8.678316   8.916935   7.994188
    39  H    7.924262   8.073827   9.282237   9.437946   8.468333
    40  H    9.151750   8.954390   9.929383   9.763960   8.626097
    41  H    6.711707   6.242416   7.138895   6.838957   5.581777
    42  H    8.115580   7.941651   8.975798   8.863441   7.727286
    43  H    9.897072   9.754140  10.719960  10.594352   9.512100
    44  H    8.220425   8.462043   9.450382   9.757571   9.159973
    45  H    5.935904   6.271259   7.401241   7.835711   7.281852
    46  H   11.795337  11.645406  12.515315  12.361009  11.342555
    47  H   12.597092  12.736245  13.590565  13.734320  13.064067
    48  H   13.382848  13.331725  14.165392  14.098711  13.216332
                   11         12         13         14         15
    11  C    0.000000
    12  C    1.397389   0.000000
    13  N    4.908551   4.579915   0.000000
    14  C    5.608139   5.271316   1.464121   0.000000
    15  C    5.477653   5.448365   2.512650   1.511511   0.000000
    16  C    6.456556   6.410671   3.857575   2.579583   1.450151
    17  C    6.682818   6.876125   4.848349   3.749098   2.341386
    18  S    5.793685   6.314949   4.715498   4.094757   2.613969
    19  C    4.930151   5.237801   2.942161   2.547430   1.344433
    20  C    5.859092   5.636389   1.438917   2.483299   3.468231
    21  C    6.614155   6.624817   2.451093   3.020359   3.562022
    22  C    7.742816   7.778804   3.721344   4.325385   4.895252
    23  C    8.188033   8.085262   4.240777   5.063188   5.906193
    24  C    7.571198   7.276827   3.722530   4.741107   5.830908
    25  C    6.422759   6.035577   2.455511   3.589822   4.769540
    26  C    9.504324   9.438537   5.706221   6.490163   7.293611
    27  C   10.369585  10.438763   6.675641   7.348986   7.959055
    28  N   11.497695  11.519663   7.860514   8.576931   9.273219
    29  C   11.363079  11.244583   7.725010   8.537713   9.422562
    30  N   10.222294  10.034965   6.520206   7.380193   8.346048
    31  H    4.249652   3.330758   2.736247   2.790638   3.531435
    32  H    3.192830   2.820207   2.779371   2.797070   2.771405
    33  H    3.921673   3.396981   7.778998   8.558002   8.828607
    34  H    3.392129   3.820920   8.123978   8.930055   8.860629
    35  H    2.115935   3.337604   6.758036   7.487121   7.143574
    36  H    1.071112   2.165062   4.410051   5.038852   4.722033
    37  H    5.686659   5.127684   2.100683   1.083755   2.127722
    38  H    6.635949   6.294668   2.056981   1.080949   2.128583
    39  H    7.164163   6.942287   4.273056   2.843049   2.223756
    40  H    7.517985   7.724034   5.884404   4.718122   3.374809
    41  H    4.424297   4.864606   2.762026   2.918578   2.171184
    42  H    6.534301   6.679225   2.671796   2.851625   2.933536
    43  H    8.437621   8.592814   4.569618   4.989569   5.321359
    44  H    8.167879   7.784543   4.584036   5.636154   6.809389
    45  H    6.171122   5.584965   2.671314   3.847518   5.143311
    46  H   10.397776  10.581932   6.789791   7.355085   7.771201
    47  H   12.194528  12.028396   8.628215   9.463874  10.407869
    48  H   12.338749  12.415854   8.762414   9.438991  10.062782
                   16         17         18         19         20
    16  C    0.000000
    17  C    1.341053   0.000000
    18  S    2.601518   1.787158   0.000000
    19  C    2.327313   2.514456   1.789978   0.000000
    20  C    4.794384   5.732966   5.469725   3.725991   0.000000
    21  C    4.778591   5.533949   5.149038   3.609769   1.387484
    22  C    6.024734   6.735522   6.313256   4.898217   2.404694
    23  C    7.091063   7.919681   7.542366   6.004760   2.802651
    24  C    7.084633   8.043814   7.748246   6.056417   2.404566
    25  C    6.061497   7.071201   6.839477   5.077545   1.389301
    26  C    8.424333   9.208285   8.799859   7.350283   4.268142
    27  C    9.010624   9.661016   9.172869   7.901244   5.257530
    28  N   10.325345  11.013278  10.548591   9.251841   6.424614
    29  C   10.531207  11.343709  10.954751   9.508284   6.300188
    30  N    9.494473  10.368136  10.021339   8.488465   5.115791
    31  H    4.309303   5.298041   5.549085   4.184256   4.072587
    32  H    3.622436   4.258610   4.123056   2.943528   4.169988
    33  H    9.712065  10.127344   9.543001   8.607555   8.679062
    34  H    9.767642   9.896357   8.935275   8.276556   8.938043
    35  H    8.061830   8.017678   6.817961   6.318065   7.528647
    36  H    5.722895   5.857566   4.825457   4.010067   5.327167
    37  H    2.781543   4.040149   4.660527   3.283766   3.268263
    38  H    2.905301   4.111460   4.615662   3.186622   2.482087
    39  H    1.071880   2.124600   3.638771   3.330824   5.202362
    40  H    2.169934   1.066491   2.496998   3.556494   6.765332
    41  H    3.362537   3.555617   2.496886   1.066834   3.349474
    42  H    4.052639   4.647448   4.204029   2.832192   2.138101
    43  H    6.319208   6.880634   6.403477   5.215528   3.366943
    44  H    8.056174   9.056202   8.782397   7.067725   3.374283
    45  H    6.412851   7.483781   7.322869   5.533838   2.134386
    46  H    8.755136   9.280003   8.724358   7.611559   5.435357
    47  H   11.517832  12.362957  11.996310  10.523816   7.221704
    48  H   11.074618  11.702711  11.206548   9.996188   7.332775
                   21         22         23         24         25
    21  C    0.000000
    22  C    1.385557   0.000000
    23  C    2.417596   1.391365   0.000000
    24  C    2.764278   2.389713   1.394450   0.000000
    25  C    2.394802   2.763222   2.417004   1.382490   0.000000
    26  C    3.769146   2.497352   1.465627   2.477098   3.753030
    27  C    4.465925   3.084114   2.563584   3.777611   4.969106
    28  N    5.762242   4.393332   3.632924   4.616219   5.931686
    29  C    5.921408   4.652232   3.551639   4.156951   5.536729
    30  N    4.901429   3.755798   2.486415   2.886177   4.266903
    31  H    5.180883   6.435400   6.792896   5.969119   4.589591
    32  H    4.968889   6.320216   6.948007   6.379699   5.049457
    33  H    9.759174  10.769400  10.827113   9.846711   8.738109
    34  H    9.751261  10.730911  10.970410  10.236809   9.215513
    35  H    8.083111   9.085593   9.558296   9.076213   8.084739
    36  H    5.909340   7.059352   7.647251   7.186823   6.071951
    37  H    4.015099   5.273225   5.866952   5.362961   4.129821
    38  H    2.756618   3.882253   4.623449   4.445576   3.501691
    39  H    5.281826   6.473363   7.449755   7.377302   6.356110
    40  H    6.524442   7.679270   8.887476   9.050551   8.096285
    41  H    3.241472   4.472199   5.513620   5.558124   4.634562
    42  H    1.071722   2.128534   3.381827   3.835939   3.370286
    43  H    2.120697   1.073023   2.143098   3.370162   3.836004
    44  H    3.834595   3.358063   2.128902   1.070320   2.131002
    45  H    3.365984   3.833363   3.382526   2.127674   1.070201
    46  H    4.419761   3.078207   3.034901   4.383431   5.410952
    47  H    6.931253   5.690669   4.534124   4.973020   6.350608
    48  H    6.584364   5.201488   4.564645   5.595991   6.898455
                   26         27         28         29         30
    26  C    0.000000
    27  C    1.362244   0.000000
    28  N    2.188854   1.378761   0.000000
    29  C    2.160648   2.207382   1.360135   0.000000
    30  N    1.389193   2.238018   2.190887   1.299904   0.000000
    31  H    8.234082   9.311780  10.420005  10.111526   8.841595
    32  H    8.407049   9.320831  10.539288  10.427851   9.219595
    33  H   12.047478  13.111456  14.031062  13.581688  12.400935
    34  H   12.148207  13.025087  14.011228  13.766310  12.678457
    35  H   10.755320  11.479743  12.578951  12.538875  11.499952
    36  H    8.969388   9.747313  10.933691  10.909064   9.802092
    37  H    7.288234   8.229426   9.403766   9.258319   8.059760
    38  H    5.971336   6.785548   7.988180   7.976183   6.865936
    39  H    8.762324   9.395808  10.664188  10.805886   9.757374
    40  H   10.141917  10.539851  11.888930  12.261590  11.315471
    41  H    6.839315   7.396738   8.731441   8.976678   7.965782
    42  H    4.624191   5.114514   6.465983   6.780423   5.844427
    43  H    2.724728   2.805252   4.177224   4.741095   4.098919
    44  H    2.665063   4.019726   4.559042   3.805207   2.518845
    45  H    4.603843   5.885100   6.736778   6.179953   4.884056
    46  H    2.219802   1.064112   2.142257   3.218925   3.286189
    47  H    3.196762   3.227633   2.138127   1.064482   2.108013
    48  H    3.148218   2.119222   0.989520   2.104036   3.139354
                   31         32         33         34         35
    31  H    0.000000
    32  H    1.749369   0.000000
    33  H    6.229296   6.122752   0.000000
    34  H    7.139462   6.422970   2.480986   0.000000
    35  H    6.358997   5.166702   4.280491   2.447595   0.000000
    36  H    4.215885   2.851594   4.992619   4.278437   2.456296
    37  H    2.147793   2.637683   8.279950   8.902560   7.683010
    38  H    3.683762   3.876201   9.543215   9.949336   8.484718
    39  H    4.430913   4.126684  10.162941  10.435787   8.881427
    40  H    6.149066   5.147512  10.886467  10.629622   8.762927
    41  H    4.323890   3.056134   8.179049   7.718234   5.703996
    42  H    5.261136   4.765159   9.942854   9.775772   7.932660
    43  H    7.296107   7.032556  11.635469  11.441893   9.655352
    44  H    6.569943   7.143451  10.088304  10.615886   9.649465
    45  H    4.164604   4.903915   8.065642   8.788328   7.920842
    46  H    9.499210   9.334198  13.374708  13.128062  11.424425
    47  H   10.918240  11.321568  14.218039  14.477858  13.359456
    48  H   11.356858  11.420167  14.927145  14.826605  13.343795
                   36         37         38         39         40
    36  H    0.000000
    37  H    5.274984   0.000000
    38  H    6.043725   1.727277   0.000000
    39  H    6.526352   2.740451   2.962875   0.000000
    40  H    6.715153   4.903877   5.004978   2.586846   0.000000
    41  H    3.461648   3.744719   3.574224   4.323582   4.576664
    42  H    5.712071   3.928868   2.656562   4.671764   5.613260
    43  H    7.670825   5.989802   4.483026   6.802154   7.754900
    44  H    7.890385   6.146313   5.346547   8.295418  10.062982
    45  H    5.993900   4.132710   3.918606   6.637220   8.504697
    46  H    9.688554   8.307136   6.795986   9.199588  10.114129
    47  H   11.792980  10.134580   8.898878  11.758255  13.282632
    48  H   11.745408  10.291751   8.830223  11.426011  12.546501
                   41         42         43         44         45
    41  H    0.000000
    42  H    2.597914   0.000000
    43  H    4.835496   2.427964   0.000000
    44  H    6.549857   4.906245   4.255308   0.000000
    45  H    5.115933   4.258152   4.906180   2.451167   0.000000
    46  H    7.131284   4.864207   2.452030   4.813886   6.404304
    47  H    9.985411   7.815910   5.803377   4.448346   6.887898
    48  H    9.478938   7.210390   4.839914   5.543410   7.718822
                   46         47         48
    46  H    0.000000
    47  H    4.193710   0.000000
    48  H    2.529354   2.533209   0.000000
 Stoichiometry    C22H18N6OS
 Framework group  C1[X(C22H18N6OS)]
 Deg. of freedom   138
 Full point group                 C1      NOp   1
 Largest Abelian subgroup         C1      NOp   1
 Largest concise Abelian subgroup C1      NOp   1
                         Standard orientation:                         
 ---------------------------------------------------------------------
 Center     Atomic      Atomic             Coordinates (Angstroms)
 Number     Number       Type             X           Y           Z
 ---------------------------------------------------------------------
      1          8           0        0.759500   -1.406680   -0.002020
      2          6           0        0.895530   -0.372000   -0.636300
      3          6           0        2.265620    0.027040   -1.172510
      4          7           0        3.252460   -0.984021   -0.945210
      5          7           0        3.635070   -1.790401   -1.975780
      6          7           0        4.490289   -2.630061   -1.561880
      7          6           0        4.708849   -2.417841   -0.210250
      8          6           0        5.553619   -3.071461    0.686320
      9          6           0        5.558929   -2.625131    1.984720
     10          6           0        4.735210   -1.550091    2.388390
     11          6           0        3.897680   -0.903171    1.512020
     12          6           0        3.902580   -1.360311    0.191530
     13          7           0       -0.147190    0.478330   -0.901350
     14          6           0        0.041580    1.774220   -1.556090
     15          6           0        0.580680    2.871870   -0.667720
     16          6           0        0.961770    4.159770   -1.214550
     17          6           0        1.410810    5.029720   -0.298050
     18         16           0        1.404340    4.323850    1.343790
     19          6           0        0.756130    2.800440    0.663300
     20          6           0       -1.491070    0.092450   -0.561400
     21          6           0       -2.304690    0.954210    0.160060
     22          6           0       -3.618780    0.609680    0.432520
     23          6           0       -4.145270   -0.605750    0.006570
     24          6           0       -3.316840   -1.464790   -0.714710
     25          6           0       -2.009130   -1.119420   -1.000880
     26          6           0       -5.528260   -0.994179    0.297300
     27          6           0       -6.452010   -0.405119    1.106870
     28          7           0       -7.585990   -1.184429    1.018850
     29          6           0       -7.309840   -2.209879    0.169050
     30          7           0       -6.092110   -2.125979   -0.277990
     31          1           0        2.217910    0.167660   -2.241810
     32          1           0        2.584720    0.958440   -0.725100
     33          1           0        6.166509   -3.887301    0.360110
     34          1           0        6.190569   -3.096421    2.711540
     35          1           0        4.762710   -1.236731    3.414030
     36          1           0        3.263460   -0.102091    1.833450
     37          1           0        0.689920    1.666750   -2.417850
     38          1           0       -0.921530    2.072030   -1.946190
     39          1           0        0.890830    4.395140   -2.257860
     40          1           0        1.749461    6.030080   -0.446370
     41          1           0        0.546990    1.979000    1.311090
     42          1           0       -1.922230    1.892900    0.508160
     43          1           0       -4.229370    1.301690    0.979950
     44          1           0       -3.711141   -2.400690   -1.052650
     45          1           0       -1.387020   -1.798230   -1.546340
     46          1           0       -6.408200    0.459541    1.725560
     47          1           0       -8.014881   -2.967269   -0.080750
     48          1           0       -8.440420   -1.028269    1.492890
 ---------------------------------------------------------------------
 Rotational constants (GHZ):      0.1868364      0.0746754      0.0598021
 Leave Link  202 at Sun Sep  4 00:55:25 2022, MaxMem=  209715200 cpu:       0.0
 (Enter /opt/gaussian/l301.exe)
 Standard basis: CC-pVDZ (5D, 7F)
 Ernie: Thresh=  0.10000D-02 Tol=  0.10000D-05 Strict=F.
 Ernie:  68 primitive shells out of 778 were deleted.
 There are   514 symmetry adapted basis functions of A   symmetry.
 Integral buffers will be    131072 words long.
 Raffenetti 2 integral format.
 Two-electron integral symmetry is turned on.
   514 basis functions,  1154 primitive gaussians,   544 cartesian basis functions
   108 alpha electrons      108 beta electrons
       nuclear repulsion energy      2784.3645485431 Hartrees.
 IExCor=  402 DFT=T Ex+Corr=B3LYP ExCW=0 ScaHFX=  0.200000
 ScaDFX=  0.800000  0.720000  1.000000  0.810000 ScalE2=  1.000000  1.000000
 IRadAn=      0 IRanWt=     -1 IRanGd=            0 ICorTp=0
 NAtoms=   48 NActive=   48 NUniq=   48 SFac= 1.00D+00 NAtFMM=   60 NAOKFM=F Big=F
 Leave Link  301 at Sun Sep  4 00:55:25 2022, MaxMem=  209715200 cpu:       0.3
 (Enter /opt/gaussian/l302.exe)
 NPDir=0 NMtPBC=     1 NCelOv=     1 NCel=       1 NClECP=     1 NCelD=      1
         NCelK=      1 NCelE2=     1 NClLst=     1 CellRange=     0.0.
 One-electron integrals computed using PRISM.
 NBasis=   514 RedAO= T  NBF=   514
 NBsUse=   514 1.00D-06 NBFU=   514
 Precomputing XC quadrature grid using
 IXCGrd= 2 IRadAn=           0 IRanWt=          -1 IRanGd=           0 AccXCQ= 0.00D+00.
 NRdTot=    3096 NPtTot=      395314 NUsed=      417623 NTot=      417655
 NSgBfM=   518   518   521   521   523 NAtAll=    48    48.
 Leave Link  302 at Sun Sep  4 00:55:26 2022, MaxMem=  209715200 cpu:       7.0
 (Enter /opt/gaussian/l303.exe)
 DipDrv:  MaxL=1.
 Leave Link  303 at Sun Sep  4 00:55:26 2022, MaxMem=  209715200 cpu:       1.1
 (Enter /opt/gaussian/l401.exe)
 Harris functional with IExCor=  402 diagonalized for initial guess.
 ExpMin= 1.22D-01 ExpMax= 1.11D+05 ExpMxC= 1.07D+03 IAcc=2 IRadAn=         4 AccDes= 0.00D+00
 HarFok:  IExCor=  402 AccDes= 0.00D+00 IRadAn=         4 IDoV= 1
 ScaDFX=  1.000000  1.000000  1.000000  1.000000
 FoFCou: FMM=F IPFlag=           0 FMFlag=      100000 FMFlg1=           0
         NFxFlg=           0 DoJE=T BraDBF=F KetDBF=T FulRan=T
         Omega=  0.000000  0.000000  1.000000  0.000000  0.000000 ICntrl=     500 IOpCl=  0
         NMat0=    1 NMatS0=    1 NMatT0=    0 NMatD0=    1 NMtDS0=    0 NMtDT0=    0
         I1Cent=           4 NGrid=           0.
 Petite list used in FoFCou.
 Harris En= -1650.95156856634    
 Initial guess orbital symmetries:
       Occupied  (A) (A) (A) (A) (A) (A) (A) (A) (A) (A) (A) (A)
                 (A) (A) (A) (A) (A) (A) (A) (A) (A) (A) (A) (A)
                 (A) (A) (A) (A) (A) (A) (A) (A) (A) (A) (A) (A)
                 (A) (A) (A) (A) (A) (A) (A) (A) (A) (A) (A) (A)
                 (A) (A) (A) (A) (A) (A) (A) (A) (A) (A) (A) (A)
                 (A) (A) (A) (A) (A) (A) (A) (A) (A) (A) (A) (A)
                 (A) (A) (A) (A) (A) (A) (A) (A) (A) (A) (A) (A)
                 (A) (A) (A) (A) (A) (A) (A) (A) (A) (A) (A) (A)
                 (A) (A) (A) (A) (A) (A) (A) (A) (A) (A) (A) (A)
       Virtual   (A) (A) (A) (A) (A) (A) (A) (A) (A) (A) (A) (A)
                 (A) (A) (A) (A) (A) (A) (A) (A) (A) (A) (A) (A)
                 (A) (A) (A) (A) (A) (A) (A) (A) (A) (A) (A) (A)
                 (A) (A) (A) (A) (A) (A) (A) (A) (A) (A) (A) (A)
                 (A) (A) (A) (A) (A) (A) (A) (A) (A) (A) (A) (A)
                 (A) (A) (A) (A) (A) (A) (A) (A) (A) (A) (A) (A)
                 (A) (A) (A) (A) (A) (A) (A) (A) (A) (A) (A) (A)
                 (A) (A) (A) (A) (A) (A) (A) (A) (A) (A) (A) (A)
                 (A) (A) (A) (A) (A) (A) (A) (A) (A) (A) (A) (A)
                 (A) (A) (A) (A) (A) (A) (A) (A) (A) (A) (A) (A)
                 (A) (A) (A) (A) (A) (A) (A) (A) (A) (A) (A) (A)
                 (A) (A) (A) (A) (A) (A) (A) (A) (A) (A) (A) (A)
                 (A) (A) (A) (A) (A) (A) (A) (A) (A) (A) (A) (A)
                 (A) (A) (A) (A) (A) (A) (A) (A) (A) (A) (A) (A)
                 (A) (A) (A) (A) (A) (A) (A) (A) (A) (A) (A) (A)
                 (A) (A) (A) (A) (A) (A) (A) (A) (A) (A) (A) (A)
                 (A) (A) (A) (A) (A) (A) (A) (A) (A) (A) (A) (A)
                 (A) (A) (A) (A) (A) (A) (A) (A) (A) (A) (A) (A)
                 (A) (A) (A) (A) (A) (A) (A) (A) (A) (A) (A) (A)
                 (A) (A) (A) (A) (A) (A) (A) (A) (A) (A) (A) (A)
                 (A) (A) (A) (A) (A) (A) (A) (A) (A) (A) (A) (A)
                 (A) (A) (A) (A) (A) (A) (A) (A) (A) (A) (A) (A)
                 (A) (A) (A) (A) (A) (A) (A) (A) (A) (A) (A) (A)
                 (A) (A) (A) (A) (A) (A) (A) (A) (A) (A) (A) (A)
                 (A) (A) (A) (A) (A) (A) (A) (A) (A) (A) (A) (A)
                 (A) (A) (A) (A) (A) (A) (A) (A) (A) (A) (A) (A)
                 (A) (A) (A) (A) (A) (A) (A) (A) (A) (A) (A) (A)
                 (A) (A) (A) (A) (A) (A) (A) (A) (A) (A) (A) (A)
                 (A) (A) (A) (A) (A) (A) (A) (A) (A) (A) (A) (A)
                 (A) (A) (A) (A) (A) (A) (A) (A) (A) (A) (A) (A)
                 (A) (A) (A) (A) (A) (A) (A) (A) (A) (A) (A) (A)
                 (A) (A) (A) (A) (A) (A) (A) (A) (A) (A) (A) (A)
                 (A) (A) (A) (A) (A) (A) (A) (A) (A) (A) (A) (A)
                 (A) (A) (A) (A) (A) (A) (A) (A) (A) (A)
 The electronic state of the initial guess is 1-A.
 Leave Link  401 at Sun Sep  4 00:55:28 2022, MaxMem=  209715200 cpu:      21.9
 (Enter /opt/gaussian/l502.exe)
 Closed shell SCF:
 Requested convergence on RMS density matrix=1.00D-08 within 128 cycles.
 Requested convergence on MAX density matrix=1.00D-06.
 Requested convergence on             energy=1.00D-06.
 No special actions if energy rises.
 Using DIIS extrapolation, IDIIS=  1040.
 Integral symmetry usage will be decided dynamically.
       417178 words used for storage of precomputed grid.
 IEnd=     1331594 IEndB=     1331594 NGot=   209715200 MDV=   208696727
 LenX=   208696727 LenY=   208400247
 Fock matrices will be formed incrementally for  20 cycles.
 Integral accuracy reduced to 1.0D-05 until final iterations.

 Cycle   1  Pass 0  IDiag  1:
 FoFCou: FMM=F IPFlag=           0 FMFlag=      100000 FMFlg1=           0
         NFxFlg=           0 DoJE=F BraDBF=F KetDBF=F FulRan=T
         Omega=  0.000000  0.000000  1.000000  0.000000  0.000000 ICntrl=       0 IOpCl=  0
         NMat0=    1 NMatS0=    1 NMatT0=    0 NMatD0=    1 NMtDS0=    0 NMtDT0=    0
         I1Cent=           0 NGrid=           0.
 Symmetry not used in FoFCou.
 E= -1650.47229521386    
 DIIS: error= 1.79D-02 at cycle   1 NSaved=   1.
 NSaved= 1 IEnMin= 1 EnMin= -1650.47229521386     IErMin= 1 ErrMin= 1.79D-02
 ErrMax= 1.79D-02 EMaxC= 1.00D-01 BMatC= 6.17D-01 BMatP= 6.17D-01
 IDIUse=3 WtCom= 8.21D-01 WtEn= 1.79D-01
 Coeff-Com:  0.100D+01
 Coeff-En:   0.100D+01
 Coeff:      0.100D+01
 Gap=     0.337 Goal=   None    Shift=    0.000
 GapD=    0.337 DampG=1.000 DampE=0.500 DampFc=0.5000 IDamp=-1.
 Damping current iteration by 5.00D-01
 RMSDP=4.63D-03 MaxDP=2.00D-01              OVMax= 3.16D-01

 Cycle   2  Pass 0  IDiag  1:
 RMSU=  1.62D-03    CP:  9.82D-01
 E= -1650.63630602225     Delta-E=       -0.164010808386 Rises=F Damp=T
 DIIS: error= 9.45D-03 at cycle   2 NSaved=   2.
 NSaved= 2 IEnMin= 2 EnMin= -1650.63630602225     IErMin= 2 ErrMin= 9.45D-03
 ErrMax= 9.45D-03 EMaxC= 1.00D-01 BMatC= 1.19D-01 BMatP= 6.17D-01
 IDIUse=3 WtCom= 9.06D-01 WtEn= 9.45D-02
 Coeff-Com:  0.245D+00 0.755D+00
 Coeff-En:   0.371D+00 0.629D+00
 Coeff:      0.257D+00 0.743D+00
 Gap=     0.254 Goal=   None    Shift=    0.000
 RMSDP=1.57D-03 MaxDP=7.57D-02 DE=-1.64D-01 OVMax= 2.91D-01

 Cycle   3  Pass 0  IDiag  1:
 RMSU=  9.98D-04    CP:  9.66D-01  7.18D-01
 E= -1651.07099904380     Delta-E=       -0.434693021548 Rises=F Damp=F
 DIIS: error= 1.16D-02 at cycle   3 NSaved=   3.
 NSaved= 3 IEnMin= 3 EnMin= -1651.07099904380     IErMin= 2 ErrMin= 9.45D-03
 ErrMax= 1.16D-02 EMaxC= 1.00D-01 BMatC= 8.62D-02 BMatP= 1.19D-01
 IDIUse=3 WtCom= 8.84D-01 WtEn= 1.16D-01
 Coeff-Com:  0.789D-01 0.451D+00 0.470D+00
 Coeff-En:   0.000D+00 0.000D+00 0.100D+01
 Coeff:      0.698D-01 0.399D+00 0.531D+00
 Gap=     0.180 Goal=   None    Shift=    0.000
 RMSDP=7.85D-04 MaxDP=5.49D-02 DE=-4.35D-01 OVMax= 7.41D-02

 Cycle   4  Pass 0  IDiag  1:
 RMSU=  4.29D-04    CP:  9.70D-01  8.02D-01  6.78D-01
 E= -1651.12948052328     Delta-E=       -0.058481479480 Rises=F Damp=F
 DIIS: error= 5.78D-03 at cycle   4 NSaved=   4.
 NSaved= 4 IEnMin= 4 EnMin= -1651.12948052328     IErMin= 4 ErrMin= 5.78D-03
 ErrMax= 5.78D-03 EMaxC= 1.00D-01 BMatC= 2.34D-02 BMatP= 8.62D-02
 IDIUse=3 WtCom= 9.42D-01 WtEn= 5.78D-02
 Coeff-Com:  0.209D-01 0.135D+00 0.350D+00 0.495D+00
 Coeff-En:   0.000D+00 0.000D+00 0.245D+00 0.755D+00
 Coeff:      0.197D-01 0.127D+00 0.344D+00 0.510D+00
 Gap=     0.185 Goal=   None    Shift=    0.000
 RMSDP=3.72D-04 MaxDP=2.17D-02 DE=-5.85D-02 OVMax= 3.21D-02

 Cycle   5  Pass 0  IDiag  1:
 RMSU=  1.55D-04    CP:  9.68D-01  7.71D-01  7.49D-01  5.50D-01
 E= -1651.14842954760     Delta-E=       -0.018949024322 Rises=F Damp=F
 DIIS: error= 2.58D-03 at cycle   5 NSaved=   5.
 NSaved= 5 IEnMin= 5 EnMin= -1651.14842954760     IErMin= 5 ErrMin= 2.58D-03
 ErrMax= 2.58D-03 EMaxC= 1.00D-01 BMatC= 2.24D-03 BMatP= 2.34D-02
 IDIUse=3 WtCom= 9.74D-01 WtEn= 2.58D-02
 Coeff-Com:  0.441D-02 0.226D-01 0.155D+00 0.329D+00 0.489D+00
 Coeff-En:   0.000D+00 0.000D+00 0.000D+00 0.783D-01 0.922D+00
 Coeff:      0.430D-02 0.220D-01 0.151D+00 0.323D+00 0.500D+00
 Gap=     0.180 Goal=   None    Shift=    0.000
 RMSDP=1.28D-04 MaxDP=7.14D-03 DE=-1.89D-02 OVMax= 1.58D-02

 Cycle   6  Pass 0  IDiag  1:
 RMSU=  3.91D-05    CP:  9.68D-01  7.71D-01  7.63D-01  6.40D-01  5.44D-01
 E= -1651.15073787747     Delta-E=       -0.002308329869 Rises=F Damp=F
 DIIS: error= 7.74D-04 at cycle   6 NSaved=   6.
 NSaved= 6 IEnMin= 6 EnMin= -1651.15073787747     IErMin= 6 ErrMin= 7.74D-04
 ErrMax= 7.74D-04 EMaxC= 1.00D-01 BMatC= 1.88D-04 BMatP= 2.24D-03
 IDIUse=3 WtCom= 9.92D-01 WtEn= 7.74D-03
 Coeff-Com:  0.524D-03-0.442D-02 0.460D-01 0.126D+00 0.289D+00 0.542D+00
 Coeff-En:   0.000D+00 0.000D+00 0.000D+00 0.000D+00 0.223D-01 0.978D+00
 Coeff:      0.520D-03-0.439D-02 0.456D-01 0.125D+00 0.287D+00 0.546D+00
 Gap=     0.179 Goal=   None    Shift=    0.000
 RMSDP=3.11D-05 MaxDP=2.56D-03 DE=-2.31D-03 OVMax= 4.21D-03

 Cycle   7  Pass 0  IDiag  1:
 RMSU=  1.42D-05    CP:  9.68D-01  7.72D-01  7.64D-01  6.31D-01  5.90D-01
                    CP:  6.28D-01
 E= -1651.15091685908     Delta-E=       -0.000178981613 Rises=F Damp=F
 DIIS: error= 2.15D-04 at cycle   7 NSaved=   7.
 NSaved= 7 IEnMin= 7 EnMin= -1651.15091685908     IErMin= 7 ErrMin= 2.15D-04
 ErrMax= 2.15D-04 EMaxC= 1.00D-01 BMatC= 1.90D-05 BMatP= 1.88D-04
 IDIUse=3 WtCom= 9.98D-01 WtEn= 2.15D-03
 Coeff-Com:  0.959D-04-0.444D-02 0.119D-01 0.391D-01 0.113D+00 0.312D+00
 Coeff-Com:  0.528D+00
 Coeff-En:   0.000D+00 0.000D+00 0.000D+00 0.000D+00 0.000D+00 0.329D-01
 Coeff-En:   0.967D+00
 Coeff:      0.957D-04-0.443D-02 0.118D-01 0.390D-01 0.113D+00 0.312D+00
 Coeff:      0.529D+00
 Gap=     0.180 Goal=   None    Shift=    0.000
 RMSDP=9.43D-06 MaxDP=9.07D-04 DE=-1.79D-04 OVMax= 9.84D-04

 Initial convergence to 1.0D-05 achieved.  Increase integral accuracy.
 Cycle   8  Pass 1  IDiag  1:
 E= -1651.15103815016     Delta-E=       -0.000121291080 Rises=F Damp=F
 DIIS: error= 2.57D-04 at cycle   1 NSaved=   1.
 NSaved= 1 IEnMin= 1 EnMin= -1651.15103815016     IErMin= 1 ErrMin= 2.57D-04
 ErrMax= 2.57D-04 EMaxC= 1.00D-01 BMatC= 1.16D-05 BMatP= 1.16D-05
 IDIUse=3 WtCom= 9.97D-01 WtEn= 2.57D-03
 Coeff-Com:  0.100D+01
 Coeff-En:   0.100D+01
 Coeff:      0.100D+01
 Gap=     0.180 Goal=   None    Shift=    0.000
 RMSDP=9.43D-06 MaxDP=9.07D-04 DE=-1.21D-04 OVMax= 6.93D-04

 Cycle   9  Pass 1  IDiag  1:
 RMSU=  9.80D-05    CP:  1.00D+00
 E= -1651.15104624208     Delta-E=       -0.000008091921 Rises=F Damp=F
 DIIS: error= 7.02D-05 at cycle   2 NSaved=   2.
 NSaved= 2 IEnMin= 2 EnMin= -1651.15104624208     IErMin= 2 ErrMin= 7.02D-05
 ErrMax= 7.02D-05 EMaxC= 1.00D-01 BMatC= 3.55D-06 BMatP= 1.16D-05
 IDIUse=1 WtCom= 1.00D+00 WtEn= 0.00D+00
 Coeff-Com:  0.282D+00 0.718D+00
 Coeff:      0.282D+00 0.718D+00
 Gap=     0.180 Goal=   None    Shift=    0.000
 RMSDP=8.14D-06 MaxDP=5.25D-04 DE=-8.09D-06 OVMax= 9.02D-04

 Cycle  10  Pass 1  IDiag  1:
 RMSU=  5.73D-06    CP:  1.00D+00  1.01D+00
 E= -1651.15104420315     Delta-E=        0.000002038929 Rises=F Damp=F
 DIIS: error= 9.19D-05 at cycle   3 NSaved=   3.
 NSaved= 3 IEnMin= 2 EnMin= -1651.15104624208     IErMin= 2 ErrMin= 7.02D-05
 ErrMax= 9.19D-05 EMaxC= 1.00D-01 BMatC= 5.81D-06 BMatP= 3.55D-06
 IDIUse=1 WtCom= 1.00D+00 WtEn= 0.00D+00
 Coeff-Com:  0.179D-02 0.561D+00 0.437D+00
 Coeff:      0.179D-02 0.561D+00 0.437D+00
 Gap=     0.180 Goal=   None    Shift=    0.000
 RMSDP=4.70D-06 MaxDP=3.35D-04 DE= 2.04D-06 OVMax= 5.02D-04

 Cycle  11  Pass 1  IDiag  1:
 RMSU=  7.79D-07    CP:  1.00D+00  1.01D+00  4.41D-01
 E= -1651.15104954916     Delta-E=       -0.000005346006 Rises=F Damp=F
 DIIS: error= 1.17D-05 at cycle   4 NSaved=   4.
 NSaved= 4 IEnMin= 4 EnMin= -1651.15104954916     IErMin= 4 ErrMin= 1.17D-05
 ErrMax= 1.17D-05 EMaxC= 1.00D-01 BMatC= 9.94D-08 BMatP= 3.55D-06
 IDIUse=1 WtCom= 1.00D+00 WtEn= 0.00D+00
 Coeff-Com: -0.361D-02 0.345D+00 0.278D+00 0.380D+00
 Coeff:     -0.361D-02 0.345D+00 0.278D+00 0.380D+00
 Gap=     0.180 Goal=   None    Shift=    0.000
 RMSDP=6.54D-07 MaxDP=3.65D-05 DE=-5.35D-06 OVMax= 5.22D-05

 Cycle  12  Pass 1  IDiag  1:
 RMSU=  2.16D-07    CP:  1.00D+00  1.01D+00  4.46D-01  4.77D-01
 E= -1651.15104964099     Delta-E=       -0.000000091832 Rises=F Damp=F
 DIIS: error= 1.83D-06 at cycle   5 NSaved=   5.
 NSaved= 5 IEnMin= 5 EnMin= -1651.15104964099     IErMin= 5 ErrMin= 1.83D-06
 ErrMax= 1.83D-06 EMaxC= 1.00D-01 BMatC= 3.17D-09 BMatP= 9.94D-08
 IDIUse=1 WtCom= 1.00D+00 WtEn= 0.00D+00
 Coeff-Com: -0.226D-02 0.184D+00 0.149D+00 0.229D+00 0.441D+00
 Coeff:     -0.226D-02 0.184D+00 0.149D+00 0.229D+00 0.441D+00
 Gap=     0.180 Goal=   None    Shift=    0.000
 RMSDP=1.42D-07 MaxDP=7.24D-06 DE=-9.18D-08 OVMax= 1.38D-05

 Cycle  13  Pass 1  IDiag  1:
 RMSU=  7.65D-08    CP:  1.00D+00  1.01D+00  4.47D-01  5.04D-01  7.19D-01
 E= -1651.15104964390     Delta-E=       -0.000000002905 Rises=F Damp=F
 DIIS: error= 9.35D-07 at cycle   6 NSaved=   6.
 NSaved= 6 IEnMin= 6 EnMin= -1651.15104964390     IErMin= 6 ErrMin= 9.35D-07
 ErrMax= 9.35D-07 EMaxC= 1.00D-01 BMatC= 2.52D-10 BMatP= 3.17D-09
 IDIUse=1 WtCom= 1.00D+00 WtEn= 0.00D+00
 Coeff-Com: -0.860D-03 0.639D-01 0.516D-01 0.851D-01 0.256D+00 0.544D+00
 Coeff:     -0.860D-03 0.639D-01 0.516D-01 0.851D-01 0.256D+00 0.544D+00
 Gap=     0.180 Goal=   None    Shift=    0.000
 RMSDP=3.90D-08 MaxDP=1.94D-06 DE=-2.90D-09 OVMax= 4.19D-06

 Cycle  14  Pass 1  IDiag  1:
 RMSU=  2.00D-08    CP:  1.00D+00  1.01D+00  4.47D-01  5.06D-01  7.61D-01
                    CP:  7.85D-01
 E= -1651.15104964414     Delta-E=       -0.000000000242 Rises=F Damp=F
 DIIS: error= 3.10D-07 at cycle   7 NSaved=   7.
 NSaved= 7 IEnMin= 7 EnMin= -1651.15104964414     IErMin= 7 ErrMin= 3.10D-07
 ErrMax= 3.10D-07 EMaxC= 1.00D-01 BMatC= 2.67D-11 BMatP= 2.52D-10
 IDIUse=1 WtCom= 1.00D+00 WtEn= 0.00D+00
 Coeff-Com: -0.157D-03 0.940D-02 0.743D-02 0.143D-01 0.795D-01 0.297D+00
 Coeff-Com:  0.593D+00
 Coeff:     -0.157D-03 0.940D-02 0.743D-02 0.143D-01 0.795D-01 0.297D+00
 Coeff:      0.593D+00
 Gap=     0.180 Goal=   None    Shift=    0.000
 RMSDP=1.50D-08 MaxDP=6.82D-07 DE=-2.42D-10 OVMax= 1.54D-06

 Cycle  15  Pass 1  IDiag  1:
 RMSU=  7.81D-09    CP:  1.00D+00  1.01D+00  4.47D-01  5.07D-01  7.71D-01
                    CP:  8.19D-01  6.91D-01
 E= -1651.15104964414     Delta-E=       -0.000000000004 Rises=F Damp=F
 DIIS: error= 1.35D-07 at cycle   8 NSaved=   8.
 NSaved= 8 IEnMin= 8 EnMin= -1651.15104964414     IErMin= 8 ErrMin= 1.35D-07
 ErrMax= 1.35D-07 EMaxC= 1.00D-01 BMatC= 5.09D-12 BMatP= 2.67D-11
 IDIUse=1 WtCom= 1.00D+00 WtEn= 0.00D+00
 Coeff-Com:  0.338D-04-0.378D-02-0.319D-02-0.401D-02 0.930D-02 0.976D-01
 Coeff-Com:  0.358D+00 0.547D+00
 Coeff:      0.338D-04-0.378D-02-0.319D-02-0.401D-02 0.930D-02 0.976D-01
 Coeff:      0.358D+00 0.547D+00
 Gap=     0.180 Goal=   None    Shift=    0.000
 RMSDP=6.23D-09 MaxDP=2.23D-07 DE=-3.64D-12 OVMax= 8.70D-07

 SCF Done:  E(RB3LYP) =  -1651.15104964     A.U. after   15 cycles
             Convg  =    0.6228D-08             -V/T =  2.0049
 KE= 1.643119521971D+03 PE=-9.429161165644D+03 EE= 3.350526045486D+03
 Leave Link  502 at Sun Sep  4 01:05:35 2022, MaxMem=  209715200 cpu:    4839.5
 (Enter /opt/gaussian/l601.exe)
 Copying SCF densities to generalized density rwf, IOpCl= 0 IROHF=0.

 **********************************************************************

            Population analysis using the SCF density.

 **********************************************************************

 Orbital symmetries:
       Occupied  (A) (A) (A) (A) (A) (A) (A) (A) (A) (A) (A) (A)
                 (A) (A) (A) (A) (A) (A) (A) (A) (A) (A) (A) (A)
                 (A) (A) (A) (A) (A) (A) (A) (A) (A) (A) (A) (A)
                 (A) (A) (A) (A) (A) (A) (A) (A) (A) (A) (A) (A)
                 (A) (A) (A) (A) (A) (A) (A) (A) (A) (A) (A) (A)
                 (A) (A) (A) (A) (A) (A) (A) (A) (A) (A) (A) (A)
                 (A) (A) (A) (A) (A) (A) (A) (A) (A) (A) (A) (A)
                 (A) (A) (A) (A) (A) (A) (A) (A) (A) (A) (A) (A)
                 (A) (A) (A) (A) (A) (A) (A) (A) (A) (A) (A) (A)
       Virtual   (A) (A) (A) (A) (A) (A) (A) (A) (A) (A) (A) (A)
                 (A) (A) (A) (A) (A) (A) (A) (A) (A) (A) (A) (A)
                 (A) (A) (A) (A) (A) (A) (A) (A) (A) (A) (A) (A)
                 (A) (A) (A) (A) (A) (A) (A) (A) (A) (A) (A) (A)
                 (A) (A) (A) (A) (A) (A) (A) (A) (A) (A) (A) (A)
                 (A) (A) (A) (A) (A) (A) (A) (A) (A) (A) (A) (A)
                 (A) (A) (A) (A) (A) (A) (A) (A) (A) (A) (A) (A)
                 (A) (A) (A) (A) (A) (A) (A) (A) (A) (A) (A) (A)
                 (A) (A) (A) (A) (A) (A) (A) (A) (A) (A) (A) (A)
                 (A) (A) (A) (A) (A) (A) (A) (A) (A) (A) (A) (A)
                 (A) (A) (A) (A) (A) (A) (A) (A) (A) (A) (A) (A)
                 (A) (A) (A) (A) (A) (A) (A) (A) (A) (A) (A) (A)
                 (A) (A) (A) (A) (A) (A) (A) (A) (A) (A) (A) (A)
                 (A) (A) (A) (A) (A) (A) (A) (A) (A) (A) (A) (A)
                 (A) (A) (A) (A) (A) (A) (A) (A) (A) (A) (A) (A)
                 (A) (A) (A) (A) (A) (A) (A) (A) (A) (A) (A) (A)
                 (A) (A) (A) (A) (A) (A) (A) (A) (A) (A) (A) (A)
                 (A) (A) (A) (A) (A) (A) (A) (A) (A) (A) (A) (A)
                 (A) (A) (A) (A) (A) (A) (A) (A) (A) (A) (A) (A)
                 (A) (A) (A) (A) (A) (A) (A) (A) (A) (A) (A) (A)
                 (A) (A) (A) (A) (A) (A) (A) (A) (A) (A) (A) (A)
                 (A) (A) (A) (A) (A) (A) (A) (A) (A) (A) (A) (A)
                 (A) (A) (A) (A) (A) (A) (A) (A) (A) (A) (A) (A)
                 (A) (A) (A) (A) (A) (A) (A) (A) (A) (A) (A) (A)
                 (A) (A) (A) (A) (A) (A) (A) (A) (A) (A) (A) (A)
                 (A) (A) (A) (A) (A) (A) (A) (A) (A) (A) (A) (A)
                 (A) (A) (A) (A) (A) (A) (A) (A) (A) (A) (A) (A)
                 (A) (A) (A) (A) (A) (A) (A) (A) (A) (A) (A) (A)
                 (A) (A) (A) (A) (A) (A) (A) (A) (A) (A) (A) (A)
                 (A) (A) (A) (A) (A) (A) (A) (A) (A) (A) (A) (A)
                 (A) (A) (A) (A) (A) (A) (A) (A) (A) (A) (A) (A)
                 (A) (A) (A) (A) (A) (A) (A) (A) (A) (A) (A) (A)
                 (A) (A) (A) (A) (A) (A) (A) (A) (A) (A) (A) (A)
                 (A) (A) (A) (A) (A) (A) (A) (A) (A) (A)
 The electronic state is 1-A.
 Alpha  occ. eigenvalues --  -88.91847 -19.11261 -14.40204 -14.39378 -14.38182
 Alpha  occ. eigenvalues --  -14.37571 -14.33913 -14.31052 -10.29511 -10.25036
 Alpha  occ. eigenvalues --  -10.24550 -10.24401 -10.22959 -10.22771 -10.22597
 Alpha  occ. eigenvalues --  -10.22180 -10.21952 -10.21579 -10.20781 -10.20639
 Alpha  occ. eigenvalues --  -10.20064 -10.19545 -10.19384 -10.19029 -10.19019
 Alpha  occ. eigenvalues --  -10.18903 -10.18850 -10.18477 -10.18446 -10.18005
 Alpha  occ. eigenvalues --   -7.97915  -5.94266  -5.93900  -5.93510  -1.09569
 Alpha  occ. eigenvalues --   -1.04772  -1.02678  -0.95909  -0.92262  -0.88933
 Alpha  occ. eigenvalues --   -0.88417  -0.86496  -0.85911  -0.79159  -0.77987
 Alpha  occ. eigenvalues --   -0.77235  -0.76486  -0.75350  -0.74691  -0.74574
 Alpha  occ. eigenvalues --   -0.72942  -0.70010  -0.65495  -0.64532  -0.63060
 Alpha  occ. eigenvalues --   -0.62144  -0.61149  -0.60222  -0.59034  -0.58204
 Alpha  occ. eigenvalues --   -0.57027  -0.56382  -0.55730  -0.53624  -0.52553
 Alpha  occ. eigenvalues --   -0.52140  -0.51636  -0.50565  -0.47789  -0.47259
 Alpha  occ. eigenvalues --   -0.46623  -0.46375  -0.45940  -0.45085  -0.44752
 Alpha  occ. eigenvalues --   -0.44480  -0.44392  -0.44127  -0.43380  -0.43098
 Alpha  occ. eigenvalues --   -0.42663  -0.41901  -0.41731  -0.40199  -0.39583
 Alpha  occ. eigenvalues --   -0.38473  -0.38091  -0.37458  -0.37121  -0.36685
 Alpha  occ. eigenvalues --   -0.36245  -0.35508  -0.35339  -0.34841  -0.32735
 Alpha  occ. eigenvalues --   -0.30822  -0.30511  -0.27953  -0.27299  -0.26560
 Alpha  occ. eigenvalues --   -0.26271  -0.25882  -0.25514  -0.25399  -0.25260
 Alpha  occ. eigenvalues --   -0.24566  -0.22959  -0.21190
[...]
 4,0.00212909,0.00108397,-0.00004285,-0.00029393,0.00025356,0.00000229,
 0.00009935,-0.00006705,0.00000099,0.00003199,0.00004343,0.00000143,0.0
 0001436,-0.00001102,0.00001442,0.00003305,0.00003125,-0.00006318,0.000
 02386,0.00001086,0.02007151,-0.01446851,-0.01032151,-0.00364578,-0.004
 10479,-0.00110296,-0.00077975,-0.00011083,0.00030892,-0.00284726,0.000
 94908,-0.00062687,-0.00688684,0.00946328,0.00339793,0.12549804,-0.2047
 9644,-0.07647375,-0.00018484,0.00044568,0.00015106,-0.00015678,-0.0000
 9874,0.00006254,0.00001144,0.00006237,0.00001680,-0.00000512,-0.000029
 66,-0.00001022,0.00005299,-0.00003480,-0.00002889,0.00010316,0.0000162
 9,-0.00004014,0.00002819,-0.00001690,0.00002285,0.00000658,-0.00000244
 ,-0.00000064,0.00000540,-0.00000337,0.00000492,0.00000195,0.00000079,0
 .00000723,-0.00000426,-0.00001452,-0.00002151,-0.00003267,-0.00000683,
 0.00000568,0.00000281,0.00004814,-0.00010609,0.00000429,-0.00000864,-0
 .00000085,0.00000726,0.00000271,0.00000392,0.00005402,-0.00003303,-0.0
 0000778,0.00101844,-0.00079377,-0.00057834,0.00013726,-0.00001072,0.00
 017108,0.00050996,0.00059990,0.00100620,-0.13424839,0.21128292,0.00059
 245,0.00203044,-0.00048872,0.00036936,-0.00372284,0.00181151,-0.000117
 96,0.00040049,-0.00000440,0.00000378,0.00000926,0.00001550,-0.00007594
 ,0.00005053,0.00003161,0.00004031,-0.00004549,0.00001514,-0.00000218,0
 .00001573,-0.00001400,0.00000793,-0.00000218,0.00001494,0.00000855,-0.
 00000704,-0.00001607,-0.00000940,0.00002381,-0.00002143,0.00001025,0.0
 0001225,0.00002221,-0.00005054,-0.00001113,-0.00003640,-0.00286956,0.0
 0114079,-0.00377355,0.00014555,-0.00004183,-0.00008820,-0.00001202,0.0
 0000437,-0.00005883,0.00000040,0.00001352,0.00001605,0.00000011,0.0000
 0678,-0.00000809,0.00000458,-0.00000156,0.00000366,-0.00004026,-0.0000
 1746,0.00000963,0.00305655,-0.00175255,0.00261659,0.00085256,-0.001658
 05,0.00514396,-0.00045816,0.00043257,-0.00064909,0.00294513,-0.0004898
 9,0.00684932,0.00378792,-0.00604646,0.00129393,0.06807799,-0.07355839,
 -0.07369848,0.00005666,-0.00043276,-0.00001675,-0.00000514,0.00010094,
 -0.00014301,0.00008155,0.00001185,-0.00004227,0.00002026,-0.00000936,0
 .00000504,-0.00000146,0.00001665,0.00005130,0.00005433,0.00001413,0.,0
 .00007168,0.00001381,-0.00003490,0.00000147,-0.00000246,0.00000047,0.0
 0000055,-0.00000450,0.00000141,-0.00000399,-0.00000229,-0.00000013,-0.
 00000902,-0.00002887,-0.00001743,0.00003442,0.00011683,-0.00001031,0.0
 0001592,0.00007595,-0.00001270,0.00000338,-0.00000127,-0.00000172,0.00
 000125,0.00000080,0.00000054,0.00001678,-0.00001324,0.00000765,0.00020
 369,-0.00012877,0.00037196,-0.00023835,0.00016180,-0.00084829,-0.00154
 080,0.00118018,-0.00390397,-0.07505189,0.08214410,0.06556827,0.0000358
 8,-0.00002594,0.00000726,-0.00005575,0.00005419,-0.00001654,-0.0000100
 8,0.00001107,-0.00000177,0.00001914,-0.00001120,-0.00000883,-0.0000127
 0,0.00001528,0.00001915,0.00001514,-0.00001514,0.00000517,0.00000166,-
 0.00000151,-0.00000567,-0.00000026,0.00000046,0.00000169,0.00000142,-0
 .00000134,-0.00000160,-0.00000191,0.00000257,-0.00000200,-0.00000110,0
 .00000228,0.00000607,-0.00000622,0.00000011,-0.00001578,0.00008286,-0.
 00006189,0.00001132,-0.00000751,-0.00001507,0.00000715,0.00000370,-0.0
 0000206,0.00000570,0.00000212,-0.00000073,0.00000585,0.00000635,0.0000
 0762,-0.00000035,-0.00000391,-0.00000277,-0.00000396,0.00001385,-0.000
 00611,-0.00001025,-0.00002777,-0.00002525,-0.00001121,0.00001952,-0.00
 027465,-0.00019256,-0.00048283,0.00041888,0.00019114,0.00043429,-0.000
 05266,-0.00064937,-0.00020555,0.00004628,0.00005188,0.00006359,-0.0000
 3342,-0.00000872,0.01129548,0.01498628,0.00015017,-0.05605439,0.024591
 87,0.01717212,0.00469754,-0.02908918,-0.01011937,-0.00716790,-0.001609
 80,0.00253939,-0.00152607,0.00560499,0.00389295,0.00000105,0.00000068,
 0.00000287,0.00000190,-0.00000150,-0.00000065,0.00000085,-0.00000075,-
 0.00000040,0.00000098,-0.00000089,0.00000113,-0.00000104,0.00000043,0.
 00000017,-0.00000076,-0.00000202,-0.00000201,0.00000881,0.00000138,-0.
 00000305,-0.00000280,-0.00000140,0.00001271,-0.00000184,0.00000008,-0.
 00000160,-0.00000108,0.00000077,-0.00000072,-0.00001329,0.00000561,-0.
 00000100,-0.00003157,0.00000470,0.00000871,-0.00093011,-0.00059303,0.0
 0039658,0.00012606,-0.00005172,-0.00007179,-0.00000582,-0.00000772,0.0
 0000863,0.04818623,-0.00001692,0.00002009,-0.00000188,0.00003167,-0.00
 004412,0.00000581,0.00000424,-0.00000304,0.00000063,-0.00000973,0.0000
 0412,0.00000488,0.00000628,-0.00000754,-0.00000828,-0.00000695,0.00000
 772,-0.00000251,-0.00000081,0.00000036,0.00000292,0.,-0.00000007,-0.00
 000113,-0.00000073,0.00000062,0.00000110,0.00000088,-0.00000156,0.0000
 0068,0.00000028,-0.00000142,-0.00000284,0.00000282,0.00000017,0.000006
 92,-0.00007220,0.00003309,-0.00000504,0.00000100,0.00002517,-0.0000022
 5,0.00000059,0.00000102,-0.00000089,0.00000006,-0.00000088,-0.00000347
 ,-0.00000122,-0.00000728,0.00000046,-0.00000057,-0.00000016,-0.0000006
 0,-0.00000137,0.00000315,0.00000436,-0.00000580,0.00003321,0.00001854,
 0.00001788,0.00023692,0.00014911,-0.00020446,-0.00051400,-0.00001217,-
 0.00016845,-0.00057288,0.00035791,0.00023213,0.00000950,-0.00005997,-0
 .00007116,-0.00007466,-0.00000990,-0.00460613,-0.00375154,0.00074754,0
 .01483272,-0.33470469,-0.08674246,0.00488993,-0.01063095,-0.00331251,-
 0.00138436,0.00007661,-0.00026312,0.00047944,-0.00094102,-0.00212005,-
 0.00000108,-0.00000041,-0.00000089,-0.00000234,0.00000086,0.00000003,-
 0.00000046,0.00000035,0.00000018,-0.00000033,0.00000040,-0.00000056,0.
 00000069,0.00000002,0.00000011,0.00000060,0.00000156,0.00000073,-0.000
 00562,-0.00000468,0.00000223,0.00000147,0.00000180,-0.00000491,-0.0000
 0061,0.00000045,0.00000132,-0.00000102,-0.00000055,0.00000042,0.000004
 37,-0.00000047,0.00000074,0.00000945,-0.00000056,-0.00000303,-0.000653
 17,0.00059266,0.00011599,-0.00008373,0.00001789,0.00004731,0.00000872,
 0.00000517,-0.00000749,-0.01345050,0.35050576,-0.00001130,0.00005445,-
 0.00003351,0.00007109,-0.00007855,0.00004727,0.00000923,-0.00001519,-0
 .00000015,-0.00000987,0.00000738,0.00000053,0.00000235,-0.00000458,-0.
 00001499,-0.00000613,0.00000575,-0.00000232,-0.00000180,0.00000203,0.0
 0000153,0.00000159,-0.00000106,0.00000159,-0.00000024,0.00000098,-0.00
 000288,0.00000048,0.00000048,0.00000162,-0.00000068,0.00000170,-0.0000
 0183,0.00000766,-0.00000318,0.00001398,-0.00010417,0.00000934,0.000065
 87,0.00000813,0.00000839,0.00001107,0.00000237,0.00001006,-0.00000141,
 -0.00000498,-0.00000273,-0.00001067,-0.00000136,-0.00000347,0.00001088
 ,-0.00000408,-0.00000719,-0.00000756,-0.00000070,0.00000450,0.00000692
 ,0.00005241,0.00001084,-0.00006881,-0.00016882,0.00027156,-0.00025274,
 0.00008681,-0.00025561,-0.00022976,-0.00067905,0.00030445,-0.00143366,
 0.00009944,0.00001190,-0.00006133,-0.00000258,-0.00002680,0.00010181,-
 0.00501489,-0.00506865,-0.00120612,0.01462239,-0.08982387,-0.04844238,
 -0.00121801,0.00698457,-0.00143714,0.00262236,-0.00021453,0.00181051,0
 .00254526,-0.00363509,0.00490134,0.00000095,-0.00000026,-0.00000187,-0
 .00000415,0.00000152,0.00000209,-0.00000046,0.00000006,0.00000013,-0.0
 0000116,0.00000026,-0.00000041,-0.00000138,-0.00000051,-0.00000191,0.0
 0000019,-0.00000111,0.00000314,-0.00000187,-0.00000465,0.00000139,-0.0
 0000168,-0.00000424,-0.00000498,0.00000325,0.00000075,-0.00000262,0.00
 000137,0.00000004,-0.00000035,-0.00000043,0.00000098,0.00000808,0.0000
 1793,-0.00000587,0.00000790,0.00038527,0.00014783,0.00076545,-0.000087
 60,0.00003824,-0.00004954,0.00000900,-0.00000101,0.00001341,-0.0129496
 2,0.09136026,0.04496368,-0.00003953,0.00004876,-0.00002776,0.00009222,
 -0.00009326,0.00002301,0.00001478,-0.00001435,0.00000602,-0.00002010,0
 .00001146,0.00000808,0.00001096,-0.00001428,-0.00002260,-0.00001440,0.
 00001507,-0.00000510,-0.00000212,0.00000197,0.00000519,0.00000105,-0.0
 0000064,-0.00000050,-0.00000107,0.00000196,-0.00000031,0.00000193,-0.0
 0000173,0.00000216,0.00000039,-0.00000068,-0.00000541,0.00000934,-0.00
 000195,0.00001970,-0.00012835,0.00000543,0.00002001,-0.00000204,0.0000
 3822,-0.00000265,0.00000060,0.00000488,0.00000068,-0.00000230,-0.00000
 083,-0.00001075,-0.00000397,-0.00001030,0.00000414,-0.00000129,-0.0000
 0351,-0.00000186,-0.00000628,0.00000462,0.00000886,0.00010435,0.000007
 12,-0.00003172,-0.00006009,-0.00014534,-0.00008786,-0.00050444,0.00015
 622,0.00014371,0.00041029,-0.00150030,-0.00017765,0.00005142,0.0000149
 7,-0.00000665,-0.00000819,0.00000168,-0.00000097,-0.00382194,0.0004760
 1,0.00349614,-0.00135986,0.00238272,0.00184913,0.01117123,0.01285869,-
 0.00055769,-0.16163700,-0.14582827,0.00311901,-0.01569645,-0.02258190,
 -0.00271916,-0.00000216,-0.00000112,-0.00000233,-0.00000519,0.00000225
 ,0.00000095,-0.00000114,0.00000044,0.00000032,-0.00000155,0.00000061,-
 0.00000111,-0.00000020,-0.00000073,-0.00000118,0.00000069,0.00000116,0
 .00000325,-0.00000962,-0.00000918,0.00000468,0.00000153,0.00000135,-0.
 00001031,0.00000095,0.00000073,0.00000045,0.00000025,-0.00000056,-0.00
 000008,0.00000715,-0.00000081,0.00000603,-0.00004627,-0.00001742,0.000
 01740,0.00002561,-0.00002972,0.00001683,0.00004920,-0.00002974,-0.0000
 0779,-0.00001645,-0.00000404,0.00000917,0.00097373,0.00020805,0.000299
 64,0.17051784,-0.00001063,0.00000238,-0.00000329,0.00001978,-0.0000143
 6,0.00000098,0.00000303,-0.00000206,0.00000201,-0.00000500,0.00000240,
 0.00000227,0.00000202,-0.00000417,-0.00000514,-0.00000398,0.00000289,-
 0.00000123,-0.00000009,0.00000065,0.00000136,0.00000013,-0.00000057,-0
 .00000032,-0.00000045,-0.00000018,0.00000037,0.00000015,-0.00000083,0.
 00000084,-0.00000052,-0.00000050,-0.00000108,0.00000248,0.00000008,0.0
 0000436,-0.00003383,-0.00000104,0.00000042,-0.00000160,0.00001531,-0.0
 0000322,0.00000103,0.00000044,0.00000079,-0.00000028,-0.00000041,-0.00
 000337,-0.00000131,-0.00000353,0.00000067,-0.00000011,-0.00000078,-0.0
 0000006,-0.00000102,0.00000142,0.00000277,0.00002665,-0.00003501,-0.00
 001585,-0.00003127,0.00004136,0.00007511,0.00010605,-0.00001498,-0.000
 00404,-0.00001757,0.00039511,-0.00017352,-0.00007712,0.00002747,0.0000
 3373,0.00003386,-0.00000529,0.00000606,0.00072850,0.00258551,-0.001466
 78,0.00458265,-0.00180617,-0.00255715,-0.01806744,-0.01734843,0.001382
 51,-0.14134215,-0.24063078,-0.01350652,0.00047824,0.00635707,0.0028566
 4,-0.00000077,0.,-0.00000027,-0.00000163,0.00000073,-0.00000006,0.0000
 0009,0.00000044,0.00000005,-0.00000009,0.00000052,-0.00000035,0.000000
 32,0.00000019,-0.00000024,0.00000054,0.00000086,0.00000069,-0.00000402
 ,-0.00000277,0.00000122,0.00000097,0.00000042,-0.00000320,-0.00000003,
 0.00000039,0.00000037,-0.00000018,-0.00000007,0.00000003,0.00000197,-0
 .00000006,0.00000141,0.00000493,0.00000138,-0.00000602,-0.00000932,0.0
 0004146,-0.00001421,-0.00000613,0.00000255,-0.00001182,0.00000037,0.00
 000210,-0.00000113,-0.00111358,-0.00014280,-0.00016510,0.15469279,0.25
 082942,0.00000884,0.00000150,-0.00000505,-0.00000692,0.00000710,0.0000
 0743,-0.00000021,0.00000005,-0.00000099,0.00000331,-0.00000108,-0.0000
 0350,-0.00000503,0.00000460,0.00000112,0.00000376,-0.00000409,0.000001
 36,0.00000007,0.00000011,-0.00000131,0.00000057,-0.00000013,0.00000161
 ,0.00000085,-0.00000032,-0.00000181,-0.00000074,0.00000158,-0.00000012
 ,0.00000015,0.00000109,0.00000151,0.00000017,-0.00000109,-0.00000108,0
 .00002511,-0.00000129,0.00001840,0.00000223,-0.00001112,0.00000650,-0.
 00000031,0.00000086,-0.00000168,-0.00000028,-0.00000027,0.00000097,0.0
 0000078,0.00000227,0.00000117,-0.00000040,-0.00000107,-0.00000151,0.00
 000067,-0.00000060,-0.00000130,-0.00002561,-0.00001458,-0.00000532,-0.
 00005822,0.00010964,-0.00017446,0.00013135,-0.00002861,-0.00016681,0.0
 0020034,0.00026890,0.00109055,-0.00004602,0.00000243,0.00000290,-0.000
 00165,0.00001815,-0.00005415,0.00357284,-0.00139572,0.00596664,0.00240
 311,-0.00188743,0.00149626,-0.00860897,-0.00790693,-0.00125001,0.00430
 892,-0.01215538,-0.02970211,0.00328812,0.00978075,-0.00364707,0.000001
 07,0.00000063,0.00000003,0.00000062,-0.00000074,0.00000011,0.00000014,
 -0.00000029,0.00000010,-0.00000044,-0.00000015,0.00000010,-0.00000081,
 -0.00000044,-0.00000075,-0.00000023,-0.00000136,0.00000020,0.00000526,
 0.00000136,-0.00000105,-0.00000148,-0.00000087,0.00000345,0.00000043,0
 .00000012,-0.00000090,0.00000023,0.00000034,-0.00000007,-0.00000170,0.
 00000029,0.00000042,0.00002015,0.00000176,0.00001445,0.00001920,-0.000
 00046,0.00009606,0.00000059,-0.00000396,0.00005266,0.00000672,-0.00000
 043,0.00000645,-0.00003783,-0.00056765,0.00165854,-0.00482127,0.013306
 85,0.02571697,0.00005304,-0.00007388,0.00003035,-0.00014523,0.00015929
 ,-0.00002168,-0.00002494,0.00002160,-0.00001307,0.00003453,-0.00001845
 ,-0.00001618,-0.00001968,0.00002776,0.00003595,0.00002690,-0.00002553,
 0.00000916,0.00000295,-0.00000329,-0.00000959,-0.00000119,0.00000212,0
 .00000235,0.00000268,-0.00000131,-0.00000208,-0.00000248,0.00000519,-0
 .00000377,0.00000073,0.00000339,0.00000964,-0.00001480,0.00000057,-0.0
 0003016,0.00023953,-0.00001209,-0.00001880,0.00000274,-0.00008251,0.00
 000410,-0.00000271,-0.00000581,-0.00000106,0.00000313,0.00000314,0.000
 01668,0.00000742,0.00001699,-0.00000428,0.00000050,0.00000431,0.000002
 25,0.00000764,-0.00000769,-0.00001462,-0.00010687,0.00006252,0.0000507
 7,0.00007445,-0.00009354,-0.00004640,0.00005943,0.00009454,-0.00001681
 ,-0.00004872,0.00062208,0.00074134,-0.00017936,-0.00010789,0.00000989,
 -0.00013433,0.00007050,-0.00007637,-0.00235267,-0.00264067,0.00081558,
 -0.00856122,0.01293495,0.00379811,-0.38466077,0.07914761,0.13574174,-0
 .00150147,-0.00189957,-0.00267216,0.00220709,0.00008115,0.00148038,0.0
 0000484,0.00000158,0.00000270,0.00000995,-0.00000433,-0.00000031,0.000
 00097,-0.00000170,-0.00000071,0.00000131,-0.00000205,0.00000221,-0.000
 00193,-0.00000017,0.00000083,-0.00000237,-0.00000503,-0.00000445,0.000
 01862,0.00001781,-0.00000936,-0.00000410,-0.00000275,0.00001398,-0.000
 00157,-0.00000189,-0.00000201,0.00000003,0.00000131,-0.00000042,-0.000
 01107,-0.00000006,-0.00000646,0.00000180,0.00001134,0.00000255,0.00001
 120,-0.00004276,0.00001252,-0.00000748,-0.00006058,0.00005640,-0.00000
 866,-0.00001567,0.00000353,0.00056010,0.00001654,-0.00057218,-0.000053
 52,0.00004356,-0.00038753,0.39451555,-0.00002833,0.00004565,-0.0000218
 9,0.00008341,-0.00010605,0.00001111,0.00001247,-0.00000729,0.00000768,
 -0.00001720,0.00000677,0.00000800,0.00000798,-0.00001317,-0.00001690,-
 0.00001213,0.00001161,-0.00000412,-0.00000152,0.00000173,0.00000425,0.
 00000043,-0.00000112,-0.00000090,-0.00000168,0.00000056,0.00000038,0.0
 0000087,-0.00000265,0.00000206,-0.00000145,-0.00000135,-0.00000413,0.0
 0000873,-0.00000081,0.00001530,-0.00016334,-0.00000106,0.00001272,-0.0
 0000692,0.00007057,-0.00000296,0.00000564,0.00000394,0.00000272,-0.000
 00044,-0.00000323,-0.00001280,-0.00000133,-0.00001522,0.00000426,-0.00
 000413,-0.00000430,-0.00000388,0.00000180,0.00000400,0.00000925,0.0000
 8303,-0.00000805,-0.00002820,-0.00000435,0.00003259,0.00001119,-0.0000
 0757,0.00009640,0.00003735,-0.00008703,0.00144890,-0.00008290,-0.00036
 649,-0.00039856,0.00002396,0.00000855,0.00014237,0.00014507,-0.0062796
 3,-0.00491416,-0.00007955,-0.01540505,0.01404935,0.01020889,0.08051704
 ,-0.09174340,-0.04721186,0.02596217,0.01038734,-0.00290157,0.00408576,
 -0.00672787,-0.00479252,-0.00000397,-0.00000071,-0.00000019,-0.0000077
 0,0.00000255,-0.00000014,-0.00000019,0.00000087,0.00000008,-0.00000026
 ,0.00000104,-0.00000079,0.00000065,0.00000061,-0.00000072,0.00000169,0
 .00000278,0.00000257,-0.00001314,-0.00001456,0.00000579,0.00000289,0.0
 0000170,-0.00000792,-0.00000163,0.00000185,0.00000147,-0.00000250,-0.0
 0000049,0.00000020,0.00000319,0.00000285,0.00000622,-0.00001593,-0.000
 01146,0.00000063,0.00002910,-0.00000589,-0.00003163,-0.00014993,0.0001
 0636,0.00000825,-0.00004080,-0.00001157,0.00000941,0.00069636,-0.00017
 343,0.00008494,-0.00064649,-0.00029775,0.00047566,-0.08824060,0.078041
 76,-0.00003840,0.00005404,-0.00003851,0.00008614,-0.00009385,0.0000250
 6,0.00001551,-0.00001389,0.00000506,-0.00001830,0.00001060,0.00000386,
 0.00000389,-0.00000917,-0.00002364,-0.00001065,0.00001057,-0.00000354,
 -0.00000276,0.00000262,0.00000329,0.00000225,-0.00000165,0.00000203,-0
 .00000032,0.00000090,-0.00000353,0.00000033,0.00000015,0.00000294,-0.0
 0000059,0.00000090,-0.00000386,0.00001178,-0.00000405,0.00002083,-0.00
 009831,0.00000630,0.00004689,-0.00000311,0.00003633,0.00001707,0.00000
 273,0.00001091,-0.00000149,-0.00000456,-0.00000477,-0.00001329,-0.0000
 0233,-0.00000867,0.00001044,-0.00000419,-0.00000738,-0.00000789,-0.000
 00177,0.00000578,0.00000874,0.00005364,-0.00002990,-0.00002616,-0.0000
 5358,0.00006684,-0.00006898,-0.00003637,0.00000695,-0.00004588,0.00053
 815,-0.00030076,0.00161300,-0.00002312,-0.00007257,-0.00004113,-0.0000
 6734,0.00009664,-0.00027479,-0.00013879,-0.00118776,0.00237513,-0.0036
 3573,0.00162941,-0.00566986,0.13617856,-0.04683766,-0.05738884,0.00453
 931,0.00556200,-0.00862540,0.00251543,-0.00357301,0.00531485,-0.000000
 24,-0.00000034,-0.00000227,-0.00000582,0.00000205,0.00000125,-0.000000
 55,0.00000027,0.00000045,-0.00000175,0.00000077,-0.00000086,-0.0000011
 2,-0.00000073,-0.00000252,0.00000099,-0.00000009,0.00000439,-0.0000056
 7,-0.00001239,0.00000479,-0.00000210,0.00000107,-0.00000508,0.00000216
 ,0.00000138,-0.00000133,0.00000049,-0.00000045,0.00000009,0.00000336,0
 .00000124,0.00000853,-0.00000144,-0.00000837,0.00000752,0.00003426,-0.
 00001139,0.00008578,0.00002445,0.00000210,0.00019753,0.00000110,-0.000
 00300,0.00001819,-0.00038114,0.00030341,-0.00112979,-0.00056187,0.0002
 6245,-0.00112489,-0.13891261,0.04410617,0.06472577\\-0.00000446,-0.000
 01697,0.00001731,0.00000223,0.00002942,-0.00003033,-0.00002055,-0.0000
 0893,-0.00000671,0.00001376,-0.00001957,-0.00002473,-0.00001608,0.0000
 3583,0.00001185,0.00000246,-0.00001960,0.00000372,-0.00000700,0.000008
 06,-0.00000961,0.00000339,-0.00000010,0.00000917,0.00000620,-0.0000063
 0,-0.00000881,-0.00000771,0.00000698,-0.00000053,0.00000630,0.00000211
 ,0.00000539,0.00000695,-0.00000680,0.00000525,0.00000860,-0.00000262,0
 .00001155,-0.00000355,-0.00001081,-0.00000176,-0.00000186,0.00000276,0
 .00001931,0.00000198,0.00000641,0.00000837,-0.00000265,-0.00000744,-0.
 00001698,0.00000298,0.00000585,0.00002038,0.00000182,-0.00000826,-0.00
 002203,-0.00000620,-0.00000577,-0.00000348,0.00000615,0.00000214,0.000
 00017,-0.00000518,-0.00000179,0.00000305,0.00000363,0.00000102,-0.0000
 0254,-0.00000806,0.00000133,0.00000278,0.00000832,0.00000332,-0.000000
 82,-0.00000766,-0.00000442,0.00000392,0.00000202,-0.00000004,-0.000000
 57,-0.00000296,0.00000105,-0.00000079,0.00000066,0.00001053,0.00000552
 ,0.00000817,-0.00000568,-0.00000242,0.00000497,0.00000270,0.00000134,-
 0.00000006,0.00000158,0.00000398,0.00000082,-0.00000238,-0.00000231,0.
 00000084,-0.00000113,0.00000022,0.00000118,-0.00000089,0.00000054,-0.0
 0000219,-0.00000121,-0.00000100,0.00000190,0.00000022,-0.00000018,0.00
 000153,0.00000238,-0.00000126,0.00000208,0.00000791,-0.00000088,0.0000
 0103,0.00000217,-0.00000606,-0.00000340,-0.00000288,-0.00000196,-0.000
 00095,0.00000110,0.00000281,0.00000022,0.00000217,0.00000182,0.0000007
 9,-0.00000194,-0.00000025,0.00000101,-0.00000240,0.00000115,-0.0000004
 3,0.00000239,0.00000314,0.00000091,-0.00000244,-0.00000014,-0.00000194
 ,0.00000094,0.00000339\\\@


 THERE IS AN OLD, OLD RECIPE IN MAINE FOR STEWING COOT. PLACE THE
 BIRD IN A KETTLE OF WATER WITH A RED BUILDING BRICK FREE OF MORTAR AND
 BLEMISHES. PARBOIL THE COOT AND BRICK TOGETHER FOR THREE HOURS.
 POUR OFF THE WATER, REFILL THE KETTLE, AND AGAIN PARBOIL FOR THREE HOURS.
 ONCE AGAIN POUR OFF THE WATER, FOR THE LAST TIME ADD FRESH WATER,
 AND LET THE COOT AND BRICK SIMMER TOGETHER OVERNIGHT. IN THE MORNING,
 THROW AWAY THE COOT AND EAT THE BRICK.
 Job cpu time:  0 days 17 hours 33 minutes 53.7 seconds.
 File lengths (MBytes):  RWF=   1500 Int=      0 D2E=      0 Chk=     22 Scr=      1
 Normal termination of Gaussian 09 at Sun Sep  4 06:31:20 2022.
