 Entering Gaussian System, Link 0=g09
 Input=Mol24.gjf
 Output=Mol24.log
 Initial command:
 /opt/gaussian/l1.exe /home/scr/lqcapf-6/Gau-216906.inp -scrdir=/home/scr/lqcapf-6/
 Entering Link 1 = /opt/gaussian/l1.exe PID=    216908.
  
 Copyright (c) 1988,1990,1992,1993,1995,1998,2003,2009,2011,
            Gaussian, Inc.  All Rights Reserved.
  
 This is part of the Gaussian(R) 09 program.  It is based on
 the Gaussian(R) 03 system (copyright 2003, Gaussian, Inc.),
 the Gaussian(R) 98 system (copyright 1998, Gaussian, Inc.),
 the Gaussian(R) 94 system (copyright 1995, Gaussian, Inc.),
 the Gaussian 92(TM) system (copyright 1992, Gaussian, Inc.),
 the Gaussian 90(TM) system (copyright 1990, Gaussian, Inc.),
 the Gaussian 88(TM) system (copyright 1988, Gaussian, Inc.),
 the Gaussian 86(TM) system (copyright 1986, Carnegie Mellon
 University), and the Gaussian 82(TM) system (copyright 1983,
 Carnegie Mellon University). Gaussian is a federally registered
 trademark of Gaussian, Inc.
  
 This software contains proprietary and confidential information,
 including trade secrets, belonging to Gaussian, Inc.
  
 This software is provided under written license and may be
 used, copied, transmitted, or stored only in accord with that
 written license.
  
 The following legend is applicable only to US Government
 contracts under FAR:
  
                    RESTRICTED RIGHTS LEGEND
  
 Use, reproduction and disclosure by the US Government is
 subject to restrictions as set forth in subparagraphs (a)
 and (c) of the Commercial Computer Software - Restricted
 Rights clause in FAR 52.227-19.
  
 Gaussian, Inc.
 340 Quinnipiac St., Bldg. 40, Wallingford CT 06492
  
  
 ---------------------------------------------------------------
 Warning -- This program may not be used in any manner that
 competes with the business of Gaussian, Inc. or will provide
 assistance to any competitor of Gaussian, Inc.  The licensee
 of this program is prohibited from giving any competitor of
 Gaussian, Inc. access to this program.  By using this program,
 the user acknowledges that Gaussian, Inc. is engaged in the
 business of creating and licensing software in the field of
 computational chemistry and represents and warrants to the
 licensee that it is not a competitor of Gaussian, Inc. and that
 it will not use this program in any manner prohibited above.
 ---------------------------------------------------------------
  

 Cite this work as:
 Gaussian 09, Revision C.01,
 M. J. Frisch, G. W. Trucks, H. B. Schlegel, G. E. Scuseria, 
 M. A. Robb, J. R. Cheeseman, G. Scalmani, V. Barone, B. Mennucci, 
 G. A. Petersson, H. Nakatsuji, M. Caricato, X. Li, H. P. Hratchian, 
 A. F. Izmaylov, J. Bloino, G. Zheng, J. L. Sonnenberg, M. Hada, 
 M. Ehara, K. Toyota, R. Fukuda, J. Hasegawa, M. Ishida, T. Nakajima, 
 Y. Honda, O. Kitao, H. Nakai, T. Vreven, J. A. Montgomery, Jr., 
 J. E. Peralta, F. Ogliaro, M. Bearpark, J. J. Heyd, E. Brothers, 
 K. N. Kudin, V. N. Staroverov, T. Keith, R. Kobayashi, J. Normand, 
 K. Raghavachari, A. Rendell, J. C. Burant, S. S. Iyengar, J. Tomasi, 
 M. Cossi, N. Rega, J. M. Millam, M. Klene, J. E. Knox, J. B. Cross, 
 V. Bakken, C. Adamo, J. Jaramillo, R. Gomperts, R. E. Stratmann, 
 O. Yazyev, A. J. Austin, R. Cammi, C. Pomelli, J. W. Ochterski, 
 R. L. Martin, K. Morokuma, V. G. Zakrzewski, G. A. Voth, 
 P. Salvador, J. J. Dannenberg, S. Dapprich, A. D. Daniels, 
 O. Farkas, J. B. Foresman, J. V. Ortiz, J. Cioslowski, 
 and D. J. Fox, Gaussian, Inc., Wallingford CT, 2010.
 
 ******************************************
 Gaussian 09:  EM64L-G09RevC.01 23-Sep-2011
                 4-Sep-2022 
 ******************************************
 %nprocshared=8
 Will use up to    8 processors via shared memory.
 %mem=1600MB
 -------------------------
 #p opt freq b3lyp/cc-pvdz
 -------------------------
 1/14=-1,18=20,19=15,26=3,38=1/1,3;
 2/9=110,12=2,17=6,18=5,40=1/2;
 3/5=16,11=2,16=1,25=1,30=1,71=1,74=-5/1,2,3;
 4//1;
 5/5=2,38=5/2;
 6/7=2,8=2,9=2,10=2,28=1/1;
 7//1,2,3,16;
 1/14=-1,18=20,19=15/3(2);
 2/9=110/2;
 99//99;
 2/9=110/2;
 3/5=16,11=2,16=1,25=1,30=1,71=1,74=-5/1,2,3;
 4/5=5,16=3/1;
 5/5=2,38=5/2;
 7//1,2,3,16;
 1/14=-1,18=20,19=15/3(-5);
 2/9=110/2;
 6/7=2,8=2,9=2,10=2,19=2,28=1/1;
 99/9=1/99;
 Leave Link    1 at Sun Sep  4 16:46:36 2022, MaxMem=  209715200 cpu:       0.2
 (Enter /opt/gaussian/l101.exe)
 ---------
 Mol24.log
 ---------
 Charge =  0 Multiplicity = 1
 Symbolic Z-Matrix:
 O                     1.01737  -0.55076   2.14188 
 C                     1.41503   0.29201   1.33852 
 C                     2.88024   0.70523   1.41829 
 N                     3.68201   0.04283   0.41475 
 N                     4.36267   0.77214  -0.51577 
 N                     5.05172  -0.00552  -1.24427 
 C                     4.86245  -1.30863  -0.81436 
 C                     5.40375  -2.50707  -1.28108 
 C                     5.02765  -3.65777  -0.63407 
 C                     4.12703  -3.62275   0.45554 
 C                     3.5855   -2.44886   0.92236 
 C                     3.97935  -1.28174   0.25838 
 N                     0.61515   0.84104   0.3897 
 C                     1.05106   1.90729  -0.53465 
 C                     0.78863   3.31505  -0.01982 
 C                     1.22729   4.48697  -0.94376 
 C                    -0.08174   5.23134  -0.57121 
 C                    -0.65734   3.8922   -0.04038 
 C                    -0.74108   0.37878   0.27786 
 C                    -1.6724    0.65195   1.26834 
 C                    -2.97935   0.21651   1.13335 
 C                    -3.38746  -0.49362   0.00459 
 C                    -2.44086  -0.76489  -0.98114 
 C                    -1.12906  -0.34041  -0.84216 
 C                    -4.79175  -0.95279  -0.14023 
 C                    -5.87058  -0.12523   0.16438 
 C                    -7.16434  -0.59757   0.01175 
 C                    -7.35132  -1.89076  -0.44746 
 N                    -6.32741  -2.69034  -0.73923 
 C                    -5.08579  -2.23928  -0.58892 
 H                     3.0299    1.76411   1.29373 
 H                     3.2183    0.41571   2.40147 
 H                     6.08357  -2.5122   -2.10896 
 H                     5.4166   -4.6039   -0.95482 
 H                     3.8557   -4.54623   0.92896 
 H                     2.88791  -2.42695   1.7344 
 H                     2.10061   1.78607  -0.75319 
 H                     0.52386   1.75839  -1.46708 
 H                     1.22368   3.43051   0.96797 
 H                     2.16482   4.97299  -0.71188 
 H                     1.24419   4.19273  -1.9875 
 H                     0.06999   5.9557    0.21912 
 H                    -0.61896   5.71153  -1.37715 
 H                    -1.28029   3.39619  -0.77486 
 H                    -1.19244   3.91913   0.89835 
 H                    -1.36869   1.17988   2.14946 
 H                    -3.68075   0.41149   1.92121 
 H                    -2.72903  -1.30002  -1.86492 
 H                    -0.40758  -0.56951  -1.60235 
 H                    -5.69894   0.87939   0.49928 
 H                    -8.00734   0.02492   0.23572 
 H                    -8.33106  -2.29896  -0.58575 
 H                    -4.30142  -2.93159  -0.81727 
 
 NAtoms=     53 NQM=        0 NQMF=       0 NMMI=     53 NMMIF=      0
                NMic=       0 NMicF=      0.
                    Isotopes and Nuclear Properties:
 (Nuclear quadrupole moments (NQMom) in fm**2, nuclear magnetic moments (NMagM)
  in nuclear magnetons)

  Atom         1           2           3           4           5           6           7           8           9          10
 IAtWgt=          16          12          12          14          14          14          12          12          12          12
 AtmWgt=  15.9949146  12.0000000  12.0000000  14.0030740  14.0030740  14.0030740  12.0000000  12.0000000  12.0000000  12.0000000
 NucSpn=           0           0           0           2           2           2           0           0           0           0
 AtZEff=   0.0000000   0.0000000   0.0000000   0.0000000   0.0000000   0.0000000   0.0000000   0.0000000   0.0000000   0.0000000
 NQMom=    0.0000000   0.0000000   0.0000000   2.0440000   2.0440000   2.0440000   0.0000000   0.0000000   0.0000000   0.0000000
 NMagM=    0.0000000   0.0000000   0.0000000   0.4037610   0.4037610   0.4037610   0.0000000   0.0000000   0.0000000   0.0000000

  Atom        11          12          13          14          15          16          17          18          19          20
 IAtWgt=          12          12          14          12          12          12          12          12          12          12
 AtmWgt=  12.0000000  12.0000000  14.0030740  12.0000000  12.0000000  12.0000000  12.0000000  12.0000000  12.0000000  12.0000000
 NucSpn=           0           0           2           0           0           0           0           0           0           0
 AtZEff=   0.0000000   0.0000000   0.0000000   0.0000000   0.0000000   0.0000000   0.0000000   0.0000000   0.0000000   0.0000000
 NQMom=    0.0000000   0.0000000   2.0440000   0.0000000   0.0000000   0.0000000   0.0000000   0.0000000   0.0000000   0.0000000
 NMagM=    0.0000000   0.0000000   0.4037610   0.0000000   0.0000000   0.0000000   0.0000000   0.0000000   0.0000000   0.0000000

  Atom        21          22          23          24          25          26          27          28          29          30
 IAtWgt=          12          12          12          12          12          12          12          12          14          12
 AtmWgt=  12.0000000  12.0000000  12.0000000  12.0000000  12.0000000  12.0000000  12.0000000  12.0000000  14.0030740  12.0000000
 NucSpn=           0           0           0           0           0           0           0           0           2           0
 AtZEff=   0.0000000   0.0000000   0.0000000   0.0000000   0.0000000   0.0000000   0.0000000   0.0000000   0.0000000   0.0000000
 NQMom=    0.0000000   0.0000000   0.0000000   0.0000000   0.0000000   0.0000000   0.0000000   0.0000000   2.0440000   0.0000000
 NMagM=    0.0000000   0.0000000   0.0000000   0.0000000   0.0000000   0.0000000   0.0000000   0.0000000   0.4037610   0.0000000

  Atom        31          32          33          34          35          36          37          38          39          40
 IAtWgt=           1           1           1           1           1           1           1           1           1           1
 AtmWgt=   1.0078250   1.0078250   1.0078250   1.0078250   1.0078250   1.0078250   1.0078250   1.0078250   1.0078250   1.0078250
 NucSpn=           1           1           1           1           1           1           1           1           1           1
 AtZEff=   0.0000000   0.0000000   0.0000000   0.0000000   0.0000000   0.0000000   0.0000000   0.0000000   0.0000000   0.0000000
 NQMom=    0.0000000   0.0000000   0.0000000   0.0000000   0.0000000   0.0000000   0.0000000   0.0000000   0.0000000   0.0000000
 NMagM=    2.7928460   2.7928460   2.7928460   2.7928460   2.7928460   2.7928460   2.7928460   2.7928460   2.7928460   2.7928460

  Atom        41          42          43          44          45          46          47          48          49          50
 IAtWgt=           1           1           1           1           1           1           1           1           1           1
 AtmWgt=   1.0078250   1.0078250   1.0078250   1.0078250   1.0078250   1.0078250   1.0078250   1.0078250   1.0078250   1.0078250
 NucSpn=           1           1           1           1           1           1           1           1           1           1
 AtZEff=   0.0000000   0.0000000   0.0000000   0.0000000   0.0000000   0.0000000   0.0000000   0.0000000   0.0000000   0.0000000
 NQMom=    0.0000000   0.0000000   0.0000000   0.0000000   0.0000000   0.0000000   0.0000000   0.0000000   0.0000000   0.0000000
 NMagM=    2.7928460   2.7928460   2.7928460   2.7928460   2.7928460   2.7928460   2.7928460   2.7928460   2.7928460   2.7928460

  Atom        51          52          53
 IAtWgt=           1           1           1
 AtmWgt=   1.0078250   1.0078250   1.0078250
 NucSpn=           1           1           1
 AtZEff=   0.0000000   0.0000000   0.0000000
 NQMom=    0.0000000   0.0000000   0.0000000
 NMagM=    2.7928460   2.7928460   2.7928460
 Leave Link  101 at Sun Sep  4 16:46:36 2022, MaxMem=  209715200 cpu:       0.9
 (Enter /opt/gaussian/l103.exe)

 GradGradGradGradGradGradGradGradGradGradGradGradGradGradGradGradGradGrad
 Berny optimization.
 Initialization pass.
                           ----------------------------
                           !    Initial Parameters    !
                           ! (Angstroms and Degrees)  !
 --------------------------                            --------------------------
 ! Name  Definition              Value          Derivative Info.                !
 --------------------------------------------------------------------------------
 ! R1    R(1,2)                  1.2304         estimate D2E/DX2                !
 ! R2    R(2,3)                  1.5245         estimate D2E/DX2                !
 ! R3    R(2,13)                 1.357          estimate D2E/DX2                !
 ! R4    R(3,4)                  1.4452         estimate D2E/DX2                !
 ! R5    R(3,31)                 1.0766         estimate D2E/DX2                !
 ! R6    R(3,32)                 1.0792         estimate D2E/DX2                !
 ! R7    R(4,5)                  1.3642         estimate D2E/DX2                !
 ! R8    R(4,12)                 1.3665         estimate D2E/DX2                !
 ! R9    R(5,6)                  1.269          estimate D2E/DX2                !
 ! R10   R(6,7)                  1.3852         estimate D2E/DX2                !
 ! R11   R(7,8)                  1.3954         estimate D2E/DX2                !
 ! R12   R(7,12)                 1.3897         estimate D2E/DX2                !
 ! R13   R(8,9)                  1.3727         estimate D2E/DX2                !
 ! R14   R(8,33)                 1.0712         estimate D2E/DX2                !
 ! R15   R(9,10)                 1.4141         estimate D2E/DX2                !
 ! R16   R(9,34)                 1.0721         estimate D2E/DX2                !
 ! R17   R(10,11)                1.3745         estimate D2E/DX2                !
 ! R18   R(10,35)                1.0726         estimate D2E/DX2                !
 ! R19   R(11,12)                1.3993         estimate D2E/DX2                !
 ! R20   R(11,36)                1.0708         estimate D2E/DX2                !
 ! R21   R(13,14)                1.4769         estimate D2E/DX2                !
 ! R22   R(13,19)                1.4372         estimate D2E/DX2                !
 ! R23   R(14,15)                1.5217         estimate D2E/DX2                !
 ! R24   R(14,37)                1.0789         estimate D2E/DX2                !
 ! R25   R(14,38)                1.0815         estimate D2E/DX2                !
 ! R26   R(15,16)                1.5555         estimate D2E/DX2                !
 ! R27   R(15,18)                1.557          estimate D2E/DX2                !
 ! R28   R(15,39)                1.0855         estimate D2E/DX2                !
 ! R29   R(16,17)                1.5513         estimate D2E/DX2                !
 ! R30   R(16,40)                1.0812         estimate D2E/DX2                !
 ! R31   R(16,41)                1.0846         estimate D2E/DX2                !
 ! R32   R(17,18)                1.5513         estimate D2E/DX2                !
 ! R33   R(17,42)                1.0827         estimate D2E/DX2                !
 ! R34   R(17,43)                1.0811         estimate D2E/DX2                !
 ! R35   R(18,44)                1.0833         estimate D2E/DX2                !
 ! R36   R(18,45)                1.0809         estimate D2E/DX2                !
 ! R37   R(19,20)                1.3867         estimate D2E/DX2                !
 ! R38   R(19,24)                1.3864         estimate D2E/DX2                !
 ! R39   R(20,21)                1.3842         estimate D2E/DX2                !
 ! R40   R(20,46)                1.0711         estimate D2E/DX2                !
 ! R41   R(21,22)                1.3946         estimate D2E/DX2                !
 ! R42   R(21,47)                1.0727         estimate D2E/DX2                !
 ! R43   R(22,23)                1.3933         estimate D2E/DX2                !
 ! R44   R(22,25)                1.4845         estimate D2E/DX2                !
 ! R45   R(23,24)                1.3858         estimate D2E/DX2                !
 ! R46   R(23,48)                1.0726         estimate D2E/DX2                !
 ! R47   R(24,49)                1.0728         estimate D2E/DX2                !
 ! R48   R(25,26)                1.3934         estimate D2E/DX2                !
 ! R49   R(25,30)                1.3939         estimate D2E/DX2                !
 ! R50   R(26,27)                1.3857         estimate D2E/DX2                !
 ! R51   R(26,50)                1.0728         estimate D2E/DX2                !
 ! R52   R(27,28)                1.385          estimate D2E/DX2                !
 ! R53   R(27,51)                1.0716         estimate D2E/DX2                !
 ! R54   R(28,29)                1.3315         estimate D2E/DX2                !
 ! R55   R(28,52)                1.0703         estimate D2E/DX2                !
 ! R56   R(29,30)                1.3295         estimate D2E/DX2                !
 ! R57   R(30,53)                1.0708         estimate D2E/DX2                !
 ! A1    A(1,2,3)              117.526          estimate D2E/DX2                !
 ! A2    A(1,2,13)             122.899          estimate D2E/DX2                !
 ! A3    A(3,2,13)             119.5677         estimate D2E/DX2                !
 ! A4    A(2,3,4)              111.8784         estimate D2E/DX2                !
 ! A5    A(2,3,31)             113.2125         estimate D2E/DX2                !
 ! A6    A(2,3,32)             106.0229         estimate D2E/DX2                !
 ! A7    A(4,3,31)             107.0571         estimate D2E/DX2                !
 ! A8    A(4,3,32)             109.624          estimate D2E/DX2                !
 ! A9    A(31,3,32)            109.0076         estimate D2E/DX2                !
 ! A10   A(3,4,5)              120.3581         estimate D2E/DX2                !
 ! A11   A(3,4,12)             130.1235         estimate D2E/DX2                !
 ! A12   A(5,4,12)             109.3646         estimate D2E/DX2                !
 ! A13   A(4,5,6)              109.5659         estimate D2E/DX2                !
 ! A14   A(5,6,7)              108.914          estimate D2E/DX2                !
 ! A15   A(6,7,8)              130.6289         estimate D2E/DX2                !
 ! A16   A(6,7,12)             107.9504         estimate D2E/DX2                !
 ! A17   A(8,7,12)             121.4197         estimate D2E/DX2                !
 ! A18   A(7,8,9)              117.1319         estimate D2E/DX2                !
 ! A19   A(7,8,33)             120.5826         estimate D2E/DX2                !
 ! A20   A(9,8,33)             122.2855         estimate D2E/DX2                !
 ! A21   A(8,9,10)             121.1278         estimate D2E/DX2                !
 ! A22   A(8,9,34)             119.96           estimate D2E/DX2                !
 ! A23   A(10,9,34)            118.912          estimate D2E/DX2                !
 ! A24   A(9,10,11)            122.2617         estimate D2E/DX2                !
 ! A25   A(9,10,35)            118.6772         estimate D2E/DX2                !
 ! A26   A(11,10,35)           119.0605         estimate D2E/DX2                !
 ! A27   A(10,11,12)           116.1221         estimate D2E/DX2                !
 ! A28   A(10,11,36)           122.1223         estimate D2E/DX2                !
 ! A29   A(12,11,36)           121.7454         estimate D2E/DX2                !
 ! A30   A(4,12,7)             104.2026         estimate D2E/DX2                !
 ! A31   A(4,12,11)            133.8612         estimate D2E/DX2                !
 ! A32   A(7,12,11)            121.9362         estimate D2E/DX2                !
 ! A33   A(2,13,14)            123.7597         estimate D2E/DX2                !
 ! A34   A(2,13,19)            118.7187         estimate D2E/DX2                !
 ! A35   A(14,13,19)           117.5173         estimate D2E/DX2                !
 ! A36   A(13,14,15)           113.9051         estimate D2E/DX2                !
 ! A37   A(13,14,37)           109.4375         estimate D2E/DX2                !
 ! A38   A(13,14,38)           107.2376         estimate D2E/DX2                !
 ! A39   A(15,14,37)           109.891          estimate D2E/DX2                !
 ! A40   A(15,14,38)           109.5725         estimate D2E/DX2                !
 ! A41   A(37,14,38)           106.5061         estimate D2E/DX2                !
 ! A42   A(14,15,16)           116.5766         estimate D2E/DX2                !
 ! A43   A(14,15,18)           119.9069         estimate D2E/DX2                !
 ! A44   A(14,15,39)           109.7028         estimate D2E/DX2                !
 ! A45   A(16,15,18)            88.5549         estimate D2E/DX2                !
 ! A46   A(16,15,39)           110.326          estimate D2E/DX2                !
 ! A47   A(18,15,39)           110.1685         estimate D2E/DX2                !
 ! A48   A(15,16,17)            88.9055         estimate D2E/DX2                !
 ! A49   A(15,16,40)           117.1185         estimate D2E/DX2                !
 ! A50   A(15,16,41)           111.8164         estimate D2E/DX2                !
 ! A51   A(17,16,40)           117.679          estimate D2E/DX2                !
 ! A52   A(17,16,41)           111.9904         estimate D2E/DX2                !
 ! A53   A(40,16,41)           108.3514         estimate D2E/DX2                !
 ! A54   A(16,17,18)            88.9148         estimate D2E/DX2                !
 ! A55   A(16,17,42)           112.2139         estimate D2E/DX2                !
 ! A56   A(16,17,43)           116.964          estimate D2E/DX2                !
 ! A57   A(18,17,42)           112.3178         estimate D2E/DX2                !
 ! A58   A(18,17,43)           117.0108         estimate D2E/DX2                !
 ! A59   A(42,17,43)           108.46           estimate D2E/DX2                !
 ! A60   A(15,18,17)            88.8494         estimate D2E/DX2                !
 ! A61   A(15,18,44)           111.9169         estimate D2E/DX2                !
 ! A62   A(15,18,45)           117.2272         estimate D2E/DX2                !
 ! A63   A(17,18,44)           112.1248         estimate D2E/DX2                !
 ! A64   A(17,18,45)           117.3473         estimate D2E/DX2                !
 ! A65   A(44,18,45)           108.3948         estimate D2E/DX2                !
 ! A66   A(13,19,20)           120.985          estimate D2E/DX2                !
 ! A67   A(13,19,24)           119.5895         estimate D2E/DX2                !
 ! A68   A(20,19,24)           119.4227         estimate D2E/DX2                !
 ! A69   A(19,20,21)           120.1653         estimate D2E/DX2                !
 ! A70   A(19,20,46)           119.6181         estimate D2E/DX2                !
 ! A71   A(21,20,46)           120.1983         estimate D2E/DX2                !
 ! A72   A(20,21,22)           121.0258         estimate D2E/DX2                !
 ! A73   A(20,21,47)           119.2467         estimate D2E/DX2                !
 ! A74   A(22,21,47)           119.7135         estimate D2E/DX2                !
 ! A75   A(21,22,23)           118.2251         estimate D2E/DX2                !
 ! A76   A(21,22,25)           120.8818         estimate D2E/DX2                !
 ! A77   A(23,22,25)           120.8927         estimate D2E/DX2                !
 ! A78   A(22,23,24)           120.8332         estimate D2E/DX2                !
 ! A79   A(22,23,48)           119.8372         estimate D2E/DX2                !
 ! A80   A(24,23,48)           119.3266         estimate D2E/DX2                !
 ! A81   A(19,24,23)           120.3195         estimate D2E/DX2                !
 ! A82   A(19,24,49)           119.6708         estimate D2E/DX2                !
 ! A83   A(23,24,49)           120.0096         estimate D2E/DX2                !
 ! A84   A(22,25,26)           121.8282         estimate D2E/DX2                !
 ! A85   A(22,25,30)           121.0932         estimate D2E/DX2                !
 ! A86   A(26,25,30)           117.0786         estimate D2E/DX2                !
 ! A87   A(25,26,27)           119.7586         estimate D2E/DX2                !
 ! A88   A(25,26,50)           120.0364         estimate D2E/DX2                !
 ! A89   A(27,26,50)           120.1963         estimate D2E/DX2                !
 ! A90   A(26,27,28)           118.7401         estimate D2E/DX2                !
 ! A91   A(26,27,51)           120.8937         estimate D2E/DX2                !
 ! A92   A(28,27,51)           120.3643         estimate D2E/DX2                !
 ! A93   A(27,28,29)           121.9754         estimate D2E/DX2                !
 ! A94   A(27,28,52)           121.5008         estimate D2E/DX2                !
 ! A95   A(29,28,52)           116.5238         estimate D2E/DX2                !
 ! A96   A(28,29,30)           119.3171         estimate D2E/DX2                !
 ! A97   A(25,30,29)           123.129          estimate D2E/DX2                !
 ! A98   A(25,30,53)           120.7199         estimate D2E/DX2                !
 ! A99   A(29,30,53)           116.1425         estimate D2E/DX2                !
 ! D1    D(1,2,3,4)            100.257          estimate D2E/DX2                !
 ! D2    D(1,2,3,31)          -138.6691         estimate D2E/DX2                !
 ! D3    D(1,2,3,32)           -19.2059         estimate D2E/DX2                !
 ! D4    D(13,2,3,4)           -78.7873         estimate D2E/DX2                !
 ! D5    D(13,2,3,31)           42.2866         estimate D2E/DX2                !
 ! D6    D(13,2,3,32)          161.7498         estimate D2E/DX2                !
 ! D7    D(1,2,13,14)          176.4616         estimate D2E/DX2                !
 ! D8    D(1,2,13,19)           -2.7563         estimate D2E/DX2                !
 ! D9    D(3,2,13,14)           -4.5478         estimate D2E/DX2                !
 ! D10   D(3,2,13,19)          176.2343         estimate D2E/DX2                !
 ! D11   D(2,3,4,5)            120.0058         estimate D2E/DX2                !
 ! D12   D(2,3,4,12)           -65.013          estimate D2E/DX2                !
 ! D13   D(31,3,4,5)            -4.569          estimate D2E/DX2                !
 ! D14   D(31,3,4,12)          170.4121         estimate D2E/DX2                !
 ! D15   D(32,3,4,5)          -122.6738         estimate D2E/DX2                !
 ! D16   D(32,3,4,12)           52.3073         estimate D2E/DX2                !
 ! D17   D(3,4,5,6)            176.4601         estimate D2E/DX2                !
 ! D18   D(12,4,5,6)             0.5262         estimate D2E/DX2                !
 ! D19   D(3,4,12,7)          -175.7782         estimate D2E/DX2                !
 ! D20   D(3,4,12,11)            4.1513         estimate D2E/DX2                !
 ! D21   D(5,4,12,7)            -0.3676         estimate D2E/DX2                !
 ! D22   D(5,4,12,11)          179.5618         estimate D2E/DX2                !
 ! D23   D(4,5,6,7)             -0.4483         estimate D2E/DX2                !
 ! D24   D(5,6,7,8)           -179.4372         estimate D2E/DX2                !
 ! D25   D(5,6,7,12)             0.2139         estimate D2E/DX2                !
 ! D26   D(6,7,8,9)            179.5364         estimate D2E/DX2                !
 ! D27   D(6,7,8,33)            -0.3717         estimate D2E/DX2                !
 ! D28   D(12,7,8,9)            -0.0746         estimate D2E/DX2                !
 ! D29   D(12,7,8,33)         -179.9827         estimate D2E/DX2                !
 ! D30   D(6,7,12,4)             0.104          estimate D2E/DX2                !
 ! D31   D(6,7,12,11)         -179.836          estimate D2E/DX2                !
 ! D32   D(8,7,12,4)           179.7937         estimate D2E/DX2                !
 ! D33   D(8,7,12,11)           -0.1463         estimate D2E/DX2                !
 ! D34   D(7,8,9,10)             0.1692         estimate D2E/DX2                !
 ! D35   D(7,8,9,34)          -179.9697         estimate D2E/DX2                !
 ! D36   D(33,8,9,10)         -179.9243         estimate D2E/DX2                !
 ! D37   D(33,8,9,34)           -0.0632         estimate D2E/DX2                !
 ! D38   D(8,9,10,11)           -0.0493         estimate D2E/DX2                !
 ! D39   D(8,9,10,35)          179.6643         estimate D2E/DX2                !
 ! D40   D(34,9,10,11)        -179.9118         estimate D2E/DX2                !
 ! D41   D(34,9,10,35)          -0.1982         estimate D2E/DX2                !
 ! D42   D(9,10,11,12)          -0.1642         estimate D2E/DX2                !
 ! D43   D(9,10,11,36)         178.6912         estimate D2E/DX2                !
 ! D44   D(35,10,11,12)       -179.8768         estimate D2E/DX2                !
 ! D45   D(35,10,11,36)         -1.0213         estimate D2E/DX2                !
 ! D46   D(10,11,12,4)        -179.6598         estimate D2E/DX2                !
 ! D47   D(10,11,12,7)           0.2596         estimate D2E/DX2                !
 ! D48   D(36,11,12,4)           1.4801         estimate D2E/DX2                !
 ! D49   D(36,11,12,7)        -178.6005         estimate D2E/DX2                !
 ! D50   D(2,13,14,15)         -91.0702         estimate D2E/DX2                !
 ! D51   D(2,13,14,37)          32.3701         estimate D2E/DX2                !
 ! D52   D(2,13,14,38)         147.5176         estimate D2E/DX2                !
 ! D53   D(19,13,14,15)         88.1565         estimate D2E/DX2                !
 ! D54   D(19,13,14,37)       -148.4033         estimate D2E/DX2                !
 ! D55   D(19,13,14,38)        -33.2557         estimate D2E/DX2                !
 ! D56   D(2,13,19,20)          68.8549         estimate D2E/DX2                !
 ! D57   D(2,13,19,24)        -111.7544         estimate D2E/DX2                !
 ! D58   D(14,13,19,20)       -110.412          estimate D2E/DX2                !
 ! D59   D(14,13,19,24)         68.9788         estimate D2E/DX2                !
 ! D60   D(13,14,15,16)        179.8522         estimate D2E/DX2                !
 ! D61   D(13,14,15,18)        -75.362          estimate D2E/DX2                !
 ! D62   D(13,14,15,39)         53.5746         estimate D2E/DX2                !
 ! D63   D(37,14,15,16)         56.6585         estimate D2E/DX2                !
 ! D64   D(37,14,15,18)        161.4443         estimate D2E/DX2                !
 ! D65   D(37,14,15,39)        -69.619          estimate D2E/DX2                !
 ! D66   D(38,14,15,16)        -60.0411         estimate D2E/DX2                !
 ! D67   D(38,14,15,18)         44.7447         estimate D2E/DX2                !
 ! D68   D(38,14,15,39)        173.6813         estimate D2E/DX2                !
 ! D69   D(14,15,16,17)        139.4297         estimate D2E/DX2                !
 ! D70   D(14,15,16,40)        -99.7597         estimate D2E/DX2                !
 ! D71   D(14,15,16,41)         26.116          estimate D2E/DX2                !
 ! D72   D(18,15,16,17)         16.4011         estimate D2E/DX2                !
 ! D73   D(18,15,16,40)        137.2118         estimate D2E/DX2                !
 ! D74   D(18,15,16,41)        -96.9126         estimate D2E/DX2                !
 ! D75   D(39,15,16,17)        -94.6038         estimate D2E/DX2                !
 ! D76   D(39,15,16,40)         26.2069         estimate D2E/DX2                !
 ! D77   D(39,15,16,41)        152.0825         estimate D2E/DX2                !
 ! D78   D(14,15,18,17)       -136.5191         estimate D2E/DX2                !
 ! D79   D(14,15,18,44)        -23.068          estimate D2E/DX2                !
 ! D80   D(14,15,18,45)        103.0568         estimate D2E/DX2                !
 ! D81   D(16,15,18,17)        -16.4016         estimate D2E/DX2                !
 ! D82   D(16,15,18,44)         97.0495         estimate D2E/DX2                !
 ! D83   D(16,15,18,45)       -136.8256         estimate D2E/DX2                !
 ! D84   D(39,15,18,17)         94.754          estimate D2E/DX2                !
 ! D85   D(39,15,18,44)       -151.7948         estimate D2E/DX2                !
 ! D86   D(39,15,18,45)        -25.67           estimate D2E/DX2                !
 ! D87   D(15,16,17,18)        -16.4616         estimate D2E/DX2                !
 ! D88   D(15,16,17,42)         97.2746         estimate D2E/DX2                !
 ! D89   D(15,16,17,43)       -136.4619         estimate D2E/DX2                !
 ! D90   D(40,16,17,18)       -136.7803         estimate D2E/DX2                !
 ! D91   D(40,16,17,42)        -23.0441         estimate D2E/DX2                !
 ! D92   D(40,16,17,43)        103.2194         estimate D2E/DX2                !
 ! D93   D(41,16,17,18)         96.689          estimate D2E/DX2                !
 ! D94   D(41,16,17,42)       -149.5748         estimate D2E/DX2                !
 ! D95   D(41,16,17,43)        -23.3113         estimate D2E/DX2                !
 ! D96   D(16,17,18,15)         16.4449         estimate D2E/DX2                !
 ! D97   D(16,17,18,44)        -96.8114         estimate D2E/DX2                !
 ! D98   D(16,17,18,45)        136.7632         estimate D2E/DX2                !
 ! D99   D(42,17,18,15)        -97.1943         estimate D2E/DX2                !
 ! D100  D(42,17,18,44)        149.5494         estimate D2E/DX2                !
 ! D101  D(42,17,18,45)         23.124          estimate D2E/DX2                !
 ! D102  D(43,17,18,15)        136.404          estimate D2E/DX2                !
 ! D103  D(43,17,18,44)         23.1476         estimate D2E/DX2                !
 ! D104  D(43,17,18,45)       -103.2777         estimate D2E/DX2                !
 ! D105  D(13,19,20,21)        178.9826         estimate D2E/DX2                !
 ! D106  D(13,19,20,46)         -2.5715         estimate D2E/DX2                !
 ! D107  D(24,19,20,21)         -0.4091         estimate D2E/DX2                !
 ! D108  D(24,19,20,46)        178.0368         estimate D2E/DX2                !
 ! D109  D(13,19,24,23)       -178.3986         estimate D2E/DX2                !
 ! D110  D(13,19,24,49)          1.7182         estimate D2E/DX2                !
 ! D111  D(20,19,24,23)          1.0017         estimate D2E/DX2                !
 ! D112  D(20,19,24,49)       -178.8814         estimate D2E/DX2                !
 ! D113  D(19,20,21,22)         -0.3802         estimate D2E/DX2                !
 ! D114  D(19,20,21,47)        178.2578         estimate D2E/DX2                !
 ! D115  D(46,20,21,22)       -178.817          estimate D2E/DX2                !
 ! D116  D(46,20,21,47)         -0.1791         estimate D2E/DX2                !
 ! D117  D(20,21,22,23)          0.5663         estimate D2E/DX2                !
 ! D118  D(20,21,22,25)       -179.6686         estimate D2E/DX2                !
 ! D119  D(47,21,22,23)       -178.0654         estimate D2E/DX2                !
 ! D120  D(47,21,22,25)          1.6997         estimate D2E/DX2                !
 ! D121  D(21,22,23,24)          0.0304         estimate D2E/DX2                !
 ! D122  D(21,22,23,48)       -179.3398         estimate D2E/DX2                !
 ! D123  D(25,22,23,24)       -179.7346         estimate D2E/DX2                !
 ! D124  D(25,22,23,48)          0.8952         estimate D2E/DX2                !
 ! D125  D(21,22,25,26)         44.1192         estimate D2E/DX2                !
 ! D126  D(21,22,25,30)       -135.8339         estimate D2E/DX2                !
 ! D127  D(23,22,25,26)       -136.122          estimate D2E/DX2                !
 ! D128  D(23,22,25,30)         43.9248         estimate D2E/DX2                !
 ! D129  D(22,23,24,19)         -0.8165         estimate D2E/DX2                !
 ! D130  D(22,23,24,49)        179.0663         estimate D2E/DX2                !
 ! D131  D(48,23,24,19)        178.5569         estimate D2E/DX2                !
 ! D132  D(48,23,24,49)         -1.5603         estimate D2E/DX2                !
 ! D133  D(22,25,26,27)        179.9176         estimate D2E/DX2                !
 ! D134  D(22,25,26,50)          0.9886         estimate D2E/DX2                !
 ! D135  D(30,25,26,27)         -0.1275         estimate D2E/DX2                !
 ! D136  D(30,25,26,50)       -179.0565         estimate D2E/DX2                !
 ! D137  D(22,25,30,29)       -179.6883         estimate D2E/DX2                !
 ! D138  D(22,25,30,53)          1.4225         estimate D2E/DX2                !
 ! D139  D(26,25,30,29)          0.3565         estimate D2E/DX2                !
 ! D140  D(26,25,30,53)       -178.5328         estimate D2E/DX2                !
 ! D141  D(25,26,27,28)         -0.1793         estimate D2E/DX2                !
 ! D142  D(25,26,27,51)       -179.6765         estimate D2E/DX2                !
 ! D143  D(50,26,27,28)        178.7479         estimate D2E/DX2                !
 ! D144  D(50,26,27,51)         -0.7492         estimate D2E/DX2                !
 ! D145  D(26,27,28,29)          0.2961         estimate D2E/DX2                !
 ! D146  D(26,27,28,52)       -179.7232         estimate D2E/DX2                !
 ! D147  D(51,27,28,29)        179.796          estimate D2E/DX2                !
 ! D148  D(51,27,28,52)         -0.2233         estimate D2E/DX2                !
 ! D149  D(27,28,29,30)         -0.0823         estimate D2E/DX2                !
 ! D150  D(52,28,29,30)        179.9361         estimate D2E/DX2                !
 ! D151  D(28,29,30,25)         -0.255          estimate D2E/DX2                !
 ! D152  D(28,29,30,53)        178.6813         estimate D2E/DX2                !
 --------------------------------------------------------------------------------
 Trust Radius=3.00D-01 FncErr=1.00D-07 GrdErr=1.00D-06
 Number of steps in this run=    318 maximum allowed number of steps=    318.
 GradGradGradGradGradGradGradGradGradGradGradGradGradGradGradGradGradGrad

 Leave Link  103 at Sun Sep  4 16:46:36 2022, MaxMem=  209715200 cpu:       0.1
 (Enter /opt/gaussian/l202.exe)
 Stoichiometry    C24H23N5O
 Framework group  C1[X(C24H23N5O)]
 Deg. of freedom   153
 Full point group                 C1      NOp   1
 Largest Abelian subgroup         C1      NOp   1
 Largest concise Abelian subgroup C1      NOp   1
                         Standard orientation:                         
 ---------------------------------------------------------------------
 Center     Atomic      Atomic             Coordinates (Angstroms)
 Number     Number       Type             X           Y           Z
 ---------------------------------------------------------------------
      1          8           0        1.017370   -0.550761    2.141880
      2          6           0        1.415030    0.292009    1.338520
      3          6           0        2.880240    0.705229    1.418290
      4          7           0        3.682010    0.042829    0.414750
      5          7           0        4.362670    0.772139   -0.515770
      6          7           0        5.051720   -0.005521   -1.244270
      7          6           0        4.862450   -1.308631   -0.814360
      8          6           0        5.403750   -2.507071   -1.281080
      9          6           0        5.027649   -3.657771   -0.634070
     10          6           0        4.127029   -3.622751    0.455540
     11          6           0        3.585500   -2.448861    0.922360
     12          6           0        3.979350   -1.281741    0.258380
     13          7           0        0.615150    0.841039    0.389700
     14          6           0        1.051060    1.907289   -0.534650
     15          6           0        0.788630    3.315049   -0.019820
     16          6           0        1.227290    4.486969   -0.943760
     17          6           0       -0.081740    5.231339   -0.571210
     18          6           0       -0.657340    3.892200   -0.040380
     19          6           0       -0.741080    0.378780    0.277860
     20          6           0       -1.672400    0.651950    1.268340
     21          6           0       -2.979350    0.216510    1.133350
     22          6           0       -3.387460   -0.493620    0.004590
     23          6           0       -2.440860   -0.764890   -0.981140
     24          6           0       -1.129060   -0.340410   -0.842160
     25          6           0       -4.791750   -0.952790   -0.140230
     26          6           0       -5.870580   -0.125230    0.164380
     27          6           0       -7.164340   -0.597570    0.011750
     28          6           0       -7.351320   -1.890760   -0.447460
     29          7           0       -6.327410   -2.690340   -0.739230
     30          6           0       -5.085790   -2.239280   -0.588920
     31          1           0        3.029900    1.764109    1.293730
     32          1           0        3.218300    0.415709    2.401470
     33          1           0        6.083570   -2.512201   -2.108960
     34          1           0        5.416599   -4.603901   -0.954820
     35          1           0        3.855699   -4.546231    0.928960
     36          1           0        2.887910   -2.426951    1.734400
     37          1           0        2.100610    1.786069   -0.753190
     38          1           0        0.523860    1.758389   -1.467080
     39          1           0        1.223680    3.430509    0.967970
     40          1           0        2.164820    4.972989   -0.711880
     41          1           0        1.244190    4.192729   -1.987500
     42          1           0        0.069991    5.955699    0.219120
     43          1           0       -0.618960    5.711530   -1.377150
     44          1           0       -1.280290    3.396190   -0.774860
     45          1           0       -1.192440    3.919130    0.898350
     46          1           0       -1.368690    1.179880    2.149460
     47          1           0       -3.680750    0.411490    1.921210
     48          1           0       -2.729030   -1.300020   -1.864920
     49          1           0       -0.407580   -0.569510   -1.602350
     50          1           0       -5.698940    0.879390    0.499280
     51          1           0       -8.007340    0.024920    0.235720
     52          1           0       -8.331060   -2.298960   -0.585750
     53          1           0       -4.301420   -2.931590   -0.817270
 ---------------------------------------------------------------------
 Rotational constants (GHZ):      0.2235142      0.0796152      0.0635410
 Leave Link  202 at Sun Sep  4 16:46:36 2022, MaxMem=  209715200 cpu:       0.0
 (Enter /opt/gaussian/l301.exe)
 Standard basis: CC-pVDZ (5D, 7F)
 Ernie: Thresh=  0.10000D-02 Tol=  0.10000D-05 Strict=F.
 Ernie:  60 primitive shells out of 775 were deleted.
 There are   535 symmetry adapted basis functions of A   symmetry.
 Integral buffers will be    131072 words long.
 Raffenetti 2 integral format.
 Two-electron integral symmetry is turned on.
   535 basis functions,  1151 primitive gaussians,   565 cartesian basis functions
   105 alpha electrons      105 beta electrons
       nuclear repulsion energy      2689.4777605232 Hartrees.
 IExCor=  402 DFT=T Ex+Corr=B3LYP ExCW=0 ScaHFX=  0.200000
 ScaDFX=  0.800000  0.720000  1.000000  0.810000 ScalE2=  1.000000  1.000000
 IRadAn=      0 IRanWt=     -1 IRanGd=            0 ICorTp=0
 NAtoms=   53 NActive=   53 NUniq=   53 SFac= 1.00D+00 NAtFMM=   60 NAOKFM=F Big=F
 Leave Link  301 at Sun Sep  4 16:46:36 2022, MaxMem=  209715200 cpu:       0.3
 (Enter /opt/gaussian/l302.exe)
 NPDir=0 NMtPBC=     1 NCelOv=     1 NCel=       1 NClECP=     1 NCelD=      1
         NCelK=      1 NCelE2=     1 NClLst=     1 CellRange=     0.0.
 One-electron integrals computed using PRISM.
 NBasis=   535 RedAO= T  NBF=   535
 NBsUse=   535 1.00D-06 NBFU=   535
 Precomputing XC quadrature grid using
 IXCGrd= 2 IRadAn=           0 IRanWt=          -1 IRanGd=           0 AccXCQ= 0.00D+00.
 NRdTot=    3416 NPtTot=      436252 NUsed=      460866 NTot=      460898
 NSgBfM=   555   555   555   555   555 NAtAll=    53    53.
 Leave Link  302 at Sun Sep  4 16:46:37 2022, MaxMem=  209715200 cpu:       8.1
 (Enter /opt/gaussian/l303.exe)
 DipDrv:  MaxL=1.
 Leave Link  303 at Sun Sep  4 16:46:38 2022, MaxMem=  209715200 cpu:       1.1
 (Enter /opt/gaussian/l401.exe)
 Harris functional with IExCor=  402 diagonalized for initial guess.
 ExpMin= 1.22D-01 ExpMax= 1.17D+04 ExpMxC= 4.01D+02 IAcc=1 IRadAn=         1 AccDes= 0.00D+00
 HarFok:  IExCor=  402 AccDes= 0.00D+00 IRadAn=         1 IDoV= 1
 ScaDFX=  1.000000  1.000000  1.000000  1.000000
 FoFCou: FMM=F IPFlag=           0 FMFlag=      100000 FMFlg1=           0
         NFxFlg=           0 DoJE=T BraDBF=F KetDBF=T FulRan=T
         Omega=  0.000000  0.000000  1.000000  0.000000  0.000000 ICntrl=     500 IOpCl=  0
         NMat0=    1 NMatS0=    1 NMatT0=    0 NMatD0=    1 NMtDS0=    0 NMtDT0=    0
         I1Cent=           4 NGrid=           0.
 Petite list used in FoFCou.
 Harris En= -1277.27625363171    
 Initial guess orbital symmetries:
       Occupied  (A) (A) (A) (A) (A) (A) (A) (A) (A) (A) (A) (A)
                 (A) (A) (A) (A) (A) (A) (A) (A) (A) (A) (A) (A)
                 (A) (A) (A) (A) (A) (A) (A) (A) (A) (A) (A) (A)
                 (A) (A) (A) (A) (A) (A) (A) (A) (A) (A) (A) (A)
                 (A) (A) (A) (A) (A) (A) (A) (A) (A) (A) (A) (A)
                 (A) (A) (A) (A) (A) (A) (A) (A) (A) (A) (A) (A)
                 (A) (A) (A) (A) (A) (A) (A) (A) (A) (A) (A) (A)
                 (A) (A) (A) (A) (A) (A) (A) (A) (A) (A) (A) (A)
                 (A) (A) (A) (A) (A) (A) (A) (A) (A)
       Virtual   (A) (A) (A) (A) (A) (A) (A) (A) (A) (A) (A) (A)
                 (A) (A) (A) (A) (A) (A) (A) (A) (A) (A) (A) (A)
                 (A) (A) (A) (A) (A) (A) (A) (A) (A) (A) (A) (A)
                 (A) (A) (A) (A) (A) (A) (A) (A) (A) (A) (A) (A)
                 (A) (A) (A) (A) (A) (A) (A) (A) (A) (A) (A) (A)
                 (A) (A) (A) (A) (A) (A) (A) (A) (A) (A) (A) (A)
                 (A) (A) (A) (A) (A) (A) (A) (A) (A) (A) (A) (A)
                 (A) (A) (A) (A) (A) (A) (A) (A) (A) (A) (A) (A)
                 (A) (A) (A) (A) (A) (A) (A) (A) (A) (A) (A) (A)
                 (A) (A) (A) (A) (A) (A) (A) (A) (A) (A) (A) (A)
                 (A) (A) (A) (A) (A) (A) (A) (A) (A) (A) (A) (A)
                 (A) (A) (A) (A) (A) (A) (A) (A) (A) (A) (A) (A)
                 (A) (A) (A) (A) (A) (A) (A) (A) (A) (A) (A) (A)
                 (A) (A) (A) (A) (A) (A) (A) (A) (A) (A) (A) (A)
                 (A) (A) (A) (A) (A) (A) (A) (A) (A) (A) (A) (A)
                 (A) (A) (A) (A) (A) (A) (A) (A) (A) (A) (A) (A)
                 (A) (A) (A) (A) (A) (A) (A) (A) (A) (A) (A) (A)
                 (A) (A) (A) (A) (A) (A) (A) (A) (A) (A) (A) (A)
                 (A) (A) (A) (A) (A) (A) (A) (A) (A) (A) (A) (A)
                 (A) (A) (A) (A) (A) (A) (A) (A) (A) (A) (A) (A)
                 (A) (A) (A) (A) (A) (A) (A) (A) (A) (A) (A) (A)
                 (A) (A) (A) (A) (A) (A) (A) (A) (A) (A) (A) (A)
                 (A) (A) (A) (A) (A) (A) (A) (A) (A) (A) (A) (A)
                 (A) (A) (A) (A) (A) (A) (A) (A) (A) (A) (A) (A)
                 (A) (A) (A) (A) (A) (A) (A) (A) (A) (A) (A) (A)
                 (A) (A) (A) (A) (A) (A) (A) (A) (A) (A) (A) (A)
                 (A) (A) (A) (A) (A) (A) (A) (A) (A) (A) (A) (A)
                 (A) (A) (A) (A) (A) (A) (A) (A) (A) (A) (A) (A)
                 (A) (A) (A) (A) (A) (A) (A) (A) (A) (A) (A) (A)
                 (A) (A) (A) (A) (A) (A) (A) (A) (A) (A) (A) (A)
                 (A) (A) (A) (A) (A) (A) (A) (A) (A) (A) (A) (A)
                 (A) (A) (A) (A) (A) (A) (A) (A) (A) (A) (A) (A)
                 (A) (A) (A) (A) (A) (A) (A) (A) (A) (A) (A) (A)
                 (A) (A) (A) (A) (A) (A) (A) (A) (A) (A) (A) (A)
                 (A) (A) (A) (A) (A) (A) (A) (A) (A) (A) (A) (A)
                 (A) (A) (A) (A) (A) (A) (A) (A) (A) (A)
 The electronic state of the initial guess is 1-A.
 Leave Link  401 at Sun Sep  4 16:46:39 2022, MaxMem=  209715200 cpu:      14.4
 (Enter /opt/gaussian/l502.exe)
 Closed shell SCF:
 Requested convergence on RMS density matrix=1.00D-08 within 128 cycles.
 Requested convergence on MAX density matrix=1.00D-06.
 Requested convergence on             energy=1.00D-06.
 No special actions if energy rises.
 Using DIIS extrapolation, IDIIS=  1040.
 Integral symmetry usage will be decided dynamically.
       460376 words used for storage of precomputed grid.
 IEnd=     1444997 IEndB=     1444997 NGot=   209715200 MDV=   208606634
 LenX=   208606634 LenY=   208286844
 Fock matrices will be formed incrementally for  20 cycles.
 Integral accuracy reduced to 1.0D-05 until final iterations.

 Cycle   1  Pass 0  IDiag  1:
 FoFCou: FMM=F IPFlag=           0 FMFlag=      100000 FMFlg1=           0
         NFxFlg=           0 DoJE=F BraDBF=F KetDBF=F FulRan=T
         Omega=  0.000000  0.000000  1.000000  0.000000  0.000000 ICntrl=       0 IOpCl=  0
         NMat0=    1 NMatS0=    1 NMatT0=    0 NMatD0=    1 NMtDS0=    0 NMtDT0=    0
         I1Cent=           0 NGrid=           0.
 Symmetry not used in FoFCou.
 E= -1276.80360847149    
 DIIS: error= 2.24D-02 at cycle   1 NSaved=   1.
 NSaved= 1 IEnMin= 1 EnMin= -1276.80360847149     IErMin= 1 ErrMin= 2.24D-02
 ErrMax= 2.24D-02 EMaxC= 1.00D-01 BMatC= 5.44D-01 BMatP= 5.44D-01
 IDIUse=3 WtCom= 7.76D-01 WtEn= 2.24D-01
 Coeff-Com:  0.100D+01
 Coeff-En:   0.100D+01
 Coeff:      0.100D+01
 Gap=     0.275 Goal=   None    Shift=    0.000
 GapD=    0.275 DampG=1.000 DampE=0.500 DampFc=0.5000 IDamp=-1.
 Damping current iteration by 5.00D-01
 RMSDP=3.89D-03 MaxDP=1.86D-01              OVMax= 3.10D-01

 Cycle   2  Pass 0  IDiag  1:
 RMSU=  1.35D-03    CP:  9.76D-01
 E= -1276.95295638744     Delta-E=       -0.149347915947 Rises=F Damp=T
 DIIS: error= 8.69D-03 at cycle   2 NSaved=   2.
 NSaved= 2 IEnMin= 2 EnMin= -1276.95295638744     IErMin= 2 ErrMin= 8.69D-03
 ErrMax= 8.69D-03 EMaxC= 1.00D-01 BMatC= 1.16D-01 BMatP= 5.44D-01
 IDIUse=3 WtCom= 9.13D-01 WtEn= 8.69D-02
 Coeff-Com:  0.244D+00 0.756D+00
 Coeff-En:   0.354D+00 0.646D+00
 Coeff:      0.254D+00 0.746D+00
 Gap=     0.254 Goal=   None    Shift=    0.000
 RMSDP=1.39D-03 MaxDP=6.76D-02 DE=-1.49D-01 OVMax= 3.03D-01

 Cycle   3  Pass 0  IDiag  1:
 RMSU=  9.39D-04    CP:  9.62D-01  8.26D-01
 E= -1277.28674875848     Delta-E=       -0.333792371046 Rises=F Damp=F
 DIIS: error= 1.13D-02 at cycle   3 NSaved=   3.
 NSaved= 3 IEnMin= 3 EnMin= -1277.28674875848     IErMin= 2 ErrMin= 8.69D-03
 ErrMax= 1.13D-02 EMaxC= 1.00D-01 BMatC= 1.23D-01 BMatP= 1.16D-01
 IDIUse=3 WtCom= 8.87D-01 WtEn= 1.13D-01
 Coeff-Com:  0.613D-01 0.495D+00 0.444D+00
 Coeff-En:   0.000D+00 0.000D+00 0.100D+01
 Coeff:      0.544D-01 0.439D+00 0.507D+00
 Gap=     0.202 Goal=   None    Shift=    0.000
 RMSDP=8.76D-04 MaxDP=5.77D-02 DE=-3.34D-01 OVMax= 1.09D-01

 Cycle   4  Pass 0  IDiag  1:
 RMSU=  3.84D-04    CP:  9.65D-01  9.42D-01  5.12D-01
 E= -1277.38204867902     Delta-E=       -0.095299920535 Rises=F Damp=F
 DIIS: error= 4.21D-03 at cycle   4 NSaved=   4.
 NSaved= 4 IEnMin= 4 EnMin= -1277.38204867902     IErMin= 4 ErrMin= 4.21D-03
 ErrMax= 4.21D-03 EMaxC= 1.00D-01 BMatC= 2.23D-02 BMatP= 1.16D-01
 IDIUse=3 WtCom= 9.58D-01 WtEn= 4.21D-02
 Coeff-Com:  0.166D-01 0.132D+00 0.315D+00 0.537D+00
 Coeff-En:   0.000D+00 0.000D+00 0.181D+00 0.819D+00
 Coeff:      0.159D-01 0.126D+00 0.309D+00 0.549D+00
 Gap=     0.195 Goal=   None    Shift=    0.000
 RMSDP=3.11D-04 MaxDP=1.83D-02 DE=-9.53D-02 OVMax= 3.47D-02

 Cycle   5  Pass 0  IDiag  1:
 RMSU=  1.24D-04    CP:  9.64D-01  8.95D-01  6.27D-01  6.56D-01
 E= -1277.40030585751     Delta-E=       -0.018257178493 Rises=F Damp=F
 DIIS: error= 1.12D-03 at cycle   5 NSaved=   5.
 NSaved= 5 IEnMin= 5 EnMin= -1277.40030585751     IErMin= 5 ErrMin= 1.12D-03
 ErrMax= 1.12D-03 EMaxC= 1.00D-01 BMatC= 1.39D-03 BMatP= 2.23D-02
 IDIUse=3 WtCom= 9.89D-01 WtEn= 1.12D-02
 Coeff-Com:  0.323D-02 0.232D-01 0.128D+00 0.319D+00 0.527D+00
 Coeff-En:   0.000D+00 0.000D+00 0.000D+00 0.000D+00 0.100D+01
 Coeff:      0.319D-02 0.230D-01 0.127D+00 0.315D+00 0.532D+00
 Gap=     0.192 Goal=   None    Shift=    0.000
 RMSDP=1.04D-04 MaxDP=5.47D-03 DE=-1.83D-02 OVMax= 1.26D-02

 Cycle   6  Pass 0  IDiag  1:
 RMSU=  3.78D-05    CP:  9.64D-01  9.00D-01  6.31D-01  6.96D-01  5.09D-01
 E= -1277.40154100032     Delta-E=       -0.001235142804 Rises=F Damp=F
 DIIS: error= 4.45D-04 at cycle   6 NSaved=   6.
 NSaved= 6 IEnMin= 6 EnMin= -1277.40154100032     IErMin= 6 ErrMin= 4.45D-04
 ErrMax= 4.45D-04 EMaxC= 1.00D-01 BMatC= 2.07D-04 BMatP= 1.39D-03
 IDIUse=3 WtCom= 9.96D-01 WtEn= 4.45D-03
 Coeff-Com:  0.873D-04-0.283D-02 0.361D-01 0.117D+00 0.329D+00 0.521D+00
 Coeff-En:   0.000D+00 0.000D+00 0.000D+00 0.000D+00 0.133D+00 0.867D+00
 Coeff:      0.869D-04-0.282D-02 0.360D-01 0.117D+00 0.328D+00 0.522D+00
 Gap=     0.191 Goal=   None    Shift=    0.000
 RMSDP=3.52D-05 MaxDP=1.76D-03 DE=-1.24D-03 OVMax= 4.50D-03

 Cycle   7  Pass 0  IDiag  1:
 RMSU=  1.39D-05    CP:  9.64D-01  9.01D-01  6.32D-01  6.97D-01  6.06D-01
                    CP:  5.61D-01
 E= -1277.40174871980     Delta-E=       -0.000207719486 Rises=F Damp=F
 DIIS: error= 1.90D-04 at cycle   7 NSaved=   7.
 NSaved= 7 IEnMin= 7 EnMin= -1277.40174871980     IErMin= 7 ErrMin= 1.90D-04
 ErrMax= 1.90D-04 EMaxC= 1.00D-01 BMatC= 2.18D-05 BMatP= 2.07D-04
 IDIUse=3 WtCom= 9.98D-01 WtEn= 1.90D-03
 Coeff-Com: -0.101D-03-0.398D-02 0.879D-02 0.368D-01 0.145D+00 0.318D+00
 Coeff-Com:  0.495D+00
 Coeff-En:   0.000D+00 0.000D+00 0.000D+00 0.000D+00 0.000D+00 0.429D-01
 Coeff-En:   0.957D+00
 Coeff:     -0.101D-03-0.397D-02 0.877D-02 0.367D-01 0.145D+00 0.318D+00
 Coeff:      0.496D+00
 Gap=     0.191 Goal=   None    Shift=    0.000
 RMSDP=1.03D-05 MaxDP=4.86D-04 DE=-2.08D-04 OVMax= 1.08D-03

 Cycle   8  Pass 0  IDiag  1:
 RMSU=  3.39D-06    CP:  9.64D-01  9.01D-01  6.32D-01  6.98D-01  6.10D-01
                    CP:  6.34D-01  5.86D-01
 E= -1277.40177358421     Delta-E=       -0.000024864412 Rises=F Damp=F
 DIIS: error= 6.03D-05 at cycle   8 NSaved=   8.
 NSaved= 8 IEnMin= 8 EnMin= -1277.40177358421     IErMin= 8 ErrMin= 6.03D-05
 ErrMax= 6.03D-05 EMaxC= 1.00D-01 BMatC= 1.18D-06 BMatP= 2.18D-05
 IDIUse=1 WtCom= 1.00D+00 WtEn= 0.00D+00
 Coeff-Com:  0.292D-04-0.197D-02 0.242D-02 0.113D-01 0.558D-01 0.134D+00
 Coeff-Com:  0.261D+00 0.538D+00
 Coeff:      0.292D-04-0.197D-02 0.242D-02 0.113D-01 0.558D-01 0.134D+00
 Coeff:      0.261D+00 0.538D+00
 Gap=     0.191 Goal=   None    Shift=    0.000
 RMSDP=2.91D-06 MaxDP=1.35D-04 DE=-2.49D-05 OVMax= 3.50D-04

 Initial convergence to 1.0D-05 achieved.  Increase integral accuracy.
 Cycle   9  Pass 1  IDiag  1:
 E= -1277.40187198474     Delta-E=       -0.000098400526 Rises=F Damp=F
 DIIS: error= 1.70D-04 at cycle   1 NSaved=   1.
 NSaved= 1 IEnMin= 1 EnMin= -1277.40187198474     IErMin= 1 ErrMin= 1.70D-04
 ErrMax= 1.70D-04 EMaxC= 1.00D-01 BMatC= 9.33D-06 BMatP= 9.33D-06
 IDIUse=3 WtCom= 9.98D-01 WtEn= 1.70D-03
 Coeff-Com:  0.100D+01
 Coeff-En:   0.100D+01
 Coeff:      0.100D+01
 Gap=     0.191 Goal=   None    Shift=    0.000
 RMSDP=2.91D-06 MaxDP=1.35D-04 DE=-9.84D-05 OVMax= 4.57D-04

 Cycle  10  Pass 1  IDiag  1:
 RMSU=  8.46D-05    CP:  1.00D+00
 E= -1277.40187980631     Delta-E=       -0.000007821574 Rises=F Damp=F
 DIIS: error= 6.01D-05 at cycle   2 NSaved=   2.
 NSaved= 2 IEnMin= 2 EnMin= -1277.40187980631     IErMin= 2 ErrMin= 6.01D-05
 ErrMax= 6.01D-05 EMaxC= 1.00D-01 BMatC= 1.00D-06 BMatP= 9.33D-06
 IDIUse=1 WtCom= 1.00D+00 WtEn= 0.00D+00
 Coeff-Com:  0.126D+00 0.874D+00
 Coeff:      0.126D+00 0.874D+00
 Gap=     0.191 Goal=   None    Shift=    0.000
 RMSDP=5.41D-06 MaxDP=2.57D-04 DE=-7.82D-06 OVMax= 6.47D-04

 Cycle  11  Pass 1  IDiag  1:
 RMSU=  3.72D-06    CP:  1.00D+00  1.01D+00
 E= -1277.40187778011     Delta-E=        0.000002026205 Rises=F Damp=F
 DIIS: error= 1.10D-04 at cycle   3 NSaved=   3.
 NSaved= 3 IEnMin= 2 EnMin= -1277.40187980631     IErMin= 2 ErrMin= 6.01D-05
 ErrMax= 1.10D-04 EMaxC= 1.00D-01 BMatC= 2.99D-06 BMatP= 1.00D-06
 IDIUse=3 WtCom= 4.88D-01 WtEn= 5.12D-01
 Coeff-Com: -0.466D-02 0.636D+00 0.369D+00
 Coeff-En:   0.000D+00 0.695D+00 0.305D+00
 Coeff:     -0.227D-02 0.666D+00 0.336D+00
 Gap=     0.191 Goal=   None    Shift=    0.000
 RMSDP=3.01D-06 MaxDP=1.53D-04 DE= 2.03D-06 OVMax= 3.88D-04

 Cycle  12  Pass 1  IDiag  1:
 RMSU=  3.69D-07    CP:  1.00D+00  1.01D+00  4.39D-01
 E= -1277.40188080438     Delta-E=       -0.000003024267 Rises=F Damp=F
 DIIS: error= 7.53D-06 at cycle   4 NSaved=   4.
 NSaved= 4 IEnMin= 4 EnMin= -1277.40188080438     IErMin= 4 ErrMin= 7.53D-06
 ErrMax= 7.53D-06 EMaxC= 1.00D-01 BMatC= 4.18D-08 BMatP= 1.00D-06
 IDIUse=1 WtCom= 1.00D+00 WtEn= 0.00D+00
 Coeff-Com: -0.408D-02 0.391D+00 0.187D+00 0.426D+00
 Coeff:     -0.408D-02 0.391D+00 0.187D+00 0.426D+00
 Gap=     0.191 Goal=   None    Shift=    0.000
 RMSDP=4.10D-07 MaxDP=2.14D-05 DE=-3.02D-06 OVMax= 6.68D-05

 Cycle  13  Pass 1  IDiag  1:
 RMSU=  1.44D-07    CP:  1.00D+00  1.01D+00  3.78D-01  6.93D-01
 E= -1277.40188084873     Delta-E=       -0.000000044358 Rises=F Damp=F
 DIIS: error= 1.05D-06 at cycle   5 NSaved=   5.
 NSaved= 5 IEnMin= 5 EnMin= -1277.40188084873     IErMin= 5 ErrMin= 1.05D-06
 ErrMax= 1.05D-06 EMaxC= 1.00D-01 BMatC= 7.08D-10 BMatP= 4.18D-08
 IDIUse=1 WtCom= 1.00D+00 WtEn= 0.00D+00
 Coeff-Com: -0.202D-02 0.183D+00 0.835D-01 0.240D+00 0.495D+00
 Coeff:     -0.202D-02 0.183D+00 0.835D-01 0.240D+00 0.495D+00
 Gap=     0.191 Goal=   None    Shift=    0.000
 RMSDP=6.95D-08 MaxDP=3.36D-06 DE=-4.44D-08 OVMax= 1.23D-05

 Cycle  14  Pass 1  IDiag  1:
 RMSU=  4.26D-08    CP:  1.00D+00  1.01D+00  3.80D-01  7.16D-01  8.48D-01
 E= -1277.40188084937     Delta-E=       -0.000000000635 Rises=F Damp=F
 DIIS: error= 3.03D-07 at cycle   6 NSaved=   6.
 NSaved= 6 IEnMin= 6 EnMin= -1277.40188084937     IErMin= 6 ErrMin= 3.03D-07
 ErrMax= 3.03D-07 EMaxC= 1.00D-01 BMatC= 1.17D-10 BMatP= 7.08D-10
 IDIUse=1 WtCom= 1.00D+00 WtEn= 0.00D+00
 Coeff-Com: -0.451D-03 0.367D-01 0.151D-01 0.647D-01 0.306D+00 0.578D+00
 Coeff:     -0.451D-03 0.367D-01 0.151D-01 0.647D-01 0.306D+00 0.578D+00
 Gap=     0.191 Goal=   None    Shift=    0.000
 RMSDP=2.65D-08 MaxDP=1.77D-06 DE=-6.35D-10 OVMax= 2.94D-06

 Cycle  15  Pass 1  IDiag  1:
 RMSU=  1.28D-08    CP:  1.00D+00  1.01D+00  3.80D-01  7.26D-01  8.81D-01
                    CP:  7.14D-01
 E= -1277.40188084946     Delta-E=       -0.000000000089 Rises=F Damp=F
 DIIS: error= 1.54D-07 at cycle   7 NSaved=   7.
 NSaved= 7 IEnMin= 7 EnMin= -1277.40188084946     IErMin= 7 ErrMin= 1.54D-07
 ErrMax= 1.54D-07 EMaxC= 1.00D-01 BMatC= 2.41D-11 BMatP= 1.17D-10
 IDIUse=1 WtCom= 1.00D+00 WtEn= 0.00D+00
 Coeff-Com: -0.249D-04-0.610D-03-0.142D-02 0.103D-01 0.138D+00 0.381D+00
 Coeff-Com:  0.473D+00
 Coeff:     -0.249D-04-0.610D-03-0.142D-02 0.103D-01 0.138D+00 0.381D+00
 Coeff:      0.473D+00
 Gap=     0.191 Goal=   None    Shift=    0.000
 RMSDP=1.20D-08 MaxDP=8.71D-07 DE=-8.87D-11 OVMax= 1.34D-06

 Cycle  16  Pass 1  IDiag  1:
 RMSU=  4.50D-09    CP:  1.00D+00  1.01D+00  3.80D-01  7.27D-01  8.95D-01
                    CP:  7.41D-01  4.73D-01
 E= -1277.40188084950     Delta-E=       -0.000000000043 Rises=F Damp=F
 DIIS: error= 5.65D-08 at cycle   8 NSaved=   8.
 NSaved= 8 IEnMin= 8 EnMin= -1277.40188084950     IErMin= 8 ErrMin= 5.65D-08
 ErrMax= 5.65D-08 EMaxC= 1.00D-01 BMatC= 2.36D-12 BMatP= 2.41D-11
 IDIUse=1 WtCom= 1.00D+00 WtEn= 0.00D+00
 Coeff-Com:  0.390D-04-0.476D-02-0.271D-02-0.128D-02 0.478D-01 0.165D+00
 Coeff-Com:  0.293D+00 0.503D+00
 Coeff:      0.390D-04-0.476D-02-0.271D-02-0.128D-02 0.478D-01 0.165D+00
 Coeff:      0.293D+00 0.503D+00
 Gap=     0.191 Goal=   None    Shift=    0.000
 RMSDP=3.35D-09 MaxDP=1.19D-07 DE=-4.27D-11 OVMax= 3.49D-07

 SCF Done:  E(RB3LYP) =  -1277.40188085     A.U. after   16 cycles
             Convg  =    0.3345D-08             -V/T =  2.0059
 KE= 1.269960326479D+03 PE=-8.346589386250D+03 EE= 3.109749418399D+03
 Leave Link  502 at Sun Sep  4 16:58:24 2022, MaxMem=  209715200 cpu:    5618.4
 (Enter /opt/gaussian/l601.exe)
 Copying SCF densities to generalized density rwf, IOpCl= 0 IROHF=0.

 **********************************************************************

            Population analysis using the SCF density.

 **********************************************************************

 Orbital symmetries:
       Occupied  (A) (A) (A) (A) (A) (A) (A) (A) (A) (A) (A) (A)
                 (A) (A) (A) (A) (A) (A) (A) (A) (A) (A) (A) (A)
                 (A) (A) (A) (A) (A) (A) (A) (A) (A) (A) (A) (A)
                 (A) (A) (A) (A) (A) (A) (A) (A) (A) (A) (A) (A)
                 (A) (A) (A) (A) (A) (A) (A) (A) (A) (A) (A) (A)
                 (A) (A) (A) (A) (A) (A) (A) (A) (A) (A) (A) (A)
                 (A) (A) (A) (A) (A) (A) (A) (A) (A) (A) (A) (A)
                 (A) (A) (A) (A) (A) (A) (A) (A) (A) (A) (A) (A)
                 (A) (A) (A) (A) (A) (A) (A) (A) (A)
       Virtual   (A) (A) (A) (A) (A) (A) (A) (A) (A) (A) (A) (A)
                 (A) (A) (A) (A) (A) (A) (A) (A) (A) (A) (A) (A)
                 (A) (A) (A) (A) (A) (A) (A) (A) (A) (A) (A) (A)
                 (A) (A) (A) (A) (A) (A) (A) (A) (A) (A) (A) (A)
                 (A) (A) (A) (A) (A) (A) (A) (A) (A) (A) (A) (A)
                 (A) (A) (A) (A) (A) (A) (A) (A) (A) (A) (A) (A)
                 (A) (A) (A) (A) (A) (A) (A) (A) (A) (A) (A) (A)
                 (A) (A) (A) (A) (A) (A) (A) (A) (A) (A) (A) (A)
                 (A) (A) (A) (A) (A) (A) (A) (A) (A) (A) (A) (A)
                 (A) (A) (A) (A) (A) (A) (A) (A) (A) (A) (A) (A)
                 (A) (A) (A) (A) (A) (A) (A) (A) (A) (A) (A) (A)
                 (A) (A) (A) (A) (A) (A) (A) (A) (A) (A) (A) (A)
                 (A) (A) (A) (A) (A) (A) (A) (A) (A) (A) (A) (A)
                 (A) (A) (A) (A) (A) (A) (A) (A) (A) (A) (A) (A)
                 (A) (A) (A) (A) (A) (A) (A) (A) (A) (A) (A) (A)
                 (A) (A) (A) (A) (A) (A) (A) (A) (A) (A) (A) (A)
                 (A) (A) (A) (A) (A) (A) (A) (A) (A) (A) (A) (A)
                 (A) (A) (A) (A) (A) (A) (A) (A) (A) (A) (A) (A)
                 (A) (A) (A) (A) (A) (A) (A) (A) (A) (A) (A) (A)
                 (A) (A) (A) (A) (A) (A) (A) (A) (A) (A) (A) (A)
                 (A) (A) (A) (A) (A) (A) (A) (A) (A) (A) (A) (A)
                 (A) (A) (A) (A) (A) (A) (A) (A) (A) (A) (A) (A)
                 (A) (A) (A) (A) (A) (A) (A) (A) (A) (A) (A) (A)
                 (A) (A) (A) (A) (A) (A) (A) (A) (A) (A) (A) (A)
                 (A) (A) (A) (A) (A) (A) (A) (A) (A) (A) (A) (A)
                 (A) (A) (A) (A) (A) (A) (A) (A) (A) (A) (A) (A)
                 (A) (A) (A) (A) (A) (A) (A) (A) (A) (A) (A) (A)
                 (A) (A) (A) (A) (A) (A) (A) (A) (A) (A) (A) (A)
                 (A) (A) (A) (A) (A) (A) (A) (A) (A) (A) (A) (A)
                 (A) (A) (A) (A) (A) (A) (A) (A) (A) (A) (A) (A)
                 (A) (A) (A) (A) (A) (A) (A) (A) (A) (A) (A) (A)
                 (A) (A) (A) (A) (A) (A) (A) (A) (A) (A) (A) (A)
                 (A) (A) (A) (A) (A) (A) (A) (A) (A) (A) (A) (A)
                 (A) (A) (A) (A) (A) (A) (A) (A) (A) (A) (A) (A)
                 (A) (A) (A) (A) (A) (A) (A) (A) (A) (A) (A) (A)
                 (A) (A) (A) (A) (A) (A) (A) (A) (A) (A)
 The electronic state is 1-A.
 Alpha  occ. eigenvalues --  -19.11422 -14.41619 -14.39608 -14.37656 -14.35224
 Alpha  occ. eigenvalues --  -14.32580 -10.29736 -10.24872 -10.23682 -10.23236
 Alpha  occ. eigenvalues --  -10.23103 -10.22244 -10.22206 -10.21245 -10.21033
 Alpha  occ. eigenvalues --  -10.20973 -10.20893 -10.20175 -10.20090 -10.20046
 Alpha  occ. eigenvalues --  -10.20036 -10.20034 -10.19983 -10.19918 -10.19802
 Alpha  occ. eigenvalues --  -10.19776 -10.19372 -10.18940 -10.18853 -10.18810
 Alpha  occ. eigenvalues --   -1.10759  -1.04792  -0.95748  -0.94969  -0.93304
 Alpha  occ. eigenvalues --   -0.87773  -0.87401  -0.85657  -0.82126  -0.79087
 Alpha  occ. eigenvalues --   -0.78372  -0.77411  -0.76720  -0.75548  -0.74935
 Alpha  occ. eigenvalues --   -0.73047  -0.67179  -0.66037  -0.65466  -0.64966
 Alpha  occ. eigenvalues --   -0.64270  -0.63187  -0.62080  -0.61809  -0.59984
 Alpha  occ. eigenvalues --   -0.57478  -0.56130  -0.54357  -0.53994  -0.53348
 Alpha  occ. eigenvalues --   -0.51845  -0.51196  -0.50268  -0.49729  -0.48698
 Alpha  occ. eigenvalues --   -0.48330  -0.47858  -0.47260  -0.46697  -0.45801
 Alpha  occ. eigenvalues --   -0.45461  -0.45189  -0.44889  -0.43826  -0.43185
 Alpha  occ. eigenvalues --   -0.42836  -0.41593  -0.40946  -0.40856  -0.40314
 Alpha  occ. eigenvalues --   -0.39839  -0.39356  -0.38495  -0.38202  -0.37936
 Alpha  occ. eigenvalues --   -0.36924  -0.36723  -0.36420  -0.36100  -0.35309
 Alpha  occ. eigenvalues --   -0.34051  -0.33336  -0.32045  -0.31799  -0.31405
 Alpha  occ. eigenvalues --   -0.30185  -0.28520  -0.27262  -0.26920  -0.26386
 Alpha  occ. eigenvalues --   -0.26022  -0.25643  -0.25419  -0.23985  -0.23641
 Alpha virt. eigenvalues --   -0.04534  -0.04410  -0.02837  -0.02144  -0.00431
 Alpha virt. eigenvalues --    0.00431   0.01090   0.03338   0.04238   0.06042
 Alpha virt. eigenvalues --    0.06236   0.06769   0.07043   0.07700   0.08365
 Alpha virt. eigenvalues --    0.09005   0.09768   0.10355   0.10872   0.10925
 Alpha virt. eigenvalues --    0.11461   0.11843   0.13037   0.13425   0.13658
 Alpha virt. eigenvalues --    0.14202   0.14582   0.14882   0.15226   0.15389
 Alpha virt. eigenvalues --    0.15630   0.16044   0.16504   0.16899   0.18064
 Alpha virt. eigenvalues --    0.18212   0.18372   0.19524   0.19602   0.20666
 Alpha virt. eigenvalues --    0.21011   0.22395   0.22946   0.23672   0.24727
 Alpha virt. eigenvalues --    0.25125   0.25249   0.27068   0.27708   0.28009
 Alpha virt. eigenvalues --    0.29121   0.29785   0.30354   0.30735   0.31631
 Alpha virt. eigenvalues --    0.32335   0.32907   0.34194   0.35814   0.36378
 Alpha virt. eigenvalues --    0.37169   0.37636   0.38092   0.38799   0.39511
 Alpha virt. eigenvalues --    0.39916   0.42559   0.43064   0.43400   0.43460
 Alpha virt. eigenvalues --    0.43864   0.44582   0.45130   0.45534   0.45747
 Alpha virt. eigenvalues --    0.46210   0.46593   0.46927   0.47387   0.47737
 Alpha virt. eigenvalues --    0.48112   0.48506   0.49061   0.49552   0.49671
 Alpha virt. eigenvalues --    0.50081   0.50366   0.50754   0.50853   0.51168
 Alpha virt. eigenvalues --    0.51442   0.51674   0.52430   0.52907   0.52950
 Alpha virt. eigenvalues --    0.53776   0.53897   0.54149   0.54720   0.54979
 Alpha virt. eigenvalues --    0.55674   0.56190   0.56984   0.57335   0.58024
 Alpha virt. eigenvalues --    0.58342   0.59044   0.59232   0.59708   0.59974
 Alpha virt. eigenvalues --    0.60418   0.61025   0.61752   0.62158   0.62545
 Alpha virt. eigenvalues --    0.62638   0.62860   0.63827   0.64700   0.64774
 Alpha virt. eigenvalues --    0.65061   0.65350   0.65440   0.65643   0.66199
 Alpha virt. eigenvalues --    0.66606   0.67154   0.67414   0.67581   0.68186
 Alpha virt. eigenvalues --    0.68524   0.68876   0.69075   0.69564   0.69650
 Alpha virt. eigenvalues --    0.70267   0.70273   0.71017   0.71227   0.71849
 Alpha virt. eigenvalues --    0.72223   0.73226   0.73847   0.74329   0.74687
 Alpha virt. eigenvalues --    0.76294   0.76723   0.77569   0.79796   0.80234
 Alpha virt. eigenvalues --    0.81434   0.81620   0.82802   0.84457   0.85754
 Alpha virt. eigenvalues --    0.85903   0.86119   0.86839   0.87139   0.87698
 Alpha virt. eigenvalues --    0.88035   0.88823   0.89032   0.90120   0.90645
 Alpha virt. eigenvalues --    0.91171   0.91981   0.92114   0.93054   0.93928
 Alpha virt. eigenvalues --    0.94048   0.94363   0.95275   0.96355   0.97301
 Alpha virt. eigenvalues --    0.97858   0.98949   0.99394   0.99849   1.00225
 Alpha virt. eigenvalues --    1.00633   1.00995   1.01790   1.02331   1.03053
 Alpha virt. eigenvalues --    1.03349   1.04245   1.04392   1.04591   1.05980
 Alpha virt. eigenvalues --    1.06338   1.06550   1.07237   1.08182   1.08897
 Alpha virt. eigenvalues --    1.09610   1.10850   1.11435   1.11606   1.11943
 Alpha virt. eigenvalues --    1.13898   1.14669   1.14765   1.15433   1.15876
 Alpha virt. eigenvalues --    1.16188   1.17922   1.18914   1.19380   1.20035
 Alpha virt. eigenvalues --    1.20188   1.21524   1.22444   1.22601   1.24274
 Alpha virt. eigenvalues --    1.24847   1.25783   1.28408   1.29339   1.30138
 Alpha virt. eigenvalues --    1.31229   1.31638   1.32594   1.34237   1.35193
 Alpha virt. eigenvalues --    1.35380   1.37360   1.37650   1.38700   1.41284
 Alpha virt. eigenvalues --    1.41797   1.44502   1.45202   1.45836   1.46043
 Alpha virt. eigenvalues --    1.47197   1.47520   1.48387   1.48857   1.49099
 Alpha virt. eigenvalues --    1.49791   1.50045   1.50643   1.51525   1.51967
 Alpha virt. eigenvalues --    1.52534   1.53027   1.53810   1.55607   1.56246
 Alpha virt. eigenvalues --    1.56689   1.57164   1.57352   1.58304   1.58896
 Alpha virt. eigenvalues --    1.59164   1.59665   1.60139   1.60396   1.60509
 Alpha virt. eigenvalues --    1.61154   1.61500   1.62047   1.62647   1.62962
 Alpha virt. eigenvalues --    1.63473   1.64153   1.64358   1.64440   1.64969
 Alpha virt. eigenvalues --    1.65083   1.65673   1.65955   1.66433   1.66996
 Alpha virt. eigenvalues --    1.68072   1.68168   1.68380   1.68871   1.69581
 Alpha virt. eigenvalues --    1.70379   1.70710   1.71011   1.71525   1.72356
 Alpha virt. eigenvalues --    1.72674   1.73196   1.73440   1.74152   1.74803
 Alpha virt. eigenvalues --    1.75715   1.76176   1.76231   1.76862   1.76997
 Alpha virt. eigenvalues --    1.77602   1.78255   1.78861   1.79306   1.79503
 Alpha virt. eigenvalues --    1.80059   1.81399   1.82059   1.82335   1.83181
 Alpha virt. eigenvalues --    1.83581   1.83762   1.84434   1.84845   1.85575
 Alpha virt. eigenvalues --    1.85945   1.86312   1.86844   1.87083   1.88029
 Alpha virt. eigenvalues --    1.88575   1.89077   1.89369   1.89956   1.90076
 Alpha virt. eigenvalues --    1.91485   1.92614   1.93492   1.94439   1.94603
 Alpha virt. eigenvalues --    1.96005   1.97221   1.97794   1.98312   1.99459
 Alpha virt. eigenvalues --    1.99706   2.00344   2.01022   2.01455   2.02153
 Alpha virt. eigenvalues --    2.02591   2.02950   2.04440   2.04519   2.05546
 Alpha virt. eigenvalues --    2.06122   2.07262   2.07730   2.08456   2.08643
 Alpha virt. eigenvalues --    2.10597   2.11192   2.11813   2.12705   2.14301
 Alpha virt. eigenvalues --    2.15349   2.16974   2.17483   2.17833   2.19612
 Alpha virt. eigenvalues --    2.19703   2.20485   2.21002   2.22984   2.23918
 Alpha virt. eigenvalues --    2.24584   2.25403   2.25571   2.26978   2.30185
 Alpha virt. eigenvalues --    2.30664   2.32683   2.34834   2.35829   2.38549
 Alpha virt. eigenvalues --    2.41235   2.42100   2.42493   2.42884   2.43508
 Alpha virt. eigenvalues --    2.44033   2.44554   2.45754   2.46790   2.47120
 Alpha virt. eigenvalues --    2.47194   2.47479   2.48190   2.48862   2.49368
 Alpha virt. eigenvalues --    2.50507   2.50641   2.51910   2.54136   2.54858
 Alpha virt. eigenvalues --    2.55291   2.57006   2.58401   2.59411   2.60898
 Alpha virt. eigenvalues --    2.61512   2.63672   2.65037   2.66553   2.69457
 Alpha virt. eigenvalues --    2.70090   2.71114   2.72467   2.73541   2.73821
 Alpha virt. eigenvalues --    2.76014   2.76556   2.77200   2.78038   2.78809
 Alpha virt. eigenvalues --    2.79761   2.82063   2.83461   2.86926   2.88389
 Alpha virt. eigenvalues --    2.89986   2.90359   2.94336   2.96132   2.98918
 Alpha virt. eigenvalues --    2.99699   3.02984   3.09991   3.11525   3.14086
 Alpha virt. eigenvalues --    3.40551   3.46197   3.49055   3.59863   3.60002
          Condensed to atoms (all electrons):
 Mulliken atomic charges:
              1
     1  O   -0.274970
     2  C    0.107400
     3  C    0.204153
     4  N   -0.253039
     5  N   -0.055103
     6  N   -0.178122
     7  C   -0.004265
     8  C    0.062124
     9  C    0.051436
    10  C    0.054903
    11  C    0.048135
    12  C    0.181771
    13  N   -0.263793
    14  C    0.158623
    15  C   -0.117033
    16  C    0.055802
    17  C   -0.003177
    18  C    0.055220
    19  C    0.057622
    20  C    0.112255
    21  C    0.038476
    22  C    0.024619
    23  C    0.042891
    24  C    0.092295
    25  C   -0.063102
    26  C    0.097443
    27  C   -0.001607
    28  C    0.121430
    29  N   -0.172176
    30  C    0.121166
    31  H    0.031202
    32  H    0.037080
    33  H   -0.033179
    34  H   -0.036129
    35  H   -0.031965
    36  H   -0.019694
    37  H    0.036158
    38  H    0.003532
    39  H   -0.029030
    40  H    0.008122
    41  H    0.002198
    42  H    0.007224
    43  H    0.001027
    44  H    0.004984
    45  H    0.001395
    46  H   -0.044990
    47  H   -0.045232
    48  H   -0.043054
    49  H   -0.041426
    50  H   -0.040824
    51  H   -0.035195
    52  H   -0.013774
    53  H   -0.019810
 Sum of Mulliken atomic charges =   0.00000
 Mulliken charges with hydrogens summed into heavy atoms:
              1
     1  O   -0.274970
     2  C    0.107400
     3  C    0.272435
     4  N   -0.253039
     5  N   -0.055103
     6  N   -0.178122
     7  C   -0.004265
     8  C    0.028946
     9  C    0.015307
    10  C    0.022939
    11  C    0.028441
    12  C    0.181771
    13  N   -0.263793
    14  C    0.198313
    15  C   -0.146063
    16  C    0.066123
    17  C    0.005074
    18  C    0.061598
    19  C    0.057622
    20  C    0.067266
    21  C   -0.006756
    22  C    0.024619
    23  C   -0.000162
    24  C    0.050869
    25  C   -0.063102
    26  C    0.056619
    27  C   -0.036802
    28  C    0.107656
    29  N   -0.172176
    30  C    0.101357
 Sum of Mulliken charges with hydrogens summed into heavy atoms =   0.00000
 Electronic spatial extent (au):  <R**2>=          16252.8658
 Charge=              0.0000 electrons
 Dipole moment (field-independent basis, Debye):
    X=             -1.7348    Y=              2.5838    Z=              0.5890  Tot=              3.1674
 Quadrupole moment (field-independent basis, Debye-Ang):
   XX=           -179.6818   YY=           -168.7264   ZZ=           -175.6086
   XY=            -18.8286   XZ=              2.0109   YZ=              5.8010
 Traceless Quadrupole moment (field-independent basis, Debye-Ang):
   XX=             -5.0095   YY=              5.9458   ZZ=             -0.9363
   XY=            -18.8286   XZ=              2.0109   YZ=              5.8010
 Octapole moment (field-independent basis, Debye-Ang**2):
  XXX=           -148.3989  YYY=              9.8691  ZZZ=              1.6686  XYY=             82.4130
  XXY=             20.3242  XXZ=             63.3358  XZZ=              8.7473  YZZ=             12.1510
  YYZ=              9.9177  XYZ=             24.8499
 Hexadecapole moment (field-independent basis, Debye-Ang**3):
 XXXX=         -15411.1627 YYYY=          -5409.4661 ZZZZ=          -1062.0063 XXXY=           -616.9799
 XXXZ=            -89.0130 YYYX=           -282.3024 YYYZ=            -16.2970 ZZZX=              5.3079
 ZZZY=             23.3019 XXYY=          -3701.4900 XXZZ=          -2898.1850 YYZZ=          -1081.5326
 XXYZ=             86.0417 YYXZ=            -51.3021 ZZXY=            -31.7231
 N-N= 2.689477760523D+03 E-N=-8.346589403106D+03  KE= 1.269960326479D+03
 No NMR shielding tensors so no spin-rotation constants.
 Leave Link  601 at Sun Sep  4 16:58:24 2022, MaxMem=  209715200 cpu:       3.9
 (Enter /opt/gaussian/l701.exe)
 Compute integral first derivatives.
 ... and contract with generalized density number  0.
 Leave Link  701 at Sun Sep  4 16:58:24 2022, MaxMem=  209715200 cpu:       3.2
 (Enter /opt/gaussian/l702.exe)
 L702 exits ... SP integral derivatives will be done elsewhere.
 Leave Link  702 at Sun Sep  4 16:58:25 2022, MaxMem=  209715200 cpu:       0.2
 (Enter /opt/gaussian/l703.exe)
 Compute integral first derivatives, UseDBF=F ICtDFT=           0.
 Integral derivatives from FoFDir, PRISM(SPDF).
 Calling FoFJK, ICntrl=      2127 FMM=F ISym2X=0 I1Cent= 0 IOpClX= 0 NMat=1 NMatS=1 NMatT=0.
 FoFCou: FMM=F IPFlag=           0 FMFlag=      100000 FMFlg1=         800
         NFxFlg=           0 DoJE=F BraDBF=F KetDBF=F FulRan=T
         Omega=  0.000000  0.000000  1.000000  0.000000  0.000000 ICntrl=    2127 IOpCl=  0
         NMat0=    1 NMatS0=    1 NMatT0=    0 NMatD0=    1 NMtDS0=    0 NMtDT0=    0
         I1Cent=           0 NGrid=           0.
 Symmetry not used in FoFCou.
 Leave Link  703 at Sun Sep  4 17:02:19 2022, MaxMem=  209715200 cpu:    1873.5
 (Enter /opt/gaussian/l716.exe)
 Dipole        =-6.82509740D-01 1.01656054D+00 2.31719850D-01
 ***** Axes restored to original set *****
 -------------------------------------------------------------------
 Center     Atomic                   Forces (Hartrees/Bohr)
 Number     Number              X              Y              Z
 -------------------------------------------------------------------
      1        8          -0.001299186    0.000269884   -0.002570027
      2        6          -0.002173579   -0.011894412    0.017338138
      3        6          -0.003374552   -0.004457703   -0.009564141
      4        7           0.001246887    0.001041164    0.001268644
      5        7          -0.008431717    0.013982048    0.007850895
      6        7           0.013805755   -0.010038903   -0.015966958
      7        6           0.005903046    0.012250505   -0.009142026
      8        6          -0.001237330    0.002652700    0.001096883
      9        6          -0.005243848    0.000561468    0.006344037
     10        6           0.005077073   -0.000407946   -0.005947578
     11        6           0.000646569    0.004456167   -0.001362185
     12        6          -0.008369679   -0.001047607    0.010203874
     13        7          -0.002264459    0.006363606   -0.010672640
     14        6          -0.005373267    0.001541550    0.012839728
     15        6          -0.005103677    0.000572588   -0.010939236
     16        6          -0.009007415   -0.001483217    0.008103631
     17        6           0.003435397   -0.011747664   -0.000253327
     18        6           0.011175645    0.005175031   -0.001223136
     19        6           0.007929811    0.002743681    0.001736517
     20        6          -0.001735461   -0.002125426   -0.000893222
     21        6           0.002927447    0.000448295   -0.002250148
     22        6          -0.010115556   -0.002678833   -0.000735479
     23        6           0.002208077    0.001119444    0.002447370
     24        6          -0.002761347    0.000005455    0.000673480
     25        6           0.011742603    0.005398215    0.001268553
     26        6          -0.002039496   -0.003884789   -0.000446312
     27        6           0.002542292    0.000253052    0.000323345
     28        6           0.015253493    0.002874006    0.000863325
     29        7          -0.002667811   -0.017609070   -0.006005209
     30        6          -0.014471421    0.006684875    0.001657113
     31        1           0.003681341    0.013770469   -0.002507623
     32        1           0.003356212   -0.003715833    0.012150014
     33        1           0.009114490    0.000136184   -0.011159656
     34        1           0.005217475   -0.012709231   -0.004311273
[...]
 88,0.00001206,0.00001954,-0.00008643,0.00014193,0.00042195,0.00047793,
 0.00017544,-0.00019357,-0.00080766,0.00042119,0.00032351,-0.00242514,0
 .00122166,-0.00259533,0.00100521,0.00014273,-0.00031951,-0.00031992,-0
 .00032483,-0.00026970,-0.00276951,-0.01122668,-0.00198117,-0.02280603,
 -0.12806235,-0.11952731,0.00068523,-0.00356776,0.00247698,-0.00037139,
 -0.00290027,0.00698284,0.00024084,0.00200237,-0.00263800,0.00318661,-0
 .00405897,0.00481948,0.00000230,0.00000125,0.00000149,-0.00000245,0.00
 000157,0.00000015,0.00000004,-0.00000014,0.00000022,-0.00000061,0.0000
 0069,0.00000021,-0.00000060,0.00000135,-0.00000064,0.00000053,-0.00000
 257,0.00000054,-0.00000189,-0.00000077,-0.00000179,0.00000013,-0.00000
 074,-0.00001100,-0.00000968,0.00000050,-0.00000428,-0.00000565,-0.0000
 0070,0.00000042,0.00000148,0.00000030,-0.00000027,-0.00000430,-0.00000
 432,-0.00000130,0.00000096,0.00000523,-0.00000296,0.00000647,-0.000009
 95,-0.00002006,0.00000421,0.00000041,0.00001110,-0.00002203,0.00001330
 ,-0.00000497,-0.00066031,-0.00011314,-0.00004157,-0.00000405,0.0000460
 7,0.00001915,0.00002757,-0.00000014,0.00000098,0.02532814,0.14419676,0
 .11599196,-0.00003500,0.00003639,-0.00005555,0.00006352,-0.00005132,0.
 00012187,0.00001345,-0.00000540,-0.00001239,-0.00002020,-0.00000303,0.
 00001084,0.00000753,0.00001217,-0.00002499,-0.00001206,0.00001237,0.00
 001250,-0.00000136,-0.00000374,0.00000402,0.00000113,-0.00000006,-0.00
 000231,-0.00000146,-0.00000006,0.00000027,-0.00000071,-0.00000425,-0.0
 0000166,-0.00000236,0.00000512,-0.00000326,0.00000360,-0.00001724,0.00
 000334,-0.00013126,-0.00001566,-0.00005252,0.00000817,0.00004124,-0.00
 004266,-0.00000324,0.00000631,0.00001030,0.00000561,-0.00000118,-0.000
 00600,-0.00000077,0.00000206,-0.00000138,-0.00000070,-0.00000647,0.000
 00952,0.00009462,0.00002784,0.00002172,-0.00000719,-0.00004563,-0.0000
 0117,-0.00004802,-0.00005208,0.00009452,-0.00015357,0.00104347,0.00090
 101,-0.00035211,-0.00012704,-0.00022676,-0.00005132,-0.00004425,0.0000
 8906,-0.00338708,-0.00363858,-0.00114501,-0.01658862,0.01623759,0.0126
 5927,-0.22614388,0.10483773,0.09016086,0.00665848,-0.00405199,-0.00335
 342,0.00166244,-0.00145274,-0.00034430,-0.00030769,-0.00093652,-0.0006
 4394,-0.00000375,0.00000057,0.00000278,-0.00000723,0.00000128,0.000000
 90,0.,0.00000018,0.00000126,-0.00000011,0.00000176,0.00000110,0.000001
 24,0.00000077,0.00000029,0.00000497,-0.00000492,0.00000415,-0.00000455
 ,-0.00001478,0.00000129,0.00000260,0.00000338,-0.00000861,0.00000107,-
 0.00000259,-0.00000224,-0.00000218,-0.00000420,0.00000074,0.00000083,0
 .00000114,-0.00000105,-0.00000322,-0.00000579,-0.00000234,0.00000227,-
 0.00000673,0.00000590,-0.00000540,0.00000607,-0.00000766,-0.00000134,0
 .00000612,-0.00000048,-0.00002398,-0.00000852,-0.00001020,0.00000747,0
 .00002837,-0.00001411,0.00001149,0.00002849,-0.00000222,-0.00004651,-0
 .00001398,0.00000639,0.00107085,0.00016961,-0.00052249,0.23728272,0.00
 000613,-0.00001215,0.00001480,-0.00001762,0.00001592,-0.00003069,-0.00
 000363,0.00000288,0.00000223,0.00000485,0.,-0.00000275,-0.00000090,-0.
 00000402,0.00000598,0.00000299,-0.00000285,-0.00000224,0.00000042,0.00
 000052,-0.00000127,-0.00000038,0.00000042,0.00000101,0.00000031,-0.000
 00003,0.00000060,0.00000063,0.00000106,0.00000028,0.00000095,-0.000001
 14,0.00000062,-0.00000087,0.00000463,-0.00000100,0.00003204,-0.0000075
 9,0.00001913,-0.00000199,-0.00000146,0.00000287,-0.00000217,0.00000081
 ,-0.00000193,-0.00000084,-0.00000018,0.00000085,-0.00000094,-0.0000010
 7,-0.00000066,-0.00000096,-0.00000136,-0.00000093,-0.00002814,-0.00000
 016,-0.00001059,0.00000820,-0.00000388,-0.00002385,0.00003641,-0.00005
 076,0.00005118,-0.00038617,0.00048644,0.00014941,-0.00007761,-0.000106
 92,-0.00001229,0.00001697,0.00000025,0.00006312,-0.00317010,0.00256351
 ,-0.00355876,-0.00965932,0.00844882,0.00476124,0.10493209,-0.11850574,
 -0.06561969,0.02301419,-0.00576724,-0.00695363,-0.00084381,-0.00234467
 ,-0.00675475,-0.00198550,-0.00079062,-0.00012989,-0.00000028,-0.000000
 31,-0.00000071,0.00000143,-0.00000055,-0.00000028,-0.00000030,0.,-0.00
 000044,-0.00000015,-0.00000060,-0.00000050,-0.00000049,-0.00000034,-0.
 00000028,-0.00000130,0.00000138,-0.00000127,0.00000011,0.00000035,-0.0
 0000028,-0.00000078,-0.00000036,0.00000135,0.00000181,-0.00000012,0.00
 000141,0.00000253,0.00000084,-0.00000013,-0.00000037,-0.00000042,-0.00
 000020,0.00000047,0.00000105,0.00000068,-0.00000036,-0.00000082,0.0000
 0071,-0.00000015,0.00000189,0.00000371,-0.00000056,-0.00000039,-0.0000
 0375,-0.00000155,0.00000350,-0.00000022,0.00003097,0.00001461,-0.00002
 873,0.00000015,0.00000594,0.00002247,-0.00001110,0.00000089,-0.0000036
 3,0.00064345,-0.00056344,0.00231327,-0.11269458,0.11749896,0.00001528,
 -0.00000024,0.00000209,-0.00001784,0.,-0.00001317,-0.00000434,0.000002
 61,0.00000414,0.00000696,0.00000153,-0.00000492,-0.00000457,-0.0000025
 6,0.00000939,0.00000493,-0.00000521,-0.00000569,0.00000049,0.00000173,
 -0.00000117,-0.00000034,-0.00000075,0.00000072,0.00000073,0.00000095,-
 0.00000062,-0.00000024,0.00000126,0.00000116,0.00000035,-0.00000181,0.
 00000157,-0.00000045,0.00000456,-0.00000150,0.00002175,0.00001666,-0.0
 0000306,-0.00000107,-0.00001471,0.00001579,0.00000085,-0.00000065,-0.0
 0000391,-0.00000076,0.00000100,0.00000225,0.00000198,-0.00000247,0.000
 00175,-0.00000094,0.00000292,0.00000355,-0.00000979,-0.00000372,0.0000
 0483,-0.00000902,-0.00001183,0.00000634,0.00002732,0.00005702,-0.00003
 247,-0.00027716,-0.00009267,0.00037132,-0.00011813,0.00003376,-0.00005
 291,-0.00002962,-0.00002714,0.00000762,-0.00059137,-0.00328874,0.00608
 465,-0.00437458,0.00216323,0.00468659,0.09018970,-0.06537266,-0.089603
 51,0.01500693,-0.00437776,-0.00343463,-0.00029939,-0.00688332,0.003273
 56,-0.00128350,-0.00014607,-0.00027586,0.00000156,0.00000002,-0.000000
 38,0.00000108,-0.00000022,-0.00000052,0.00000024,-0.00000006,-0.000000
 49,-0.00000002,-0.00000069,-0.00000026,-0.00000074,0.00000033,-0.00000
 011,-0.00000168,0.00000086,-0.00000101,0.00000178,0.00000460,-0.000000
 59,-0.00000128,-0.00000049,0.00000077,-0.00000172,0.00000050,-0.000000
 46,0.00000085,0.00000149,-0.00000047,0.00000018,-0.00000090,-0.0000007
 7,0.00000008,0.00000105,0.00000024,-0.00000100,0.00000371,-0.00000290,
 0.00000154,-0.00000323,0.00000109,0.00000082,-0.00000206,-0.00000208,0
 .00000017,0.,0.00000327,-0.00004967,-0.00000650,-0.00000895,-0.0000102
 5,0.00000194,-0.00000927,-0.00000204,-0.00000760,0.00000120,-0.0001658
 9,0.00230152,-0.00265197,-0.09757271,0.07313548,0.08471751,-0.00003810
 ,0.00002751,-0.00003804,0.00006176,-0.00003725,0.00008504,0.00001319,-
 0.00000835,-0.00001068,-0.00002056,-0.00000278,0.00001272,0.00000737,0
 .00001354,-0.00002512,-0.00001226,0.00001237,0.00001206,-0.00000107,-0
 .00000393,0.00000432,0.00000120,-0.00000026,-0.00000235,-0.00000119,-0
 .00000024,-0.00000008,-0.00000064,-0.00000392,-0.00000176,-0.00000245,
 0.00000520,-0.00000309,0.00000324,-0.00001678,0.00000351,-0.00009634,-
 0.00001179,-0.00003807,0.00000441,0.00003010,-0.00002821,0.00000074,0.
 00000243,0.00000719,0.00000364,-0.00000093,-0.00000506,-0.00000047,0.0
 0000390,-0.00000111,0.00000184,-0.00000287,0.00000327,0.00007306,0.000
 01668,0.00000467,-0.00000761,-0.00001042,-0.00001977,-0.00009331,-0.00
 004664,0.00003435,0.00015185,-0.00003351,-0.00025870,-0.00001745,-0.00
 001160,0.00001729,0.00000943,-0.00002266,-0.00001625,0.00003423,0.0001
 0916,0.00008317,0.00148299,-0.00090168,-0.00005840,-0.00093658,0.00057
 945,0.00122624,-0.27868883,-0.09785757,-0.04072070,-0.02897173,-0.0004
 5888,0.00236986,-0.00025350,0.00160719,0.00215575,-0.00000224,0.000000
 97,0.00000214,-0.00000521,0.00000141,0.00000132,-0.00000021,-0.0000000
 1,0.00000145,-0.00000025,0.00000197,0.00000111,0.00000151,0.00000040,0
 .00000013,0.00000500,-0.00000446,0.00000362,-0.00000311,-0.00001001,0.
 00000114,0.00000356,0.00000266,-0.00000644,-0.00000044,-0.00000152,-0.
 00000219,-0.00000433,-0.00000373,0.00000073,0.00000078,0.00000157,0.00
 000040,-0.00000218,-0.00000434,-0.00000184,0.00000219,-0.00000433,0.00
 000371,-0.00000300,0.00000249,-0.00000844,-0.00000120,0.00000459,0.000
 00583,-0.00001469,-0.00000407,-0.00000799,0.00001195,-0.00000276,0.000
 01318,0.00002197,0.00002586,-0.00004786,-0.00001130,0.00000001,0.00000
 788,-0.00014850,0.00011354,0.00004593,0.00042407,-0.00017836,-0.000488
 31,0.30767381,-0.00001686,0.00000964,-0.00001327,0.00002101,-0.0000098
 7,0.00003126,0.00000501,-0.00000320,-0.00000501,-0.00000763,-0.0000014
 7,0.00000512,0.00000351,0.00000428,-0.00000986,-0.00000489,0.00000498,
 0.00000525,-0.00000036,-0.00000156,0.00000153,0.00000044,0.00000017,-0
 .00000071,-0.00000065,-0.00000007,0.00000046,0.00000015,-0.00000107,-0
 .00000092,-0.00000057,0.00000203,-0.00000128,0.00000114,-0.00000616,0.
 00000134,-0.00004053,0.00000260,-0.00001047,0.00000259,0.00001253,-0.0
 0001594,0.00000165,-0.00000035,0.00000394,0.00000082,-0.00000077,-0.00
 000244,-0.00000073,0.00000277,-0.00000102,0.00000053,-0.00000145,-0.00
 000090,0.00003877,-0.00004002,-0.00007160,-0.00007774,0.00004059,0.000
 10963,0.00019908,0.00004354,-0.00008540,0.00021200,-0.00032728,0.00090
 166,-0.00019436,-0.00001474,-0.00002766,0.00004258,0.00006438,0.000066
 19,0.00061832,-0.00064529,-0.00021949,0.00009420,-0.00176697,-0.005894
 09,-0.02402054,-0.00333913,-0.00394706,-0.09820677,-0.09217411,-0.0242
 2580,0.02051018,0.00646229,0.00500230,0.00352479,0.00299102,-0.0053393
 2,-0.00000093,0.00000027,0.00000066,-0.00000198,0.00000034,0.00000062,
 -0.00000029,0.00000010,0.00000052,-0.00000005,0.00000071,0.00000026,0.
 00000049,0.00000004,0.00000005,0.00000177,-0.00000155,0.00000106,-0.00
 000142,-0.00000361,0.00000068,0.00000221,0.00000058,-0.00000071,-0.000
 00021,-0.00000011,-0.00000029,-0.00000196,-0.00000152,0.00000060,0.000
 00008,0.00000075,0.00000068,-0.00000083,-0.00000176,-0.00000057,0.0000
 0102,-0.00000249,0.00000193,-0.00000042,0.00000129,-0.00000430,0.00000
 004,0.00000237,0.00000433,0.00001325,-0.00000278,0.00000042,0.00000860
 ,0.00000858,0.00006081,-0.00002051,-0.00000799,0.00003834,-0.00000727,
 -0.00000556,0.00000432,-0.00123964,-0.00049352,0.00003719,0.00051988,-
 0.00041060,0.00168645,0.09745895,0.08927813,0.00001019,-0.00000035,0.0
 0000788,-0.00000299,-0.00000214,-0.00001650,-0.00000219,0.00000001,0.0
 0000371,0.00000347,0.00000105,-0.00000268,-0.00000318,-0.00000117,0.00
 000484,0.00000223,-0.00000292,-0.00000343,0.00000052,0.00000119,-0.000
 00062,-0.00000018,-0.00000064,0.00000014,0.00000023,0.00000052,-0.0000
 0071,-0.00000044,0.00000042,0.00000066,-0.00000021,-0.00000099,0.00000
 080,0.00000005,0.00000233,-0.00000071,0.00002448,-0.00000414,0.0000131
 9,-0.00000622,-0.00001054,0.00001806,0.00000056,-0.00000058,-0.0000035
 8,-0.00000093,0.00000075,0.00000201,0.00000040,0.00000015,0.00000080,0
 .00000177,0.00000248,0.00000010,-0.00002959,0.00007116,0.00015703,0.00
 017892,-0.00001652,-0.00011347,-0.00026678,-0.00004211,0.00000106,-0.0
 0037832,0.00083522,-0.00107470,0.00028591,0.00004944,-0.00002311,-0.00
 013955,-0.00012147,-0.00006529,0.00056283,0.00014300,-0.00043926,0.000
 64784,-0.00592263,0.00291662,-0.01542148,-0.00632908,0.00366179,-0.040
 73338,-0.02457533,-0.05284425,0.01637691,0.00765388,-0.00082358,0.0034
 1909,-0.00540729,0.00633558,0.00000106,-0.00000001,-0.00000007,0.00000
 133,0.00000033,-0.00000049,0.00000031,0.00000002,-0.00000011,0.0000001
 7,-0.00000029,0.00000006,-0.00000022,0.00000028,0.00000013,-0.00000070
 ,0.00000040,-0.00000033,0.00000076,0.00000246,-0.00000070,-0.00000165,
 -0.00000020,-0.00000257,-0.00000117,0.,-0.00000103,-0.00000044,0.00000
 058,-0.00000022,0.00000018,-0.00000039,-0.00000048,-0.00000011,0.00000
 031,-0.00000025,-0.00000053,0.00000207,-0.00000113,0.00000088,-0.00000
 239,-0.00000063,0.00000052,-0.00000052,0.00000099,-0.00001418,0.000003
 69,-0.00000264,0.00000985,-0.00002600,0.00001781,0.00000993,0.00000106
 ,-0.00000662,0.00000296,0.00000622,-0.00000444,-0.00083153,-0.00009750
 ,-0.00026335,0.00000398,0.00172603,-0.00185895,0.03578011,0.03211656,0
 .04395919,0.00002178,-0.00001684,0.00002225,-0.00002638,0.00001318,-0.
 00004987,-0.00000851,0.00000709,0.00001032,0.00001068,0.00000042,-0.00
 000785,-0.00000521,-0.00001029,0.00001345,0.00000616,-0.00000686,-0.00
 000805,0.00000115,0.00000155,-0.00000213,-0.00000106,0.00000085,0.0000
 0050,-0.00000057,-0.00000131,-0.00000050,-0.00000013,0.00000225,-0.000
 00041,0.00000004,-0.00000326,0.00000106,-0.00000162,0.00001210,-0.0000
 0122,0.00004928,-0.00001840,0.00000250,-0.00000019,-0.00001209,0.00002
 798,-0.00000193,0.00000131,-0.00000585,-0.00000095,0.00000121,0.000004
 18,-0.00000026,-0.00000169,0.00000042,0.00000052,0.00000213,0.00000108
 ,-0.00009500,0.00012411,0.00014841,0.00011863,-0.00000555,-0.00007549,
 0.00006038,0.00006881,-0.00002633,0.00044519,-0.00014526,-0.00034588,-
 0.00015747,-0.00054034,0.00053148,-0.00022699,-0.00008937,-0.00028070,
 0.00594803,-0.00484616,-0.00274016,0.00053815,-0.00180919,-0.00053840,
 -0.00036301,0.00000051,-0.00010407,-0.00268040,-0.00210797,-0.00010551
 ,-0.03375294,0.01147195,0.01050731,-0.18327626,0.11033034,0.08200374,0
 .00000123,-0.00000074,-0.00000018,0.00000351,0.00000017,-0.00000125,0.
 00000088,0.00000020,-0.00000021,0.00000131,-0.00000096,-0.00000013,0.0
 0000044,-0.00000070,0.00000117,-0.00000173,0.00000349,-0.00000109,0.00
 000181,0.00000499,-0.00000158,-0.00000396,-0.00000091,-0.00000003,0.00
 000010,-0.00000036,-0.00000029,0.00000190,0.00000152,-0.00000081,-0.00
 000002,-0.00000083,-0.00000162,0.00000046,0.00000120,-0.00000015,-0.00
 000070,0.00000211,-0.00000079,0.00000011,-0.00000137,0.00000384,0.0000
 0069,-0.00000207,-0.00000451,0.00001073,0.00000649,0.00000404,-0.00001
 153,-0.00001037,-0.00001807,-0.00042024,-0.00080789,-0.00020165,0.0000
 3368,-0.00004930,0.00001882,0.00038881,-0.00032577,-0.00022590,0.00001
 871,0.00033418,0.00003281,-0.00065504,0.00056407,0.00050851,0.21402779
 ,0.00005503,-0.00004370,0.00006085,-0.00008502,0.00007263,-0.00011723,
 -0.00001551,0.00000585,0.00001135,0.00002841,0.00000200,-0.00001528,-0
 .00000797,-0.00002093,0.00003230,0.00001531,-0.00001540,-0.00001485,0.
 00000221,0.00000487,-0.00000553,-0.00000194,0.00000169,0.00000306,0.00
 000065,-0.00000077,0.00000059,0.00000140,0.00000650,0.00000050,0.00000
 264,-0.00000676,0.00000408,-0.00000471,0.00002469,-0.00000464,0.000137
 64,0.00002352,0.00011883,-0.00001459,-0.00005142,0.00002076,0.00000186
 ,-0.00000840,-0.00000443,-0.00000626,0.00000016,0.00000414,0.00000049,
 -0.00000226,0.00000082,-0.00000252,0.00000541,-0.00001053,-0.00008108,
 -0.00006192,0.00005630,0.00005937,0.00010719,0.00005161,-0.00015785,0.
 00015099,-0.00009409,0.00087430,-0.00025640,0.00123094,-0.00036176,-0.
 00038785,-0.00084290,-0.00026855,0.00022816,0.00037496,0.01938702,-0.0
 0763835,-0.01101416,-0.00290820,-0.00196089,-0.00503119,-0.00067958,-0
 .00014835,0.00031319,-0.00412539,0.00384497,-0.00393344,-0.00977376,0.
 00910591,0.00938471,0.10965984,-0.14236276,-0.07454612,0.00000310,-0.0
 0000144,-0.00000358,0.00000765,-0.00000220,-0.00000145,-0.00000021,0.0
 0000020,-0.00000168,0.00000115,-0.00000266,-0.00000161,-0.00000108,-0.
 00000160,0.00000092,-0.00000638,0.00000719,-0.00000512,0.00000311,0.00
 001395,-0.00000045,-0.00000475,-0.00000565,0.00001255,-0.00000084,0.00
 000439,0.00000421,0.00000370,0.00000498,0.,-0.00000150,-0.00000161,0.0
 0000183,0.00000330,0.00000617,0.00000309,-0.00000236,0.00000571,-0.000
 00582,0.00000783,-0.00000578,0.00000724,0.00000342,-0.00000573,0.00000
 021,-0.00000031,-0.00002637,0.00001383,0.00005648,-0.00001206,0.000140
 77,-0.00058370,-0.00050033,0.00078855,-0.00002771,-0.00002032,-0.00002
 369,0.00114081,-0.00067577,-0.00041201,0.00018341,-0.00047487,0.000828
 88,-0.00037631,0.00033103,-0.00005641,-0.11214037,0.14074439,0.0000543
 1,0.00004664,-0.00001436,-0.00001235,-0.00005172,0.00004201,-0.0000003
 2,-0.00000135,0.00000330,0.00000812,0.00000445,-0.00000653,-0.00000820
 ,0.00000220,0.00001240,0.00000647,-0.00000796,-0.00000861,0.00000034,0
 .00000400,-0.00000110,0.00000015,-0.00000312,0.00000046,0.00000132,0.0
 0000436,-0.00000119,-0.00000050,0.00000153,0.00000444,0.00000184,-0.00
 000172,0.00000399,0.00000097,-0.00000105,-0.00000221,-0.00000501,-0.00
 003156,0.00000476,-0.00001328,-0.00003308,0.00002146,-0.00000094,-0.00
 000273,-0.00000313,-0.00000127,0.00000085,0.00000442,0.00000050,-0.000
 00136,0.00000025,0.00000237,0.00000626,0.00000012,-0.00012341,0.000155
 89,0.00051383,0.00055945,0.00004621,-0.00020783,-0.00074728,-0.0004330
 8,-0.00057969,0.00194134,0.00191003,-0.00137482,0.00031092,0.00072973,
 0.00016950,-0.00057093,-0.00005810,-0.00030660,0.01113417,-0.01010805,
 -0.00082540,-0.00072869,-0.00521151,0.00298552,-0.00079025,-0.00013558
 ,-0.00046610,-0.00124789,-0.00375572,0.00864580,-0.00289866,0.00709577
 ,0.00038991,0.08135195,-0.07341181,-0.09512467,0.00000253,0.00000095,-
 0.00000094,0.00000116,-0.00000061,-0.00000103,0.00000076,0.00000021,-0
 .00000087,-0.00000035,-0.00000118,-0.00000030,-0.00000318,0.00000241,-
 0.00000131,-0.00000406,-0.00000214,-0.00000334,0.00000178,0.00000493,-
 0.00000129,-0.00000510,-0.00000143,-0.00000250,-0.00000216,0.00000091,
 -0.00000101,0.00000031,0.00000172,-0.00000068,0.00000016,-0.00000086,-
 0.00000080,0.00000057,0.00000153,0.00000027,-0.00000122,0.00000453,-0.
 00000282,0.00000210,-0.00000473,0.00000092,0.00000193,-0.00000291,-0.0
 0000018,-0.00001044,-0.00000692,-0.00000238,-0.00001705,0.00001050,0.0
 0003096,0.00044287,0.00014024,0.00035520,0.00000972,0.00001378,-0.0000
 0559,0.00061169,-0.00025533,-0.00057646,-0.00006646,0.00086688,-0.0012
 2880,-0.00009767,-0.00020607,0.00045343,-0.08909318,0.08267516,0.08710
 962\\-0.00000032,0.00000613,-0.00000817,-0.00000449,-0.00000953,0.0000
 0788,0.00001114,0.00000271,-0.00000306,-0.00002281,-0.00001255,0.00001
 373,0.00001865,0.00000265,-0.00001683,-0.00000758,0.00000480,0.0000040
 1,0.00000489,-0.00000847,-0.00000160,0.00000090,0.00000650,-0.00000291
 ,-0.00000604,-0.00000359,0.00000690,0.00000616,-0.00000241,-0.00000806
 ,-0.00000461,0.00000126,0.00000044,0.00000477,0.00000515,0.00000522,-0
 .00000755,-0.00000166,0.00000725,0.00000275,0.00000339,-0.00000516,0.0
 0000260,0.00000586,0.00000438,-0.00000872,-0.00000497,-0.00000220,0.00
 000640,0.00000018,0.00001053,0.00000134,-0.00000331,-0.00000990,0.0000
 0457,0.00000292,-0.00000546,-0.00000625,-0.00000461,0.00000440,0.00000
 467,0.00000232,0.00000240,-0.00000035,-0.00000283,-0.00000396,0.000002
 49,0.00000121,-0.00000035,-0.00000343,0.00000012,0.00000077,0.00000121
 ,-0.00000152,-0.00000163,-0.00000371,0.00000367,0.00000153,0.00000208,
 -0.00000052,-0.00000009,0.00000115,0.00000661,-0.00000005,-0.00000100,
 -0.00000585,-0.00000443,-0.00000058,0.00000420,0.00000281,0.00000009,-
 0.00000070,0.00000105,-0.00000081,0.00000044,0.00000179,-0.00000055,-0
 .00000017,0.00000043,-0.00000031,-0.00000014,-0.00000060,-0.00000074,-
 0.00000038,-0.00000054,0.00000095,0.00000091,-0.00000098,-0.00000132,-
 0.00000094,0.00000165,0.00000349,-0.00000003,0.00000021,0.00000330,-0.
 00000222,0.00000129,0.00000029,0.00000002,0.00000099,0.00000379,0.0000
 0130,-0.00000058,-0.00000124,0.00000276,-0.00000047,0.00000057,-0.0000
 0028,0.00000051,-0.00000265,0.00000066,0.00000248,0.00000054,0.,0.0000
 0022,0.00000059,-0.00000028,-0.00000153,-0.00000117,0.,-0.00000173,-0.
 00000127,0.00000058,0.00000080,-0.00000152,-0.00000036,0.00000056,0.00
 000138,-0.00000028,-0.00000121,-0.00000149,-0.00000139,-0.00000228,-0.
 00000146,0.00000125,0.00000058,0.00000118,0.00000138,-0.00000103\\\@


 FROM AN ANONYMOUS WRITER, ON PERSPECTIVE:

 MAN, DESPITE HIS ARTISTIC PRETENSIONS, HIS SOPHISTICATION AND MANY 
 ACCOMPLISHMENTS, OWES THE FACT OF HIS EXISTENCE TO A SIX-INCH LAYER OF 
 TOPSOIL AND THE FACT THAT IT RAINS.
 Job cpu time:  0 days 20 hours 37 minutes 35.6 seconds.
 File lengths (MBytes):  RWF=   1692 Int=      0 D2E=      0 Chk=     23 Scr=      1
 Normal termination of Gaussian 09 at Sun Sep  4 22:09:28 2022.
