 Entering Gaussian System, Link 0=g09
 Input=Mol28.gjf
 Output=Mol28.log
 Initial command:
 /opt/gaussian/l1.exe /home/scr/lqcapf-6/Gau-259417.inp -scrdir=/home/scr/lqcapf-6/
 Entering Link 1 = /opt/gaussian/l1.exe PID=    259419.
  
 Copyright (c) 1988,1990,1992,1993,1995,1998,2003,2009,2011,
            Gaussian, Inc.  All Rights Reserved.
  
 This is part of the Gaussian(R) 09 program.  It is based on
 the Gaussian(R) 03 system (copyright 2003, Gaussian, Inc.),
 the Gaussian(R) 98 system (copyright 1998, Gaussian, Inc.),
 the Gaussian(R) 94 system (copyright 1995, Gaussian, Inc.),
 the Gaussian 92(TM) system (copyright 1992, Gaussian, Inc.),
 the Gaussian 90(TM) system (copyright 1990, Gaussian, Inc.),
 the Gaussian 88(TM) system (copyright 1988, Gaussian, Inc.),
 the Gaussian 86(TM) system (copyright 1986, Carnegie Mellon
 University), and the Gaussian 82(TM) system (copyright 1983,
 Carnegie Mellon University). Gaussian is a federally registered
 trademark of Gaussian, Inc.
  
 This software contains proprietary and confidential information,
 including trade secrets, belonging to Gaussian, Inc.
  
 This software is provided under written license and may be
 used, copied, transmitted, or stored only in accord with that
 written license.
  
 The following legend is applicable only to US Government
 contracts under FAR:
  
                    RESTRICTED RIGHTS LEGEND
  
 Use, reproduction and disclosure by the US Government is
 subject to restrictions as set forth in subparagraphs (a)
 and (c) of the Commercial Computer Software - Restricted
 Rights clause in FAR 52.227-19.
  
 Gaussian, Inc.
 340 Quinnipiac St., Bldg. 40, Wallingford CT 06492
  
  
 ---------------------------------------------------------------
 Warning -- This program may not be used in any manner that
 competes with the business of Gaussian, Inc. or will provide
 assistance to any competitor of Gaussian, Inc.  The licensee
 of this program is prohibited from giving any competitor of
 Gaussian, Inc. access to this program.  By using this program,
 the user acknowledges that Gaussian, Inc. is engaged in the
 business of creating and licensing software in the field of
 computational chemistry and represents and warrants to the
 licensee that it is not a competitor of Gaussian, Inc. and that
 it will not use this program in any manner prohibited above.
 ---------------------------------------------------------------
  

 Cite this work as:
 Gaussian 09, Revision C.01,
 M. J. Frisch, G. W. Trucks, H. B. Schlegel, G. E. Scuseria, 
 M. A. Robb, J. R. Cheeseman, G. Scalmani, V. Barone, B. Mennucci, 
 G. A. Petersson, H. Nakatsuji, M. Caricato, X. Li, H. P. Hratchian, 
 A. F. Izmaylov, J. Bloino, G. Zheng, J. L. Sonnenberg, M. Hada, 
 M. Ehara, K. Toyota, R. Fukuda, J. Hasegawa, M. Ishida, T. Nakajima, 
 Y. Honda, O. Kitao, H. Nakai, T. Vreven, J. A. Montgomery, Jr., 
 J. E. Peralta, F. Ogliaro, M. Bearpark, J. J. Heyd, E. Brothers, 
 K. N. Kudin, V. N. Staroverov, T. Keith, R. Kobayashi, J. Normand, 
 K. Raghavachari, A. Rendell, J. C. Burant, S. S. Iyengar, J. Tomasi, 
 M. Cossi, N. Rega, J. M. Millam, M. Klene, J. E. Knox, J. B. Cross, 
 V. Bakken, C. Adamo, J. Jaramillo, R. Gomperts, R. E. Stratmann, 
 O. Yazyev, A. J. Austin, R. Cammi, C. Pomelli, J. W. Ochterski, 
 R. L. Martin, K. Morokuma, V. G. Zakrzewski, G. A. Voth, 
 P. Salvador, J. J. Dannenberg, S. Dapprich, A. D. Daniels, 
 O. Farkas, J. B. Foresman, J. V. Ortiz, J. Cioslowski, 
 and D. J. Fox, Gaussian, Inc., Wallingford CT, 2010.
 
 ******************************************
 Gaussian 09:  EM64L-G09RevC.01 23-Sep-2011
                 5-Sep-2022 
 ******************************************
 %nprocshared=8
 Will use up to    8 processors via shared memory.
 %mem=1600MB
 -------------------------
 #p opt freq b3lyp/cc-pvdz
 -------------------------
 1/14=-1,18=20,19=15,26=3,38=1/1,3;
 2/9=110,12=2,17=6,18=5,40=1/2;
 3/5=16,11=2,16=1,25=1,30=1,71=1,74=-5/1,2,3;
 4//1;
 5/5=2,38=5/2;
 6/7=2,8=2,9=2,10=2,28=1/1;
 7//1,2,3,16;
 1/14=-1,18=20,19=15/3(2);
 2/9=110/2;
 99//99;
 2/9=110/2;
 3/5=16,11=2,16=1,25=1,30=1,71=1,74=-5/1,2,3;
 4/5=5,16=3/1;
 5/5=2,38=5/2;
 7//1,2,3,16;
 1/14=-1,18=20,19=15/3(-5);
 2/9=110/2;
 6/7=2,8=2,9=2,10=2,19=2,28=1/1;
 99/9=1/99;
 Leave Link    1 at Mon Sep  5 20:09:44 2022, MaxMem=  209715200 cpu:       0.2
 (Enter /opt/gaussian/l101.exe)
 ---------
 Mol28.log
 ---------
 Charge =  0 Multiplicity = 1
 Symbolic Z-Matrix:
 Cl                   -3.16915   5.85408  -0.52128 
 C                    -2.35034   4.37271   0.11311 
 C                    -2.38221   4.11664   1.46986 
 C                    -1.75232   2.97525   1.93822 
 C                    -1.10397   2.11387   1.0616 
 C                    -1.07838   2.38452  -0.30113 
 C                    -1.71664   3.53006  -0.77334 
 C                    -0.3649    1.49387  -1.30893 
 N                     0.04982   0.18143  -0.80946 
 C                    -0.84328  -0.84486  -0.62069 
 O                    -0.53029  -1.90402  -0.10088 
 C                    -2.27325  -0.61175  -1.09418 
 N                    -3.08691  -1.77769  -0.94358 
 N                    -3.33338  -2.5686   -2.02726 
 N                    -4.03471  -3.56339  -1.67408 
 C                    -4.2801   -3.47912  -0.31263 
 C                    -4.99967  -4.32148   0.53381 
 C                    -5.0728   -3.96841   1.85889 
 C                    -4.43844  -2.79996   2.3369 
 C                    -3.72511  -1.9659    1.50956 
 C                    -3.65996  -2.33049   0.16242 
 C                     1.44594  -0.02196  -0.53673 
 C                     2.16175   0.92386   0.18422 
 C                     3.52187   0.7617    0.39871 
 C                     4.19718  -0.35309  -0.08781 
 C                     3.46482  -1.29922  -0.80507 
 C                     2.11091  -1.13633  -1.03522 
 C                     5.6518   -0.52994   0.14802 
 C                     6.22799  -0.29517   1.3948 
 C                     7.59146  -0.473     1.56639 
 C                     8.35067  -0.88649   0.48426 
 N                     7.80993  -1.11236  -0.71134 
 C                     6.50234  -0.93909  -0.87747 
 H                    -2.88433   4.78638   2.13684 
 H                    -1.76462   2.75693   2.98809 
 H                    -0.61826   1.23751   1.44283 
 H                    -1.71911   3.76192  -1.82052 
 H                    -0.99254   1.3757   -2.18343 
 H                     0.52927   1.99323  -1.65276 
 H                    -2.71786   0.21544  -0.55806 
 H                    -2.2777   -0.36895  -2.14643 
 H                    -5.46991  -5.2047    0.15124 
 H                    -5.61365  -4.5849    2.54924 
 H                    -4.51369  -2.56326   3.38056 
 H                    -3.23439  -1.0911    1.88604 
 H                     1.67032   1.79166   0.57669 
 H                     4.05873   1.51877   0.93693 
 H                     3.95235  -2.17952  -1.17591 
 H                     1.57009  -1.88527  -1.5738 
 H                     5.61407   0.00318   2.22243 
 H                     8.05279  -0.30401   2.51868 
 H                     9.40634  -1.04159   0.56835 
 H                     6.12453  -1.11753  -1.86353 
 
 NAtoms=     53 NQM=        0 NQMF=       0 NMMI=     53 NMMIF=      0
                NMic=       0 NMicF=      0.
                    Isotopes and Nuclear Properties:
 (Nuclear quadrupole moments (NQMom) in fm**2, nuclear magnetic moments (NMagM)
  in nuclear magnetons)

  Atom         1           2           3           4           5           6           7           8           9          10
 IAtWgt=          35          12          12          12          12          12          12          12          14          12
 AtmWgt=  34.9688527  12.0000000  12.0000000  12.0000000  12.0000000  12.0000000  12.0000000  12.0000000  14.0030740  12.0000000
 NucSpn=           3           0           0           0           0           0           0           0           2           0
 AtZEff=   0.0000000   0.0000000   0.0000000   0.0000000   0.0000000   0.0000000   0.0000000   0.0000000   0.0000000   0.0000000
 NQMom=   -8.1650000   0.0000000   0.0000000   0.0000000   0.0000000   0.0000000   0.0000000   0.0000000   2.0440000   0.0000000
 NMagM=    0.8218740   0.0000000   0.0000000   0.0000000   0.0000000   0.0000000   0.0000000   0.0000000   0.4037610   0.0000000

  Atom        11          12          13          14          15          16          17          18          19          20
 IAtWgt=          16          12          14          14          14          12          12          12          12          12
 AtmWgt=  15.9949146  12.0000000  14.0030740  14.0030740  14.0030740  12.0000000  12.0000000  12.0000000  12.0000000  12.0000000
 NucSpn=           0           0           2           2           2           0           0           0           0           0
 AtZEff=   0.0000000   0.0000000   0.0000000   0.0000000   0.0000000   0.0000000   0.0000000   0.0000000   0.0000000   0.0000000
 NQMom=    0.0000000   0.0000000   2.0440000   2.0440000   2.0440000   0.0000000   0.0000000   0.0000000   0.0000000   0.0000000
 NMagM=    0.0000000   0.0000000   0.4037610   0.4037610   0.4037610   0.0000000   0.0000000   0.0000000   0.0000000   0.0000000

  Atom        21          22          23          24          25          26          27          28          29          30
 IAtWgt=          12          12          12          12          12          12          12          12          12          12
 AtmWgt=  12.0000000  12.0000000  12.0000000  12.0000000  12.0000000  12.0000000  12.0000000  12.0000000  12.0000000  12.0000000
 NucSpn=           0           0           0           0           0           0           0           0           0           0
 AtZEff=   0.0000000   0.0000000   0.0000000   0.0000000   0.0000000   0.0000000   0.0000000   0.0000000   0.0000000   0.0000000
 NQMom=    0.0000000   0.0000000   0.0000000   0.0000000   0.0000000   0.0000000   0.0000000   0.0000000   0.0000000   0.0000000
 NMagM=    0.0000000   0.0000000   0.0000000   0.0000000   0.0000000   0.0000000   0.0000000   0.0000000   0.0000000   0.0000000

  Atom        31          32          33          34          35          36          37          38          39          40
 IAtWgt=          12          14          12           1           1           1           1           1           1           1
 AtmWgt=  12.0000000  14.0030740  12.0000000   1.0078250   1.0078250   1.0078250   1.0078250   1.0078250   1.0078250   1.0078250
 NucSpn=           0           2           0           1           1           1           1           1           1           1
 AtZEff=   0.0000000   0.0000000   0.0000000   0.0000000   0.0000000   0.0000000   0.0000000   0.0000000   0.0000000   0.0000000
 NQMom=    0.0000000   2.0440000   0.0000000   0.0000000   0.0000000   0.0000000   0.0000000   0.0000000   0.0000000   0.0000000
 NMagM=    0.0000000   0.4037610   0.0000000   2.7928460   2.7928460   2.7928460   2.7928460   2.7928460   2.7928460   2.7928460

  Atom        41          42          43          44          45          46          47          48          49          50
 IAtWgt=           1           1           1           1           1           1           1           1           1           1
 AtmWgt=   1.0078250   1.0078250   1.0078250   1.0078250   1.0078250   1.0078250   1.0078250   1.0078250   1.0078250   1.0078250
 NucSpn=           1           1           1           1           1           1           1           1           1           1
 AtZEff=   0.0000000   0.0000000   0.0000000   0.0000000   0.0000000   0.0000000   0.0000000   0.0000000   0.0000000   0.0000000
 NQMom=    0.0000000   0.0000000   0.0000000   0.0000000   0.0000000   0.0000000   0.0000000   0.0000000   0.0000000   0.0000000
 NMagM=    2.7928460   2.7928460   2.7928460   2.7928460   2.7928460   2.7928460   2.7928460   2.7928460   2.7928460   2.7928460

  Atom        51          52          53
 IAtWgt=           1           1           1
 AtmWgt=   1.0078250   1.0078250   1.0078250
 NucSpn=           1           1           1
 AtZEff=   0.0000000   0.0000000   0.0000000
 NQMom=    0.0000000   0.0000000   0.0000000
 NMagM=    2.7928460   2.7928460   2.7928460
 Leave Link  101 at Mon Sep  5 20:09:44 2022, MaxMem=  209715200 cpu:       0.9
 (Enter /opt/gaussian/l103.exe)

 GradGradGradGradGradGradGradGradGradGradGradGradGradGradGradGradGradGrad
 Berny optimization.
 Initialization pass.
                           ----------------------------
                           !    Initial Parameters    !
                           ! (Angstroms and Degrees)  !
 --------------------------                            --------------------------
 ! Name  Definition              Value          Derivative Info.                !
 --------------------------------------------------------------------------------
 ! R1    R(1,2)                  1.8076         estimate D2E/DX2                !
 ! R2    R(2,3)                  1.3811         estimate D2E/DX2                !
 ! R3    R(2,7)                  1.3775         estimate D2E/DX2                !
 ! R4    R(3,4)                  1.3852         estimate D2E/DX2                !
 ! R5    R(3,34)                 1.0703         estimate D2E/DX2                !
 ! R6    R(4,5)                  1.3895         estimate D2E/DX2                !
 ! R7    R(4,35)                 1.0724         estimate D2E/DX2                !
 ! R8    R(5,6)                  1.3896         estimate D2E/DX2                !
 ! R9    R(5,36)                 1.072          estimate D2E/DX2                !
 ! R10   R(6,7)                  1.3938         estimate D2E/DX2                !
 ! R11   R(6,8)                  1.5225         estimate D2E/DX2                !
 ! R12   R(7,37)                 1.0725         estimate D2E/DX2                !
 ! R13   R(8,9)                  1.4642         estimate D2E/DX2                !
 ! R14   R(8,38)                 1.0829         estimate D2E/DX2                !
 ! R15   R(8,39)                 1.0803         estimate D2E/DX2                !
 ! R16   R(9,10)                 1.3735         estimate D2E/DX2                !
 ! R17   R(9,22)                 1.437          estimate D2E/DX2                !
 ! R18   R(10,11)                1.2206         estimate D2E/DX2                !
 ! R19   R(10,12)                1.5243         estimate D2E/DX2                !
 ! R20   R(12,13)                1.4297         estimate D2E/DX2                !
 ! R21   R(12,40)                1.0814         estimate D2E/DX2                !
 ! R22   R(12,41)                1.0799         estimate D2E/DX2                !
 ! R23   R(13,14)                1.3641         estimate D2E/DX2                !
 ! R24   R(13,21)                1.3628         estimate D2E/DX2                !
 ! R25   R(14,15)                1.2674         estimate D2E/DX2                !
 ! R26   R(15,16)                1.386          estimate D2E/DX2                !
 ! R27   R(16,17)                1.3942         estimate D2E/DX2                !
 ! R28   R(16,21)                1.3891         estimate D2E/DX2                !
 ! R29   R(17,18)                1.3733         estimate D2E/DX2                !
 ! R30   R(17,42)                1.0712         estimate D2E/DX2                !
 ! R31   R(18,19)                1.4129         estimate D2E/DX2                !
 ! R32   R(18,43)                1.072          estimate D2E/DX2                !
 ! R33   R(19,20)                1.3744         estimate D2E/DX2                !
 ! R34   R(19,44)                1.0728         estimate D2E/DX2                !
 ! R35   R(20,21)                1.3971         estimate D2E/DX2                !
 ! R36   R(20,45)                1.0714         estimate D2E/DX2                !
 ! R37   R(22,23)                1.3881         estimate D2E/DX2                !
 ! R38   R(22,27)                1.3901         estimate D2E/DX2                !
 ! R39   R(23,24)                1.3864         estimate D2E/DX2                !
 ! R40   R(23,46)                1.0717         estimate D2E/DX2                !
 ! R41   R(24,25)                1.3912         estimate D2E/DX2                !
 ! R42   R(24,47)                1.0729         estimate D2E/DX2                !
 ! R43   R(25,26)                1.395          estimate D2E/DX2                !
 ! R44   R(25,28)                1.4842         estimate D2E/DX2                !
 ! R45   R(26,27)                1.383          estimate D2E/DX2                !
 ! R46   R(26,48)                1.0724         estimate D2E/DX2                !
 ! R47   R(27,49)                1.0693         estimate D2E/DX2                !
 ! R48   R(28,29)                1.3934         estimate D2E/DX2                !
 ! R49   R(28,33)                1.3937         estimate D2E/DX2                !
 ! R50   R(29,30)                1.3857         estimate D2E/DX2                !
 ! R51   R(29,50)                1.0728         estimate D2E/DX2                !
 ! R52   R(30,31)                1.3851         estimate D2E/DX2                !
 ! R53   R(30,51)                1.0716         estimate D2E/DX2                !
 ! R54   R(31,32)                1.3315         estimate D2E/DX2                !
 ! R55   R(31,52)                1.0703         estimate D2E/DX2                !
 ! R56   R(32,33)                1.3294         estimate D2E/DX2                !
 ! R57   R(33,53)                1.0709         estimate D2E/DX2                !
 ! A1    A(1,2,3)              119.0963         estimate D2E/DX2                !
 ! A2    A(1,2,7)              118.9389         estimate D2E/DX2                !
 ! A3    A(3,2,7)              121.9644         estimate D2E/DX2                !
 ! A4    A(2,3,4)              118.3225         estimate D2E/DX2                !
 ! A5    A(2,3,34)             120.4643         estimate D2E/DX2                !
 ! A6    A(4,3,34)             121.2131         estimate D2E/DX2                !
 ! A7    A(3,4,5)              120.6403         estimate D2E/DX2                !
 ! A8    A(3,4,35)             119.573          estimate D2E/DX2                !
 ! A9    A(5,4,35)             119.7866         estimate D2E/DX2                !
 ! A10   A(4,5,6)              120.4334         estimate D2E/DX2                !
 ! A11   A(4,5,36)             119.5915         estimate D2E/DX2                !
 ! A12   A(6,5,36)             119.9747         estimate D2E/DX2                !
 ! A13   A(5,6,7)              118.9404         estimate D2E/DX2                !
 ! A14   A(5,6,8)              122.9455         estimate D2E/DX2                !
 ! A15   A(7,6,8)              118.1084         estimate D2E/DX2                !
 ! A16   A(2,7,6)              119.6978         estimate D2E/DX2                !
 ! A17   A(2,7,37)             119.6706         estimate D2E/DX2                !
 ! A18   A(6,7,37)             120.6316         estimate D2E/DX2                !
 ! A19   A(6,8,9)              115.5492         estimate D2E/DX2                !
 ! A20   A(6,8,38)             109.0736         estimate D2E/DX2                !
 ! A21   A(6,8,39)             109.1562         estimate D2E/DX2                !
 ! A22   A(9,8,38)             109.9879         estimate D2E/DX2                !
 ! A23   A(9,8,39)             106.7651         estimate D2E/DX2                !
 ! A24   A(38,8,39)            105.8515         estimate D2E/DX2                !
 ! A25   A(8,9,10)             122.1716         estimate D2E/DX2                !
 ! A26   A(8,9,22)             117.8262         estimate D2E/DX2                !
 ! A27   A(10,9,22)            119.9934         estimate D2E/DX2                !
 ! A28   A(9,10,11)            122.6937         estimate D2E/DX2                !
 ! A29   A(9,10,12)            116.9393         estimate D2E/DX2                !
 ! A30   A(11,10,12)           120.367          estimate D2E/DX2                !
 ! A31   A(10,12,13)           112.1146         estimate D2E/DX2                !
 ! A32   A(10,12,40)           110.408          estimate D2E/DX2                !
 ! A33   A(10,12,41)           109.9337         estimate D2E/DX2                !
 ! A34   A(13,12,40)           109.7308         estimate D2E/DX2                !
 ! A35   A(13,12,41)           106.4777         estimate D2E/DX2                !
 ! A36   A(40,12,41)           108.0232         estimate D2E/DX2                !
 ! A37   A(12,13,14)           119.4714         estimate D2E/DX2                !
 ! A38   A(12,13,21)           130.964          estimate D2E/DX2                !
 ! A39   A(14,13,21)           109.486          estimate D2E/DX2                !
 ! A40   A(13,14,15)           109.4945         estimate D2E/DX2                !
 ! A41   A(14,15,16)           108.9049         estimate D2E/DX2                !
 ! A42   A(15,16,17)           130.6188         estimate D2E/DX2                !
 ! A43   A(15,16,21)           107.8889         estimate D2E/DX2                !
 ! A44   A(17,16,21)           121.4922         estimate D2E/DX2                !
 ! A45   A(16,17,18)           117.2554         estimate D2E/DX2                !
 ! A46   A(16,17,42)           120.5228         estimate D2E/DX2                !
 ! A47   A(18,17,42)           122.2218         estimate D2E/DX2                !
 ! A48   A(17,18,19)           121.0091         estimate D2E/DX2                !
 ! A49   A(17,18,43)           120.0268         estimate D2E/DX2                !
 ! A50   A(19,18,43)           118.9635         estimate D2E/DX2                !
 ! A51   A(18,19,20)           122.0894         estimate D2E/DX2                !
 ! A52   A(18,19,44)           118.6926         estimate D2E/DX2                !
 ! A53   A(20,19,44)           119.217          estimate D2E/DX2                !
 ! A54   A(19,20,21)           116.5044         estimate D2E/DX2                !
 ! A55   A(19,20,45)           121.4467         estimate D2E/DX2                !
 ! A56   A(21,20,45)           122.0427         estimate D2E/DX2                !
 ! A57   A(13,21,16)           104.2171         estimate D2E/DX2                !
 ! A58   A(13,21,20)           134.1298         estimate D2E/DX2                !
 ! A59   A(16,21,20)           121.649          estimate D2E/DX2                !
 ! A60   A(9,22,23)            120.2092         estimate D2E/DX2                !
 ! A61   A(9,22,27)            120.6738         estimate D2E/DX2                !
 ! A62   A(23,22,27)           119.0643         estimate D2E/DX2                !
 ! A63   A(22,23,24)           120.4345         estimate D2E/DX2                !
 ! A64   A(22,23,46)           120.3629         estimate D2E/DX2                !
 ! A65   A(24,23,46)           119.2015         estimate D2E/DX2                !
 ! A66   A(23,24,25)           121.0517         estimate D2E/DX2                !
 ! A67   A(23,24,47)           119.0761         estimate D2E/DX2                !
 ! A68   A(25,24,47)           119.8662         estimate D2E/DX2                !
 ! A69   A(24,25,26)           117.9335         estimate D2E/DX2                !
 ! A70   A(24,25,28)           121.041          estimate D2E/DX2                !
 ! A71   A(26,25,28)           121.0256         estimate D2E/DX2                !
 ! A72   A(25,26,27)           121.3088         estimate D2E/DX2                !
 ! A73   A(25,26,48)           119.7262         estimate D2E/DX2                !
 ! A74   A(27,26,48)           118.959          estimate D2E/DX2                !
 ! A75   A(22,27,26)           120.2014         estimate D2E/DX2                !
 ! A76   A(22,27,49)           120.0082         estimate D2E/DX2                !
 ! A77   A(26,27,49)           119.7659         estimate D2E/DX2                !
 ! A78   A(25,28,29)           121.8282         estimate D2E/DX2                !
 ! A79   A(25,28,33)           121.0761         estimate D2E/DX2                !
 ! A80   A(29,28,33)           117.0957         estimate D2E/DX2                !
 ! A81   A(28,29,30)           119.7398         estimate D2E/DX2                !
 ! A82   A(28,29,50)           120.0339         estimate D2E/DX2                !
 ! A83   A(30,29,50)           120.2152         estimate D2E/DX2                !
 ! A84   A(29,30,31)           118.7456         estimate D2E/DX2                !
 ! A85   A(29,30,51)           120.8925         estimate D2E/DX2                !
 ! A86   A(31,30,51)           120.3593         estimate D2E/DX2                !
 ! A87   A(30,31,32)           121.9773         estimate D2E/DX2                !
 ! A88   A(30,31,52)           121.5017         estimate D2E/DX2                !
 ! A89   A(32,31,52)           116.5209         estimate D2E/DX2                !
 ! A90   A(31,32,33)           119.3103         estimate D2E/DX2                !
 ! A91   A(28,33,32)           123.1307         estimate D2E/DX2                !
 ! A92   A(28,33,53)           120.7373         estimate D2E/DX2                !
 ! A93   A(32,33,53)           116.125          estimate D2E/DX2                !
 ! D1    D(1,2,3,4)            179.8471         estimate D2E/DX2                !
 ! D2    D(1,2,3,34)            -0.0367         estimate D2E/DX2                !
 ! D3    D(7,2,3,4)              0.0757         estimate D2E/DX2                !
 ! D4    D(7,2,3,34)          -179.8081         estimate D2E/DX2                !
 ! D5    D(1,2,7,6)            179.8955         estimate D2E/DX2                !
 ! D6    D(1,2,7,37)            -0.1008         estimate D2E/DX2                !
 ! D7    D(3,2,7,6)             -0.3327         estimate D2E/DX2                !
 ! D8    D(3,2,7,37)           179.6709         estimate D2E/DX2                !
 ! D9    D(2,3,4,5)              0.1134         estimate D2E/DX2                !
 ! D10   D(2,3,4,35)           179.9956         estimate D2E/DX2                !
 ! D11   D(34,3,4,5)           179.9963         estimate D2E/DX2                !
 ! D12   D(34,3,4,35)           -0.1215         estimate D2E/DX2                !
 ! D13   D(3,4,5,6)             -0.0435         estimate D2E/DX2                !
 ! D14   D(3,4,5,36)           179.7332         estimate D2E/DX2                !
 ! D15   D(35,4,5,6)          -179.9254         estimate D2E/DX2                !
 ! D16   D(35,4,5,36)           -0.1487         estimate D2E/DX2                !
 ! D17   D(4,5,6,7)             -0.2114         estimate D2E/DX2                !
 ! D18   D(4,5,6,8)            178.9012         estimate D2E/DX2                !
 ! D19   D(36,5,6,7)          -179.9872         estimate D2E/DX2                !
 ! D20   D(36,5,6,8)            -0.8745         estimate D2E/DX2                !
 ! D21   D(5,6,7,2)              0.3944         estimate D2E/DX2                !
 ! D22   D(5,6,7,37)          -179.6094         estimate D2E/DX2                !
 ! D23   D(8,6,7,2)           -178.7614         estimate D2E/DX2                !
 ! D24   D(8,6,7,37)             1.2349         estimate D2E/DX2                !
 ! D25   D(5,6,8,9)             12.7571         estimate D2E/DX2                !
 ! D26   D(5,6,8,38)           137.2403         estimate D2E/DX2                !
 ! D27   D(5,6,8,39)          -107.5417         estimate D2E/DX2                !
 ! D28   D(7,6,8,9)           -168.1233         estimate D2E/DX2                !
 ! D29   D(7,6,8,38)           -43.6401         estimate D2E/DX2                !
 ! D30   D(7,6,8,39)            71.5779         estimate D2E/DX2                !
 ! D31   D(6,8,9,10)            75.7315         estimate D2E/DX2                !
 ! D32   D(6,8,9,22)          -105.3453         estimate D2E/DX2                !
 ! D33   D(38,8,9,10)          -48.2752         estimate D2E/DX2                !
 ! D34   D(38,8,9,22)          130.648          estimate D2E/DX2                !
 ! D35   D(39,8,9,10)         -162.6768         estimate D2E/DX2                !
 ! D36   D(39,8,9,22)           16.2464         estimate D2E/DX2                !
 ! D37   D(8,9,10,11)         -173.6883         estimate D2E/DX2                !
 ! D38   D(8,9,10,12)            6.3429         estimate D2E/DX2                !
 ! D39   D(22,9,10,11)           7.4113         estimate D2E/DX2                !
 ! D40   D(22,9,10,12)        -172.5575         estimate D2E/DX2                !
 ! D41   D(8,9,22,23)           46.8802         estimate D2E/DX2                !
 ! D42   D(8,9,22,27)         -130.4567         estimate D2E/DX2                !
 ! D43   D(10,9,22,23)        -134.1723         estimate D2E/DX2                !
 ! D44   D(10,9,22,27)          48.4908         estimate D2E/DX2                !
 ! D45   D(9,10,12,13)         175.4568         estimate D2E/DX2                !
 ! D46   D(9,10,12,40)         -61.8595         estimate D2E/DX2                !
 ! D47   D(9,10,12,41)          57.2246         estimate D2E/DX2                !
 ! D48   D(11,10,12,13)         -4.5128         estimate D2E/DX2                !
 ! D49   D(11,10,12,40)        118.1709         estimate D2E/DX2                !
 ! D50   D(11,10,12,41)       -122.745          estimate D2E/DX2                !
 ! D51   D(10,12,13,14)       -100.1699         estimate D2E/DX2                !
 ! D52   D(10,12,13,21)         76.2352         estimate D2E/DX2                !
 ! D53   D(40,12,13,14)        136.7636         estimate D2E/DX2                !
 ! D54   D(40,12,13,21)        -46.8314         estimate D2E/DX2                !
 ! D55   D(41,12,13,14)         20.0926         estimate D2E/DX2                !
 ! D56   D(41,12,13,21)       -163.5024         estimate D2E/DX2                !
 ! D57   D(12,13,14,15)        178.0168         estimate D2E/DX2                !
 ! D58   D(21,13,14,15)          0.8957         estimate D2E/DX2                !
 ! D59   D(12,13,21,16)       -177.6064         estimate D2E/DX2                !
 ! D60   D(12,13,21,20)          3.1499         estimate D2E/DX2                !
 ! D61   D(14,13,21,16)         -0.9259         estimate D2E/DX2                !
 ! D62   D(14,13,21,20)        179.8303         estimate D2E/DX2                !
 ! D63   D(13,14,15,16)         -0.4533         estimate D2E/DX2                !
 ! D64   D(14,15,16,17)        179.7388         estimate D2E/DX2                !
 ! D65   D(14,15,16,21)         -0.1355         estimate D2E/DX2                !
 ! D66   D(15,16,17,18)       -179.7637         estimate D2E/DX2                !
 ! D67   D(15,16,17,42)          0.2835         estimate D2E/DX2                !
 ! D68   D(21,16,17,18)          0.096          estimate D2E/DX2                !
 ! D69   D(21,16,17,42)       -179.8568         estimate D2E/DX2                !
 ! D70   D(15,16,21,13)          0.6512         estimate D2E/DX2                !
 ! D71   D(15,16,21,20)       -179.9865         estimate D2E/DX2                !
 ! D72   D(17,16,21,13)       -179.237          estimate D2E/DX2                !
 ! D73   D(17,16,21,20)          0.1254         estimate D2E/DX2                !
 ! D74   D(16,17,18,19)         -0.188          estimate D2E/DX2                !
 ! D75   D(16,17,18,43)       -179.9187         estimate D2E/DX2                !
 ! D76   D(42,17,18,19)        179.7639         estimate D2E/DX2                !
 ! D77   D(42,17,18,43)          0.0333         estimate D2E/DX2                !
 ! D78   D(17,18,19,20)          0.0649         estimate D2E/DX2                !
 ! D79   D(17,18,19,44)       -179.5649         estimate D2E/DX2                !
 ! D80   D(43,18,19,20)        179.7984         estimate D2E/DX2                !
 ! D81   D(43,18,19,44)          0.1686         estimate D2E/DX2                !
 ! D82   D(18,19,20,21)          0.1516         estimate D2E/DX2                !
 ! D83   D(18,19,20,45)       -178.963          estimate D2E/DX2                !
 ! D84   D(44,19,20,21)        179.7796         estimate D2E/DX2                !
 ! D85   D(44,19,20,45)          0.665          estimate D2E/DX2                !
 ! D86   D(19,20,21,13)        178.8946         estimate D2E/DX2                !
 ! D87   D(19,20,21,16)         -0.2443         estimate D2E/DX2                !
 ! D88   D(45,20,21,13)         -1.9966         estimate D2E/DX2                !
 ! D89   D(45,20,21,16)        178.8646         estimate D2E/DX2                !
 ! D90   D(9,22,23,24)        -177.0995         estimate D2E/DX2                !
 ! D91   D(9,22,23,46)           2.5227         estimate D2E/DX2                !
 ! D92   D(27,22,23,24)          0.2801         estimate D2E/DX2                !
 ! D93   D(27,22,23,46)        179.9022         estimate D2E/DX2                !
 ! D94   D(9,22,27,26)         177.7978         estimate D2E/DX2                !
 ! D95   D(9,22,27,49)          -4.007          estimate D2E/DX2                !
 ! D96   D(23,22,27,26)          0.4308         estimate D2E/DX2                !
 ! D97   D(23,22,27,49)        178.6259         estimate D2E/DX2                !
 ! D98   D(22,23,24,25)         -0.6862         estimate D2E/DX2                !
 ! D99   D(22,23,24,47)        178.4181         estimate D2E/DX2                !
 ! D100  D(46,23,24,25)        179.6873         estimate D2E/DX2                !
 ! D101  D(46,23,24,47)         -1.2084         estimate D2E/DX2                !
 ! D102  D(23,24,25,26)          0.3652         estimate D2E/DX2                !
 ! D103  D(23,24,25,28)       -179.6778         estimate D2E/DX2                !
 ! D104  D(47,24,25,26)       -178.7321         estimate D2E/DX2                !
 ! D105  D(47,24,25,28)          1.2249         estimate D2E/DX2                !
 ! D106  D(24,25,26,27)          0.3544         estimate D2E/DX2                !
 ! D107  D(24,25,26,48)       -178.7464         estimate D2E/DX2                !
 ! D108  D(28,25,26,27)       -179.6026         estimate D2E/DX2                !
 ! D109  D(28,25,26,48)          1.2966         estimate D2E/DX2                !
 ! D110  D(24,25,28,29)         44.5096         estimate D2E/DX2                !
 ! D111  D(24,25,28,33)       -135.4112         estimate D2E/DX2                !
 ! D112  D(26,25,28,29)       -135.5347         estimate D2E/DX2                !
 ! D113  D(26,25,28,33)         44.5444         estimate D2E/DX2                !
 ! D114  D(25,26,27,22)         -0.7572         estimate D2E/DX2                !
 ! D115  D(25,26,27,49)       -178.9567         estimate D2E/DX2                !
 ! D116  D(48,26,27,22)        178.3504         estimate D2E/DX2                !
 ! D117  D(48,26,27,49)          0.1508         estimate D2E/DX2                !
 ! D118  D(25,28,29,30)       -179.9541         estimate D2E/DX2                !
 ! D119  D(25,28,29,50)          1.2564         estimate D2E/DX2                !
 ! D120  D(33,28,29,30)         -0.0302         estimate D2E/DX2                !
 ! D121  D(33,28,29,50)       -178.8197         estimate D2E/DX2                !
 ! D122  D(25,28,33,32)       -179.8898         estimate D2E/DX2                !
 ! D123  D(25,28,33,53)          1.1101         estimate D2E/DX2                !
 ! D124  D(29,28,33,32)          0.1858         estimate D2E/DX2                !
 ! D125  D(29,28,33,53)       -178.8143         estimate D2E/DX2                !
 ! D126  D(28,29,30,31)         -0.1645         estimate D2E/DX2                !
 ! D127  D(28,29,30,51)       -179.5923         estimate D2E/DX2                !
 ! D128  D(50,29,30,31)        178.6228         estimate D2E/DX2                !
 ! D129  D(50,29,30,51)         -0.8049         estimate D2E/DX2                !
 ! D130  D(29,30,31,32)          0.227          estimate D2E/DX2                !
 ! D131  D(29,30,31,52)       -179.7368         estimate D2E/DX2                !
 ! D132  D(51,30,31,32)        179.6579         estimate D2E/DX2                !
 ! D133  D(51,30,31,52)         -0.3059         estimate D2E/DX2                !
 ! D134  D(30,31,32,33)         -0.0799         estimate D2E/DX2                !
 ! D135  D(52,31,32,33)        179.8856         estimate D2E/DX2                !
 ! D136  D(31,32,33,28)         -0.1329         estimate D2E/DX2                !
 ! D137  D(31,32,33,53)        178.9099         estimate D2E/DX2                !
 --------------------------------------------------------------------------------
 Trust Radius=3.00D-01 FncErr=1.00D-07 GrdErr=1.00D-06
 Number of steps in this run=    297 maximum allowed number of steps=    318.
 GradGradGradGradGradGradGradGradGradGradGradGradGradGradGradGradGradGrad

 Leave Link  103 at Mon Sep  5 20:09:44 2022, MaxMem=  209715200 cpu:       0.1
 (Enter /opt/gaussian/l202.exe)
 Stoichiometry    C26H20ClN5O
 Framework group  C1[X(C26H20ClN5O)]
 Deg. of freedom   153
 Full point group                 C1      NOp   1
 Largest Abelian subgroup         C1      NOp   1
 Largest concise Abelian subgroup C1      NOp   1
                         Standard orientation:                         
 ---------------------------------------------------------------------
 Center     Atomic      Atomic             Coordinates (Angstroms)
 Number     Number       Type             X           Y           Z
 ---------------------------------------------------------------------
      1         17           0       -3.169151    5.854079   -0.521280
      2          6           0       -2.350341    4.372709    0.113110
      3          6           0       -2.382211    4.116639    1.469860
      4          6           0       -1.752320    2.975249    1.938220
      5          6           0       -1.103970    2.113869    1.061600
      6          6           0       -1.078380    2.384519   -0.301130
      7          6           0       -1.716641    3.530059   -0.773340
      8          6           0       -0.364900    1.493869   -1.308930
      9          7           0        0.049820    0.181429   -0.809460
     10          6           0       -0.843280   -0.844861   -0.620690
     11          8           0       -0.530290   -1.904021   -0.100880
     12          6           0       -2.273250   -0.611751   -1.094180
     13          7           0       -3.086910   -1.777691   -0.943580
     14          7           0       -3.333379   -2.568601   -2.027260
     15          7           0       -4.034709   -3.563391   -1.674080
     16          6           0       -4.280099   -3.479121   -0.312630
     17          6           0       -4.999669   -4.321482    0.533810
     18          6           0       -5.072799   -3.968412    1.858890
     19          6           0       -4.438439   -2.799961    2.336900
     20          6           0       -3.725109   -1.965901    1.509560
     21          6           0       -3.659959   -2.330491    0.162420
     22          6           0        1.445940   -0.021960   -0.536730
     23          6           0        2.161750    0.923860    0.184220
     24          6           0        3.521870    0.761700    0.398710
     25          6           0        4.197180   -0.353090   -0.087810
     26          6           0        3.464820   -1.299220   -0.805070
     27          6           0        2.110910   -1.136330   -1.035220
     28          6           0        5.651800   -0.529940    0.148020
     29          6           0        6.227990   -0.295169    1.394800
     30          6           0        7.591460   -0.472999    1.566390
     31          6           0        8.350670   -0.886489    0.484260
     32          7           0        7.809930   -1.112359   -0.711340
     33          6           0        6.502340   -0.939089   -0.877470
     34          1           0       -2.884331    4.786379    2.136840
     35          1           0       -1.764620    2.756929    2.988090
     36          1           0       -0.618260    1.237509    1.442830
     37          1           0       -1.719111    3.761919   -1.820520
     38          1           0       -0.992540    1.375699   -2.183430
     39          1           0        0.529270    1.993230   -1.652760
     40          1           0       -2.717860    0.215439   -0.558060
     41          1           0       -2.277700   -0.368951   -2.146430
     42          1           0       -5.469909   -5.204702    0.151240
     43          1           0       -5.613649   -4.584902    2.549240
     44          1           0       -4.513689   -2.563261    3.380560
     45          1           0       -3.234390   -1.091101    1.886040
     46          1           0        1.670320    1.791660    0.576690
     47          1           0        4.058730    1.518770    0.936930
     48          1           0        3.952351   -2.179520   -1.175910
     49          1           0        1.570090   -1.885270   -1.573800
     50          1           0        5.614070    0.003180    2.222430
     51          1           0        8.052790   -0.304009    2.518680
     52          1           0        9.406340   -1.041589    0.568350
     53          1           0        6.124530   -1.117529   -1.863530
 ---------------------------------------------------------------------
 Rotational constants (GHZ):      0.1269439      0.0639285      0.0470437
 Leave Link  202 at Mon Sep  5 20:09:44 2022, MaxMem=  209715200 cpu:       0.0
 (Enter /opt/gaussian/l301.exe)
 Standard basis: CC-pVDZ (5D, 7F)
 Ernie: Thresh=  0.10000D-02 Tol=  0.10000D-05 Strict=F.
 Ernie:  74 primitive shells out of 854 were deleted.
 There are   566 symmetry adapted basis functions of A   symmetry.
 Integral buffers will be    131072 words long.
 Raffenetti 2 integral format.
 Two-electron integral symmetry is turned on.
   566 basis functions,  1267 primitive gaussians,   599 cartesian basis functions
   118 alpha electrons      118 beta electrons
       nuclear repulsion energy      3146.3909397020 Hartrees.
 IExCor=  402 DFT=T Ex+Corr=B3LYP ExCW=0 ScaHFX=  0.200000
 ScaDFX=  0.800000  0.720000  1.000000  0.810000 ScalE2=  1.000000  1.000000
 IRadAn=      0 IRanWt=     -1 IRanGd=            0 ICorTp=0
 NAtoms=   53 NActive=   53 NUniq=   53 SFac= 1.00D+00 NAtFMM=   60 NAOKFM=F Big=F
 Leave Link  301 at Mon Sep  5 20:09:44 2022, MaxMem=  209715200 cpu:       0.3
 (Enter /opt/gaussian/l302.exe)
 NPDir=0 NMtPBC=     1 NCelOv=     1 NCel=       1 NClECP=     1 NCelD=      1
         NCelK=      1 NCelE2=     1 NClLst=     1 CellRange=     0.0.
 One-electron integrals computed using PRISM.
 NBasis=   566 RedAO= T  NBF=   566
 NBsUse=   566 1.00D-06 NBFU=   566
 Precomputing XC quadrature grid using
 IXCGrd= 2 IRadAn=           0 IRanWt=          -1 IRanGd=           0 AccXCQ= 0.00D+00.
 NRdTot=    3422 NPtTot=      437394 NUsed=      462050 NTot=      462082
 NSgBfM=   571   571   571   571   574 NAtAll=    53    53.
 Leave Link  302 at Mon Sep  5 20:09:45 2022, MaxMem=  209715200 cpu:       8.7
 (Enter /opt/gaussian/l303.exe)
 DipDrv:  MaxL=1.
 Leave Link  303 at Mon Sep  5 20:09:45 2022, MaxMem=  209715200 cpu:       1.2
 (Enter /opt/gaussian/l401.exe)
 Harris functional with IExCor=  402 diagonalized for initial guess.
 ExpMin= 1.22D-01 ExpMax= 1.28D+05 ExpMxC= 1.24D+03 IAcc=2 IRadAn=         4 AccDes= 0.00D+00
 HarFok:  IExCor=  402 AccDes= 0.00D+00 IRadAn=         4 IDoV= 1
 ScaDFX=  1.000000  1.000000  1.000000  1.000000
 FoFCou: FMM=F IPFlag=           0 FMFlag=      100000 FMFlg1=           0
         NFxFlg=           0 DoJE=T BraDBF=F KetDBF=T FulRan=T
         Omega=  0.000000  0.000000  1.000000  0.000000  0.000000 ICntrl=     500 IOpCl=  0
         NMat0=    1 NMatS0=    1 NMatT0=    0 NMatD0=    1 NMtDS0=    0 NMtDT0=    0
         I1Cent=           4 NGrid=           0.
 Petite list used in FoFCou.
 Harris En= -1811.80300609291    
 Initial guess orbital symmetries:
       Occupied  (A) (A) (A) (A) (A) (A) (A) (A) (A) (A) (A) (A)
                 (A) (A) (A) (A) (A) (A) (A) (A) (A) (A) (A) (A)
                 (A) (A) (A) (A) (A) (A) (A) (A) (A) (A) (A) (A)
                 (A) (A) (A) (A) (A) (A) (A) (A) (A) (A) (A) (A)
                 (A) (A) (A) (A) (A) (A) (A) (A) (A) (A) (A) (A)
                 (A) (A) (A) (A) (A) (A) (A) (A) (A) (A) (A) (A)
                 (A) (A) (A) (A) (A) (A) (A) (A) (A) (A) (A) (A)
                 (A) (A) (A) (A) (A) (A) (A) (A) (A) (A) (A) (A)
                 (A) (A) (A) (A) (A) (A) (A) (A) (A) (A) (A) (A)
                 (A) (A) (A) (A) (A) (A) (A) (A) (A) (A)
       Virtual   (A) (A) (A) (A) (A) (A) (A) (A) (A) (A) (A) (A)
                 (A) (A) (A) (A) (A) (A) (A) (A) (A) (A) (A) (A)
                 (A) (A) (A) (A) (A) (A) (A) (A) (A) (A) (A) (A)
                 (A) (A) (A) (A) (A) (A) (A) (A) (A) (A) (A) (A)
                 (A) (A) (A) (A) (A) (A) (A) (A) (A) (A) (A) (A)
                 (A) (A) (A) (A) (A) (A) (A) (A) (A) (A) (A) (A)
                 (A) (A) (A) (A) (A) (A) (A) (A) (A) (A) (A) (A)
                 (A) (A) (A) (A) (A) (A) (A) (A) (A) (A) (A) (A)
                 (A) (A) (A) (A) (A) (A) (A) (A) (A) (A) (A) (A)
                 (A) (A) (A) (A) (A) (A) (A) (A) (A) (A) (A) (A)
                 (A) (A) (A) (A) (A) (A) (A) (A) (A) (A) (A) (A)
                 (A) (A) (A) (A) (A) (A) (A) (A) (A) (A) (A) (A)
                 (A) (A) (A) (A) (A) (A) (A) (A) (A) (A) (A) (A)
                 (A) (A) (A) (A) (A) (A) (A) (A) (A) (A) (A) (A)
                 (A) (A) (A) (A) (A) (A) (A) (A) (A) (A) (A) (A)
                 (A) (A) (A) (A) (A) (A) (A) (A) (A) (A) (A) (A)
                 (A) (A) (A) (A) (A) (A) (A) (A) (A) (A) (A) (A)
                 (A) (A) (A) (A) (A) (A) (A) (A) (A) (A) (A) (A)
                 (A) (A) (A) (A) (A) (A) (A) (A) (A) (A) (A) (A)
                 (A) (A) (A) (A) (A) (A) (A) (A) (A) (A) (A) (A)
                 (A) (A) (A) (A) (A) (A) (A) (A) (A) (A) (A) (A)
                 (A) (A) (A) (A) (A) (A) (A) (A) (A) (A) (A) (A)
                 (A) (A) (A) (A) (A) (A) (A) (A) (A) (A) (A) (A)
                 (A) (A) (A) (A) (A) (A) (A) (A) (A) (A) (A) (A)
                 (A) (A) (A) (A) (A) (A) (A) (A) (A) (A) (A) (A)
                 (A) (A) (A) (A) (A) (A) (A) (A) (A) (A) (A) (A)
                 (A) (A) (A) (A) (A) (A) (A) (A) (A) (A) (A) (A)
                 (A) (A) (A) (A) (A) (A) (A) (A) (A) (A) (A) (A)
                 (A) (A) (A) (A) (A) (A) (A) (A) (A) (A) (A) (A)
                 (A) (A) (A) (A) (A) (A) (A) (A) (A) (A) (A) (A)
                 (A) (A) (A) (A) (A) (A) (A) (A) (A) (A) (A) (A)
                 (A) (A) (A) (A) (A) (A) (A) (A) (A) (A) (A) (A)
                 (A) (A) (A) (A) (A) (A) (A) (A) (A) (A) (A) (A)
                 (A) (A) (A) (A) (A) (A) (A) (A) (A) (A) (A) (A)
                 (A) (A) (A) (A) (A) (A) (A) (A) (A) (A) (A) (A)
                 (A) (A) (A) (A) (A) (A) (A) (A) (A) (A) (A) (A)
                 (A) (A) (A) (A) (A) (A) (A) (A) (A) (A) (A) (A)
                 (A) (A) (A) (A)
 The electronic state of the initial guess is 1-A.
 Leave Link  401 at Mon Sep  5 20:09:48 2022, MaxMem=  209715200 cpu:      26.1
 (Enter /opt/gaussian/l502.exe)
 Closed shell SCF:
 Requested convergence on RMS density matrix=1.00D-08 within 128 cycles.
 Requested convergence on MAX density matrix=1.00D-06.
 Requested convergence on             energy=1.00D-06.
 No special actions if energy rises.
 Using DIIS extrapolation, IDIIS=  1040.
 Integral symmetry usage will be decided dynamically.
       461560 words used for storage of precomputed grid.
 IEnd=     1565427 IEndB=     1565427 NGot=   209715200 MDV=   208525814
 LenX=   208525814 LenY=   208166414
 Fock matrices will be formed incrementally for  20 cycles.
 Integral accuracy reduced to 1.0D-05 until final iterations.

 Cycle   1  Pass 0  IDiag  1:
 FoFCou: FMM=F IPFlag=           0 FMFlag=      100000 FMFlg1=           0
         NFxFlg=           0 DoJE=F BraDBF=F KetDBF=F FulRan=T
         Omega=  0.000000  0.000000  1.000000  0.000000  0.000000 ICntrl=       0 IOpCl=  0
         NMat0=    1 NMatS0=    1 NMatT0=    0 NMatD0=    1 NMtDS0=    0 NMtDT0=    0
         I1Cent=           0 NGrid=           0.
 Symmetry not used in FoFCou.
 E= -1811.43991797475    
 DIIS: error= 1.88D-02 at cycle   1 NSaved=   1.
 NSaved= 1 IEnMin= 1 EnMin= -1811.43991797475     IErMin= 1 ErrMin= 1.88D-02
 ErrMax= 1.88D-02 EMaxC= 1.00D-01 BMatC= 5.62D-01 BMatP= 5.62D-01
 IDIUse=3 WtCom= 8.12D-01 WtEn= 1.88D-01
 Coeff-Com:  0.100D+01
 Coeff-En:   0.100D+01
 Coeff:      0.100D+01
 Gap=     0.367 Goal=   None    Shift=    0.000
 GapD=    0.367 DampG=1.000 DampE=0.500 DampFc=0.5000 IDamp=-1.
 Damping current iteration by 5.00D-01
 RMSDP=3.95D-03 MaxDP=2.14D-01              OVMax= 2.88D-01

 Cycle   2  Pass 0  IDiag  1:
 RMSU=  1.37D-03    CP:  9.75D-01
 E= -1811.61573811678     Delta-E=       -0.175820142027 Rises=F Damp=T
 DIIS: error= 9.25D-03 at cycle   2 NSaved=   2.
 NSaved= 2 IEnMin= 2 EnMin= -1811.61573811678     IErMin= 2 ErrMin= 9.25D-03
 ErrMax= 9.25D-03 EMaxC= 1.00D-01 BMatC= 1.06D-01 BMatP= 5.62D-01
 IDIUse=3 WtCom= 9.07D-01 WtEn= 9.25D-02
 Coeff-Com:  0.222D+00 0.778D+00
 Coeff-En:   0.325D+00 0.675D+00
 Coeff:      0.231D+00 0.769D+00
 Gap=     0.250 Goal=   None    Shift=    0.000
 RMSDP=1.37D-03 MaxDP=8.02D-02 DE=-1.76D-01 OVMax= 3.23D-01

 Cycle   3  Pass 0  IDiag  1:
 RMSU=  9.33D-04    CP:  9.59D-01  8.49D-01
 E= -1811.95434559158     Delta-E=       -0.338607474797 Rises=F Damp=F
 DIIS: error= 9.17D-03 at cycle   3 NSaved=   3.
 NSaved= 3 IEnMin= 3 EnMin= -1811.95434559158     IErMin= 3 ErrMin= 9.17D-03
 ErrMax= 9.17D-03 EMaxC= 1.00D-01 BMatC= 1.14D-01 BMatP= 1.06D-01
 IDIUse=3 WtCom= 9.08D-01 WtEn= 9.17D-02
 Coeff-Com:  0.501D-01 0.500D+00 0.450D+00
 Coeff-En:   0.000D+00 0.000D+00 0.100D+01
 Coeff:      0.455D-01 0.454D+00 0.501D+00
 Gap=     0.194 Goal=   None    Shift=    0.000
 RMSDP=7.92D-04 MaxDP=6.82D-02 DE=-3.39D-01 OVMax= 7.93D-02

 Cycle   4  Pass 0  IDiag  1:
 RMSU=  3.78D-04    CP:  9.63D-01  9.46D-01  5.83D-01
 E= -1812.04343799283     Delta-E=       -0.089092401247 Rises=F Damp=F
 DIIS: error= 3.71D-03 at cycle   4 NSaved=   4.
 NSaved= 4 IEnMin= 4 EnMin= -1812.04343799283     IErMin= 4 ErrMin= 3.71D-03
 ErrMax= 3.71D-03 EMaxC= 1.00D-01 BMatC= 1.78D-02 BMatP= 1.06D-01
 IDIUse=3 WtCom= 9.63D-01 WtEn= 3.71D-02
 Coeff-Com:  0.834D-02 0.136D+00 0.305D+00 0.551D+00
 Coeff-En:   0.000D+00 0.000D+00 0.157D+00 0.843D+00
 Coeff:      0.803D-02 0.131D+00 0.300D+00 0.562D+00
 Gap=     0.192 Goal=   None    Shift=    0.000
 RMSDP=2.96D-04 MaxDP=1.96D-02 DE=-8.91D-02 OVMax= 2.92D-02

 Cycle   5  Pass 0  IDiag  1:
 RMSU=  1.24D-04    CP:  9.62D-01  9.13D-01  6.79D-01  6.44D-01
 E= -1812.05790275229     Delta-E=       -0.014464759466 Rises=F Damp=F
 DIIS: error= 1.26D-03 at cycle   5 NSaved=   5.
 NSaved= 5 IEnMin= 5 EnMin= -1812.05790275229     IErMin= 5 ErrMin= 1.26D-03
 ErrMax= 1.26D-03 EMaxC= 1.00D-01 BMatC= 1.52D-03 BMatP= 1.78D-02
 IDIUse=3 WtCom= 9.87D-01 WtEn= 1.26D-02
 Coeff-Com:  0.227D-03 0.291D-01 0.130D+00 0.337D+00 0.503D+00
 Coeff-En:   0.000D+00 0.000D+00 0.000D+00 0.458D-01 0.954D+00
 Coeff:      0.224D-03 0.287D-01 0.128D+00 0.334D+00 0.509D+00
 Gap=     0.188 Goal=   None    Shift=    0.000
 RMSDP=1.05D-04 MaxDP=4.80D-03 DE=-1.45D-02 OVMax= 1.41D-02

 Cycle   6  Pass 0  IDiag  1:
 RMSU=  3.90D-05    CP:  9.62D-01  9.19D-01  6.83D-01  6.96D-01  5.20D-01
 E= -1812.05936376793     Delta-E=       -0.001461015641 Rises=F Damp=F
 DIIS: error= 4.75D-04 at cycle   6 NSaved=   6.
 NSaved= 6 IEnMin= 6 EnMin= -1812.05936376793     IErMin= 6 ErrMin= 4.75D-04
 ErrMax= 4.75D-04 EMaxC= 1.00D-01 BMatC= 2.00D-04 BMatP= 1.52D-03
 IDIUse=3 WtCom= 9.95D-01 WtEn= 4.75D-03
 Coeff-Com: -0.689D-03-0.331D-03 0.382D-01 0.127D+00 0.314D+00 0.521D+00
 Coeff-En:   0.000D+00 0.000D+00 0.000D+00 0.000D+00 0.111D+00 0.889D+00
 Coeff:     -0.686D-03-0.330D-03 0.380D-01 0.127D+00 0.313D+00 0.523D+00
 Gap=     0.187 Goal=   None    Shift=    0.000
 RMSDP=3.31D-05 MaxDP=1.45D-03 DE=-1.46D-03 OVMax= 4.28D-03

 Cycle   7  Pass 0  IDiag  1:
 RMSU=  1.33D-05    CP:  9.62D-01  9.19D-01  6.84D-01  6.96D-01  5.93D-01
                    CP:  5.64D-01
 E= -1812.05957290997     Delta-E=       -0.000209142036 Rises=F Damp=F
 DIIS: error= 1.21D-04 at cycle   7 NSaved=   7.
 NSaved= 7 IEnMin= 7 EnMin= -1812.05957290997     IErMin= 7 ErrMin= 1.21D-04
 ErrMax= 1.21D-04 EMaxC= 1.00D-01 BMatC= 1.79D-05 BMatP= 2.00D-04
 IDIUse=3 WtCom= 9.99D-01 WtEn= 1.21D-03
 Coeff-Com: -0.272D-03-0.301D-02 0.993D-02 0.409D-01 0.134D+00 0.305D+00
 Coeff-Com:  0.513D+00
 Coeff-En:   0.000D+00 0.000D+00 0.000D+00 0.000D+00 0.000D+00 0.747D-02
 Coeff-En:   0.993D+00
 Coeff:     -0.271D-03-0.300D-02 0.992D-02 0.408D-01 0.134D+00 0.305D+00
 Coeff:      0.514D+00
 Gap=     0.187 Goal=   None    Shift=    0.000
 RMSDP=9.34D-06 MaxDP=4.27D-04 DE=-2.09D-04 OVMax= 8.60D-04

 Initial convergence to 1.0D-05 achieved.  Increase integral accuracy.
 Cycle   8  Pass 1  IDiag  1:
 E= -1812.05974537690     Delta-E=       -0.000172466929 Rises=F Damp=F
 DIIS: error= 1.51D-04 at cycle   1 NSaved=   1.
 NSaved= 1 IEnMin= 1 EnMin= -1812.05974537690     IErMin= 1 ErrMin= 1.51D-04
 ErrMax= 1.51D-04 EMaxC= 1.00D-01 BMatC= 1.29D-05 BMatP= 1.29D-05
 IDIUse=3 WtCom= 9.98D-01 WtEn= 1.51D-03
 Coeff-Com:  0.100D+01
 Coeff-En:   0.100D+01
 Coeff:      0.100D+01
 Gap=     0.187 Goal=   None    Shift=    0.000
 RMSDP=9.34D-06 MaxDP=4.27D-04 DE=-1.72D-04 OVMax= 7.70D-04

 Cycle   9  Pass 1  IDiag  1:
 RMSU=  8.59D-05    CP:  1.00D+00
 E= -1812.05975285035     Delta-E=       -0.000007473448 Rises=F Damp=F
 DIIS: error= 8.99D-05 at cycle   2 NSaved=   2.
 NSaved= 2 IEnMin= 2 EnMin= -1812.05975285035     IErMin= 2 ErrMin= 8.99D-05
 ErrMax= 8.99D-05 EMaxC= 1.00D-01 BMatC= 4.78D-06 BMatP= 1.29D-05
 IDIUse=1 WtCom= 1.00D+00 WtEn= 0.00D+00
 Coeff-Com:  0.316D+00 0.684D+00
 Coeff:      0.316D+00 0.684D+00
 Gap=     0.187 Goal=   None    Shift=    0.000
 RMSDP=8.91D-06 MaxDP=4.50D-04 DE=-7.47D-06 OVMax= 1.06D-03

 Cycle  10  Pass 1  IDiag  1:
 RMSU=  6.29D-06    CP:  1.00D+00  1.00D+00
 E= -1812.05975091183     Delta-E=        0.000001938511 Rises=F Damp=F
 DIIS: error= 1.13D-04 at cycle   3 NSaved=   3.
 NSaved= 3 IEnMin= 2 EnMin= -1812.05975285035     IErMin= 2 ErrMin= 8.99D-05
 ErrMax= 1.13D-04 EMaxC= 1.00D-01 BMatC= 6.49D-06 BMatP= 4.78D-06
 IDIUse=3 WtCom= 4.84D-01 WtEn= 5.16D-01
 Coeff-Com:  0.348D-02 0.537D+00 0.459D+00
 Coeff-En:   0.000D+00 0.558D+00 0.442D+00
 Coeff:      0.169D-02 0.548D+00 0.451D+00
 Gap=     0.187 Goal=   None    Shift=    0.000
 RMSDP=4.85D-06 MaxDP=2.64D-04 DE= 1.94D-06 OVMax= 5.82D-04

 Cycle  11  Pass 1  IDiag  1:
 RMSU=  8.55D-07    CP:  1.00D+00  1.01D+00  4.79D-01
 E= -1812.05975796783     Delta-E=       -0.000007055993 Rises=F Damp=F
 DIIS: error= 1.01D-05 at cycle   4 NSaved=   4.
 NSaved= 4 IEnMin= 4 EnMin= -1812.05975796783     IErMin= 4 ErrMin= 1.01D-05
 ErrMax= 1.01D-05 EMaxC= 1.00D-01 BMatC= 1.54D-07 BMatP= 4.78D-06
 IDIUse=1 WtCom= 1.00D+00 WtEn= 0.00D+00
 Coeff-Com: -0.360D-02 0.346D+00 0.292D+00 0.365D+00
 Coeff:     -0.360D-02 0.346D+00 0.292D+00 0.365D+00
 Gap=     0.187 Goal=   None    Shift=    0.000
 RMSDP=7.60D-07 MaxDP=4.74D-05 DE=-7.06D-06 OVMax= 8.26D-05

 Cycle  12  Pass 1  IDiag  1:
 RMSU=  2.05D-07    CP:  1.00D+00  1.01D+00  4.69D-01  4.24D-01
 E= -1812.05975811235     Delta-E=       -0.000000144521 Rises=F Damp=F
 DIIS: error= 1.39D-06 at cycle   5 NSaved=   5.
 NSaved= 5 IEnMin= 5 EnMin= -1812.05975811235     IErMin= 5 ErrMin= 1.39D-06
 ErrMax= 1.39D-06 EMaxC= 1.00D-01 BMatC= 3.03D-09 BMatP= 1.54D-07
 IDIUse=1 WtCom= 1.00D+00 WtEn= 0.00D+00
 Coeff-Com: -0.221D-02 0.183D+00 0.154D+00 0.214D+00 0.451D+00
 Coeff:     -0.221D-02 0.183D+00 0.154D+00 0.214D+00 0.451D+00
 Gap=     0.187 Goal=   None    Shift=    0.000
 RMSDP=1.24D-07 MaxDP=1.01D-05 DE=-1.45D-07 OVMax= 1.20D-05

 Cycle  13  Pass 1  IDiag  1:
 RMSU=  6.89D-08    CP:  1.00D+00  1.01D+00  4.69D-01  4.38D-01  7.41D-01
 E= -1812.05975811501     Delta-E=       -0.000000002664 Rises=F Damp=F
 DIIS: error= 4.28D-07 at cycle   6 NSaved=   6.
 NSaved= 6 IEnMin= 6 EnMin= -1812.05975811501     IErMin= 6 ErrMin= 4.28D-07
 ErrMax= 4.28D-07 EMaxC= 1.00D-01 BMatC= 3.22D-10 BMatP= 3.03D-09
 IDIUse=1 WtCom= 1.00D+00 WtEn= 0.00D+00
 Coeff-Com: -0.939D-03 0.720D-01 0.603D-01 0.903D-01 0.278D+00 0.500D+00
 Coeff:     -0.939D-03 0.720D-01 0.603D-01 0.903D-01 0.278D+00 0.500D+00
 Gap=     0.187 Goal=   None    Shift=    0.000
 RMSDP=3.77D-08 MaxDP=3.34D-06 DE=-2.66D-09 OVMax= 3.61D-06

 Cycle  14  Pass 1  IDiag  1:
 RMSU=  2.00D-08    CP:  1.00D+00  1.01D+00  4.69D-01  4.41D-01  7.73D-01
                    CP:  7.69D-01
 E= -1812.05975811526     Delta-E=       -0.000000000247 Rises=F Damp=F
 DIIS: error= 1.53D-07 at cycle   7 NSaved=   7.
 NSaved= 7 IEnMin= 7 EnMin= -1812.05975811526     IErMin= 7 ErrMin= 1.53D-07
 ErrMax= 1.53D-07 EMaxC= 1.00D-01 BMatC= 2.78D-11 BMatP= 3.22D-10
 IDIUse=1 WtCom= 1.00D+00 WtEn= 0.00D+00
 Coeff-Com: -0.232D-03 0.160D-01 0.133D-01 0.227D-01 0.937D-01 0.275D+00
 Coeff-Com:  0.580D+00
 Coeff:     -0.232D-03 0.160D-01 0.133D-01 0.227D-01 0.937D-01 0.275D+00
 Coeff:      0.580D+00
 Gap=     0.187 Goal=   None    Shift=    0.000
 RMSDP=1.28D-08 MaxDP=7.78D-07 DE=-2.47D-10 OVMax= 1.64D-06

 Cycle  15  Pass 1  IDiag  1:
 RMSU=  6.48D-09    CP:  1.00D+00  1.01D+00  4.69D-01  4.41D-01  7.81D-01
                    CP:  7.99D-01  7.17D-01
 E= -1812.05975811528     Delta-E=       -0.000000000020 Rises=F Damp=F
 DIIS: error= 8.64D-08 at cycle   8 NSaved=   8.
 NSaved= 8 IEnMin= 8 EnMin= -1812.05975811528     IErMin= 8 ErrMin= 8.64D-08
 ErrMax= 8.64D-08 EMaxC= 1.00D-01 BMatC= 5.74D-12 BMatP= 2.78D-11
 IDIUse=1 WtCom= 1.00D+00 WtEn= 0.00D+00
 Coeff-Com:  0.622D-05-0.152D-02-0.137D-02-0.371D-04 0.132D-01 0.922D-01
 Coeff-Com:  0.360D+00 0.538D+00
 Coeff:      0.622D-05-0.152D-02-0.137D-02-0.371D-04 0.132D-01 0.922D-01
 Coeff:      0.360D+00 0.538D+00
 Gap=     0.187 Goal=   None    Shift=    0.000
 RMSDP=5.55D-09 MaxDP=2.99D-07 DE=-2.00D-11 OVMax= 9.86D-07

 SCF Done:  E(RB3LYP) =  -1812.05975812     A.U. after   15 cycles
             Convg  =    0.5547D-08             -V/T =  2.0048
 KE= 1.803426842273D+03 PE=-1.052704680175D+04 EE= 3.765169261656D+03
 Leave Link  502 at Mon Sep  5 20:22:40 2022, MaxMem=  209715200 cpu:    6131.3
 (Enter /opt/gaussian/l601.exe)
 Copying SCF densities to generalized density rwf, IOpCl= 0 IROHF=0.

 **********************************************************************

            Population analysis using the SCF density.

 **********************************************************************

 Orbital symmetries:
       Occupied  (A) (A) (A) (A) (A) (A) (A) (A) (A) (A) (A) (A)
                 (A) (A) (A) (A) (A) (A) (A) (A) (A) (A) (A) (A)
                 (A) (A) (A) (A) (A) (A) (A) (A) (A) (A) (A) (A)
                 (A) (A) (A) (A) (A) (A) (A) (A) (A) (A) (A) (A)
                 (A) (A) (A) (A) (A) (A) (A) (A) (A) (A) (A) (A)
                 (A) (A) (A) (A) (A) (A) (A) (A) (A) (A) (A) (A)
                 (A) (A) (A) (A) (A) (A) (A) (A) (A) (A) (A) (A)
                 (A) (A) (A) (A) (A) (A) (A) (A) (A) (A) (A) (A)
                 (A) (A) (A) (A) (A) (A) (A) (A) (A) (A) (A) (A)
                 (A) (A) (A) (A) (A) (A) (A) (A) (A) (A)
       Virtual   (A) (A) (A) (A) (A) (A) (A) (A) (A) (A) (A) (A)
                 (A) (A) (A) (A) (A) (A) (A) (A) (A) (A) (A) (A)
                 (A) (A) (A) (A) (A) (A) (A) (A) (A) (A) (A) (A)
                 (A) (A) (A) (A) (A) (A) (A) (A) (A) (A) (A) (A)
                 (A) (A) (A) (A) (A) (A) (A) (A) (A) (A) (A) (A)
                 (A) (A) (A) (A) (A) (A) (A) (A) (A) (A) (A) (A)
                 (A) (A) (A) (A) (A) (A) (A) (A) (A) (A) (A) (A)
                 (A) (A) (A) (A) (A) (A) (A) (A) (A) (A) (A) (A)
                 (A) (A) (A) (A) (A) (A) (A) (A) (A) (A) (A) (A)
                 (A) (A) (A) (A) (A) (A) (A) (A) (A) (A) (A) (A)
                 (A) (A) (A) (A) (A) (A) (A) (A) (A) (A) (A) (A)
                 (A) (A) (A) (A) (A) (A) (A) (A) (A) (A) (A) (A)
                 (A) (A) (A) (A) (A) (A) (A) (A) (A) (A) (A) (A)
                 (A) (A) (A) (A) (A) (A) (A) (A) (A) (A) (A) (A)
                 (A) (A) (A) (A) (A) (A) (A) (A) (A) (A) (A) (A)
                 (A) (A) (A) (A) (A) (A) (A) (A) (A) (A) (A) (A)
                 (A) (A) (A) (A) (A) (A) (A) (A) (A) (A) (A) (A)
                 (A) (A) (A) (A) (A) (A) (A) (A) (A) (A) (A) (A)
                 (A) (A) (A) (A) (A) (A) (A) (A) (A) (A) (A) (A)
                 (A) (A) (A) (A) (A) (A) (A) (A) (A) (A) (A) (A)
                 (A) (A) (A) (A) (A) (A) (A) (A) (A) (A) (A) (A)
                 (A) (A) (A) (A) (A) (A) (A) (A) (A) (A) (A) (A)
                 (A) (A) (A) (A) (A) (A) (A) (A) (A) (A) (A) (A)
                 (A) (A) (A) (A) (A) (A) (A) (A) (A) (A) (A) (A)
                 (A) (A) (A) (A) (A) (A) (A) (A) (A) (A) (A) (A)
                 (A) (A) (A) (A) (A) (A) (A) (A) (A) (A) (A) (A)
                 (A) (A) (A) (A) (A) (A) (A) (A) (A) (A) (A) (A)
                 (A) (A) (A) (A) (A) (A) (A) (A) (A) (A) (A) (A)
                 (A) (A) (A) (A) (A) (A) (A) (A) (A) (A) (A) (A)
                 (A) (A) (A) (A) (A) (A) (A) (A) (A) (A) (A) (A)
                 (A) (A) (A) (A) (A) (A) (A) (A) (A) (A) (A) (A)
                 (A) (A) (A) (A) (A) (A) (A) (A) (A) (A) (A) (A)
                 (A) (A) (A) (A) (A) (A) (A) (A) (A) (A) (A) (A)
                 (A) (A) (A) (A) (A) (A) (A) (A) (A) (A) (A) (A)
                 (A) (A) (A) (A) (A) (A) (A) (A) (A) (A) (A) (A)
                 (A) (A) (A) (A) (A) (A) (A) (A) (A) (A) (A) (A)
                 (A) (A) (A) (A) (A) (A) (A) (A) (A) (A) (A) (A)
                 (A) (A) (A) (A)
 The electronic state is 1-A.
 Alpha  occ. eigenvalues -- -101.55546 -19.12569 -14.40946 -14.38960 -14.38899
 Alpha  occ. eigenvalues --  -14.34628 -14.32685 -10.30750 -10.27098 -10.26072
 Alpha  occ. eigenvalues --  -10.25588 -10.24540 -10.23274 -10.22909 -10.22364
 Alpha  occ. eigenvalues --  -10.22301 -10.22128 -10.22114 -10.21921 -10.21624
 Alpha  occ. eigenvalues --  -10.21131 -10.21088 -10.20991 -10.20751 -10.20580
 Alpha  occ. eigenvalues --  -10.20433 -10.20174 -10.20127 -10.20102 -10.20096
 Alpha  occ. eigenvalues --  -10.19710 -10.19493 -10.19078  -9.47286  -7.23560
 Alpha  occ. eigenvalues --   -7.22574  -7.22543  -1.10307  -1.06079  -0.97279
 Alpha  occ. eigenvalues --   -0.95079  -0.93088  -0.91164  -0.88118  -0.87178
 Alpha  occ. eigenvalues --   -0.85487  -0.82471  -0.80556  -0.79295  -0.78333
 Alpha  occ. eigenvalues --   -0.77366  -0.77078  -0.76347  -0.75619  -0.74305
 Alpha  occ. eigenvalues --   -0.72592  -0.66631  -0.65226  -0.64887  -0.64228
 Alpha  occ. eigenvalues --   -0.63207  -0.62898  -0.62362  -0.61485  -0.59788
 Alpha  occ. eigenvalues --   -0.57527  -0.55181  -0.54284  -0.53750  -0.53258
 Alpha  occ. eigenvalues --   -0.52968  -0.52507  -0.50410  -0.49877  -0.49528
 Alpha  occ. eigenvalues --   -0.48386  -0.47925  -0.47202  -0.47133  -0.46603
 Alpha  occ. eigenvalues --   -0.46279  -0.45512  -0.45333  -0.45064  -0.44910
 Alpha  occ. eigenvalues --   -0.44320  -0.44162  -0.43941  -0.41984  -0.41140
 Alpha  occ. eigenvalues --   -0.41055  -0.40926  -0.40062  -0.40010  -0.38518
 Alpha  occ. eigenvalues --   -0.38417  -0.38085  -0.37907  -0.36988  -0.36908
 Alpha  occ. eigenvalues --   -0.36239  -0.36064  -0.34607  -0.33446  -0.32579
 Alpha  occ. eigenvalues --   -0.31418  -0.31077  -0.29144  -0.28589  -0.27797
 Alpha  occ. eigenvalues --   -0.27457  -0.27122  -0.26764  -0.26202  -0.25545
 Alpha  occ. eigenvalues --   -0.25277  -0.23800  -0.23578
 Alpha virt. eigenvalues --   -0.04841  -0.04307  -0.03917  -0.03745  -0.02960
 Alpha virt. eigenvalues --   -0.02417  -0.00810   0.00143   0.00873   0.01674
 Alpha virt. eigenvalues --    0.03555   0.04185   0.05425   0.06237   0.06945
 Alpha virt. eigenvalues --    0.07193   0.07489   0.08397   0.09160   0.09479
 Alpha virt. eigenvalues --    0.10583   0.10896   0.11072   0.11432   0.12294
 Alpha virt. eigenvalues --    0.12524   0.12887   0.13451   0.13621   0.14019
 Alpha virt. eigenvalues --    0.14408   0.14820   0.15578   0.16231   0.16516
 Alpha virt. eigenvalues --    0.17101   0.17918   0.20271   0.20520   0.21203
 Alpha virt. eigenvalues --    0.22219   0.22912   0.23983   0.24374   0.24737
 Alpha virt. eigenvalues --    0.24960   0.25422   0.26734   0.27253   0.28146
 Alpha virt. eigenvalues --    0.28436   0.29206   0.29774   0.30355   0.30679
 Alpha virt. eigenvalues --    0.31034   0.31653   0.33251   0.33408   0.34510
 Alpha virt. eigenvalues --    0.35583   0.36714   0.36754   0.37766   0.38155
 Alpha virt. eigenvalues --    0.39050   0.40169   0.40814   0.41964   0.42548
 Alpha virt. eigenvalues --    0.43629   0.44375   0.44771   0.45152   0.45424
 Alpha virt. eigenvalues --    0.45649   0.45915   0.46302   0.46656   0.46899
 Alpha virt. eigenvalues --    0.47048   0.47316   0.47745   0.48078   0.48295
 Alpha virt. eigenvalues --    0.48402   0.48520   0.48846   0.49130   0.49547
 Alpha virt. eigenvalues --    0.49836   0.50109   0.50399   0.50743   0.50963
 Alpha virt. eigenvalues --    0.51071   0.51243   0.51676   0.51774   0.52513
 Alpha virt. eigenvalues --    0.52796   0.53182   0.53710   0.53974   0.54769
 Alpha virt. eigenvalues --    0.55195   0.55513   0.55606   0.55669   0.55812
 Alpha virt. eigenvalues --    0.56496   0.56870   0.57436   0.58873   0.59041
 Alpha virt. eigenvalues --    0.59772   0.59907   0.60160   0.60360   0.60602
 Alpha virt. eigenvalues --    0.61006   0.61618   0.62046   0.62147   0.62979
 Alpha virt. eigenvalues --    0.63249   0.64422   0.64792   0.65026   0.65147
 Alpha virt. eigenvalues --    0.65259   0.65553   0.66014   0.66540   0.66604
 Alpha virt. eigenvalues --    0.67238   0.67558   0.68045   0.68052   0.68888
 Alpha virt. eigenvalues --    0.69582   0.69831   0.70620   0.70898   0.71025
 Alpha virt. eigenvalues --    0.71432   0.71788   0.71971   0.72937   0.73300
 Alpha virt. eigenvalues --    0.74064   0.74791   0.75632   0.75842   0.76582
 Alpha virt. eigenvalues --    0.78147   0.78827   0.79650   0.79894   0.80717
 Alpha virt. eigenvalues --    0.82673   0.83487   0.83593   0.84007   0.84762
 Alpha virt. eigenvalues --    0.84962   0.86404   0.86985   0.87299   0.87888
 Alpha virt. eigenvalues --    0.88473   0.88717   0.88931   0.89297   0.89786
 Alpha virt. eigenvalues --    0.90079   0.91532   0.91661   0.92076   0.92653
 Alpha virt. eigenvalues --    0.93083   0.93469   0.93724   0.94461   0.95216
 Alpha virt. eigenvalues --    0.95523   0.95639   0.96223   0.96944   0.98075
 Alpha virt. eigenvalues --    0.98725   0.99136   1.00120   1.00485   1.00742
 Alpha virt. eigenvalues --    1.01124   1.01558   1.01740   1.02174   1.02592
 Alpha virt. eigenvalues --    1.02840   1.03436   1.03487   1.03924   1.04072
 Alpha virt. eigenvalues --    1.04816   1.05375   1.05935   1.06610   1.06796
 Alpha virt. eigenvalues --    1.07195   1.08362   1.08925   1.09566   1.11023
 Alpha virt. eigenvalues --    1.11228   1.11768   1.12307   1.13004   1.14088
 Alpha virt. eigenvalues --    1.14890   1.15449   1.16858   1.17654   1.18486
 Alpha virt. eigenvalues --    1.19030   1.20020   1.20435   1.21815   1.22815
 Alpha virt. eigenvalues --    1.23442   1.23711   1.24522   1.25047   1.26443
 Alpha virt. eigenvalues --    1.27788   1.29691   1.30749   1.31343   1.32086
 Alpha virt. eigenvalues --    1.33583   1.34287   1.35010   1.35863   1.36224
 Alpha virt. eigenvalues --    1.37948   1.38578   1.40169   1.41047   1.42322
 Alpha virt. eigenvalues --    1.44018   1.44904   1.45356   1.46286   1.46924
 Alpha virt. eigenvalues --    1.47492   1.48359   1.48706   1.48875   1.49484
 Alpha virt. eigenvalues --    1.49652   1.50154   1.51167   1.51525   1.52037
 Alpha virt. eigenvalues --    1.52570   1.52830   1.53334   1.55671   1.56014
 Alpha virt. eigenvalues --    1.56758   1.56965   1.57504   1.58813   1.59191
 Alpha virt. eigenvalues --    1.59634   1.60204   1.60914   1.61244   1.61635
 Alpha virt. eigenvalues --    1.61872   1.62428   1.62958   1.63334   1.63617
 Alpha virt. eigenvalues --    1.63819   1.64118   1.64303   1.65019   1.65156
 Alpha virt. eigenvalues --    1.65828   1.66205   1.66318   1.66462   1.67153
 Alpha virt. eigenvalues --    1.68097   1.68474   1.68598   1.69988   1.70330
 Alpha virt. eigenvalues --    1.70863   1.71629   1.72022   1.72882   1.73478
 Alpha virt. eigenvalues --    1.73708   1.74084   1.74650   1.75063   1.75659
 Alpha virt. eigenvalues --    1.76184   1.76336   1.76804   1.77753   1.78185
 Alpha virt. eigenvalues --    1.78889   1.79185   1.80138   1.80396   1.80699
 Alpha virt. eigenvalues --    1.81307   1.81929   1.82058   1.82654   1.84020
 Alpha virt. eigenvalues --    1.84293   1.84473   1.85154   1.85702   1.86213
 Alpha virt. eigenvalues --    1.86474   1.86804   1.87041   1.87826   1.88093
 Alpha virt. eigenvalues --    1.88592   1.89077   1.89457   1.90283   1.91199
 Alpha virt. eigenvalues --    1.91443   1.92196   1.93369   1.94127   1.94908
 Alpha virt. eigenvalues --    1.95236   1.97450   1.98237   1.98850   1.98938
 Alpha virt. eigenvalues --    1.99979   2.00468   2.00757   2.01043   2.02441
 Alpha virt. eigenvalues --    2.02568   2.03427   2.04769   2.05327   2.05493
 Alpha virt. eigenvalues --    2.06418   2.06931   2.07937   2.08825   2.09927
 Alpha virt. eigenvalues --    2.11920   2.12270   2.13427   2.14527   2.16885
 Alpha virt. eigenvalues --    2.17243   2.17887   2.17972   2.19715   2.19965
 Alpha virt. eigenvalues --    2.20631   2.22104   2.23081   2.24457   2.25700
 Alpha virt. eigenvalues --    2.26755   2.29514   2.30367   2.31372   2.32295
 Alpha virt. eigenvalues --    2.33226   2.35296   2.36845   2.40890   2.41574
 Alpha virt. eigenvalues --    2.42554   2.42953   2.43152   2.43333   2.43647
 Alpha virt. eigenvalues --    2.43854   2.46763   2.47336   2.47708   2.48509
 Alpha virt. eigenvalues --    2.48784   2.49446   2.50820   2.51442   2.53176
 Alpha virt. eigenvalues --    2.54226   2.54774   2.55846   2.57767   2.58215
 Alpha virt. eigenvalues --    2.61097   2.63529   2.64657   2.65816   2.67853
 Alpha virt. eigenvalues --    2.68640   2.69518   2.70742   2.71680   2.73000
 Alpha virt. eigenvalues --    2.74167   2.74858   2.76738   2.77978   2.78159
 Alpha virt. eigenvalues --    2.78550   2.80060   2.81276   2.82571   2.83817
 Alpha virt. eigenvalues --    2.85891   2.88521   2.90035   2.90878   2.94372
 Alpha virt. eigenvalues --    2.97301   2.99051   2.99732   3.00983   3.08385
 Alpha virt. eigenvalues --    3.12878   3.16221   3.41383   3.44335   3.46104
 Alpha virt. eigenvalues --    3.48845   3.59365   3.60390
          Condensed to atoms (all electrons):
 Mulliken atomic charges:
              1
     1  Cl  -0.095816
     2  C   -0.160934
     3  C    0.144190
     4  C    0.063058
     5  C    0.034238
     6  C   -0.107115
     7  C    0.149986
     8  C    0.180991
     9  N   -0.282295
    10  C    0.104947
    11  O   -0.242166
    12  C    0.156641
    13  N   -0.230378
    14  N   -0.055486
    15  N   -0.179270
    16  C   -0.002274
    17  C    0.064520
    18  C    0.049878
    19  C    0.052278
    20  C    0.044832
    21  C    0.212008
    22  C    0.083640
    23  C    0.048608
    24  C    0.040594
    25  C    0.022904
    26  C    0.038650
    27  C    0.104104
    28  C   -0.061798
    29  C    0.098102
    30  C   -0.001570
    31  C    0.121639
    32  N   -0.171957
    33  C    0.120986
    34  H   -0.024420
    35  H   -0.022440
    36  H   -0.023391
    37  H   -0.041199
    38  H    0.038045
    39  H    0.048664
    40  H    0.047651
    41  H    0.051800
    42  H   -0.032939
    43  H   -0.037767
    44  H   -0.037219
    45  H   -0.045216
    46  H   -0.041132
    47  H   -0.048388
    48  H   -0.040134
    49  H   -0.027740
    50  H   -0.039790
    51  H   -0.034734
    52  H   -0.013395
    53  H   -0.021993
 Sum of Mulliken atomic charges =   0.00000
 Mulliken charges with hydrogens summed into heavy atoms:
              1
     1  Cl  -0.095816
     2  C   -0.160934
     3  C    0.119770
     4  C    0.040619
     5  C    0.010847
     6  C   -0.107115
     7  C    0.108788
     8  C    0.267699
     9  N   -0.282295
    10  C    0.104947
    11  O   -0.242166
    12  C    0.256092
    13  N   -0.230378
    14  N   -0.055486
    15  N   -0.179270
    16  C   -0.002274
    17  C    0.031581
    18  C    0.012111
    19  C    0.015059
    20  C   -0.000384
    21  C    0.212008
    22  C    0.083640
    23  C    0.007476
    24  C   -0.007794
    25  C    0.022904
    26  C   -0.001484
    27  C    0.076364
    28  C   -0.061798
    29  C    0.058312
    30  C   -0.036304
    31  C    0.108244
    32  N   -0.171957
    33  C    0.098993
 Sum of Mulliken charges with hydrogens summed into heavy atoms =   0.00000
 Electronic spatial extent (au):  <R**2>=          21601.9866
 Charge=              0.0000 electrons
 Dipole moment (field-independent basis, Debye):
    X=              0.7930    Y=              4.4812    Z=              3.6448  Tot=              5.8305
 Quadrupole moment (field-independent basis, Debye-Ang):
   XX=           -208.2060   YY=           -212.6400   ZZ=           -187.5047
   XY=              0.3648   XZ=             -0.8425   YZ=             -6.4711
 Traceless Quadrupole moment (field-independent basis, Debye-Ang):
   XX=             -5.4224   YY=             -9.8565   ZZ=             15.2789
   XY=              0.3648   XZ=             -0.8425   YZ=             -6.4711
 Octapole moment (field-independent basis, Debye-Ang**2):
  XXX=            -46.6157  YYY=            -23.1723  ZZZ=             28.4657  XYY=             11.7656
  XXY=             24.0534  XXZ=            174.6978  XZZ=              1.6807  YZZ=             39.8326
  YYZ=             44.5476  XYZ=             36.7089
 Hexadecapole moment (field-independent basis, Debye-Ang**3):
 XXXX=         -19872.5694 YYYY=          -8959.1166 ZZZZ=          -1697.3825 XXXY=            279.2640
 XXXZ=            814.5286 YYYX=            137.2045 YYYZ=            -67.1840 ZZZX=            -65.3544
 ZZZY=            -61.5995 XXYY=          -4750.2704 XXZZ=          -3446.2413 YYZZ=          -1718.6078
 XXYZ=           -245.7770 YYXZ=           -240.4065 ZZXY=           -107.0150
 N-N= 3.146390939702D+03 E-N=-1.052704681441D+04  KE= 1.803426842273D+03
 No NMR shielding tensors so no spin-rotation constants.
 Leave Link  601 at Mon Sep  5 20:22:41 2022, MaxMem=  209715200 cpu:       4.2
 (Enter /opt/gaussian/l701.exe)
 Compute integral first derivatives.
 ... and contract with generalized density number  0.
 Leave Link  701 at Mon Sep  5 20:22:41 2022, MaxMem=  209715200 cpu:       3.6
 (Enter /opt/gaussian/l702.exe)
 L702 exits ... SP integral derivatives will be done elsewhere.
 Leave Link  702 at Mon Sep  5 20:22:41 2022, MaxMem=  209715200 cpu:       0.2
 (Enter /opt/gaussian/l703.exe)
 Compute integral first derivatives, UseDBF=F ICtDFT=           0.
 Integral derivatives from FoFDir, PRISM(SPDF).
 Calling FoFJK, ICntrl=      2127 FMM=F ISym2X=0 I1Cent= 0 IOpClX= 0 NMat=1 NMatS=1 NMatT=0.
 FoFCou: FMM=F IPFlag=           0 FMFlag=      100000 FMFlg1=         800
         NFxFlg=           0 DoJE=F BraDBF=F KetDBF=F FulRan=T
         Omega=  0.000000  0.000000  1.000000  0.000000  0.000000 ICntrl=    2127 IOpCl=  0
         NMat0=    1 NMatS0=    1 NMatT0=    0 NMatD0=    1 NMtDS0=    0 NMtDT0=    0
         I1Cent=           0 NGrid=           0.
 Symmetry not used in FoFCou.
 Leave Link  703 at Mon Sep  5 20:27:05 2022, MaxMem=  209715200 cpu:    2095.4
 (Enter /opt/gaussian/l716.exe)
 Dipole        = 3.12009734D-01 1.76303341D+00 1.43399263D+00
 ***** Axes restored to original set *****
 -------------------------------------------------------------------
 Center     Atomic                   Forces (Hartrees/Bohr)
 Number     Number              X              Y              Z
 -------------------------------------------------------------------
      1       17           0.007703494   -0.013987351    0.005916617
      2        6          -0.012882654    0.023355722   -0.009479278
      3        6           0.000472718   -0.001222627    0.001880458
      4        6           0.000534278    0.000364215   -0.004787849
      5        6          -0.000823229    0.002177055   -0.000458843
      6        6           0.002643332   -0.003179558   -0.005326967
      7        6           0.001607073   -0.002379562   -0.000661182
      8        6          -0.003294873   -0.004547809    0.013852439
      9        7           0.005190365    0.007712603   -0.003359047
     10        6           0.003597746   -0.014282521    0.007734481
     11        8          -0.000383733    0.000988919   -0.001574030
     12        6           0.001395785   -0.004805421    0.003247796
     13        7          -0.000192320    0.000255360   -0.000008597
     14        7           0.009589065    0.012436206   -0.009346880
     15        7          -0.012543266   -0.019225810    0.001672464
     16        6          -0.000678805   -0.006465663   -0.014972618
     17        6           0.001408179    0.001903343   -0.001590090
     18        6           0.003718147    0.006708504    0.002181184
     19        6          -0.003703562   -0.006294423   -0.001996324
     20        6           0.000774623   -0.000151760   -0.004851257
     21        6           0.006024454    0.010356752    0.005937856
     22        6          -0.009613811    0.000888653   -0.001867915
     23        6           0.002874984   -0.000958888   -0.000608758
     24        6          -0.002958548   -0.001512425   -0.000962499
     25        6           0.010375008   -0.001512779    0.001985046
     26        6          -0.002323818    0.002921184    0.000126670
     27        6           0.002082838    0.000393385    0.002452698
     28        6          -0.012952147    0.001559455   -0.000496177
     29        6           0.003633912   -0.000353563   -0.002528639
     30        6          -0.002314811    0.000375058   -0.000979617
     31        6          -0.014824560    0.001321780   -0.004441048
     32        7           0.010438188   -0.005467904   -0.014648353
     33        6           0.009751009    0.000883233    0.012663796
     34        1          -0.006847806    0.009078964    0.008910521
     35        1          -0.000238184   -0.002801864    0.013946628
     36        1           0.006062381   -0.011652921    0.004837669
     37        1          -0.000018729    0.002953805   -0.013638116
     38        1          -0.007382157   -0.001621928   -0.010278233
     39        1           0.010594832    0.006036777   -0.004278346
     40        1          -0.005621548    0.010880371    0.006095069
     41        1          -0.000875026    0.003137165   -0.013232410
     42        1          -0.006282350   -0.011835706   -0.005344499
     43        1          -0.007254018   -0.008257443    0.009276973
     44        1          -0.000921419    0.003251257    0.013808079
     45        1           0.006472656    0.011638016    0.005022468
     46        1          -0.006544593    0.011414514    0.005080049
     47        1           0.006999428    0.009663434    0.007100999
     48        1           0.006509094   -0.011463545   -0.004927658
     49        1          -0.007461891   -0.009909944   -0.007513511
     50        1          -0.008343006    0.004012975    0.010886308
     51        1           0.006040742    0.002494354    0.013655605
     52        1           0.017389007   -0.002578192    0.001666019
     53        1          -0.006602475   -0.002693452   -0.015779150
 -------------------------------------------------------------------
 Cartesian Forces:  Max     0.023355722 RMS     0.007419313
 Leave Link  716 at Mon Sep  5 20:27:05 2022, MaxMem=  209715200 cpu:       0.2
 (Enter /opt/gaussian/l103.exe)

[...]
 0000134,0.00000231,0.00000029,-0.00000200,-0.00000344,0.00000330,0.000
 00064,-0.00000113,-0.00000767,-0.00001154,-0.00000573,0.00002623,-0.00
 005492,0.00013111,-0.00002314,-0.00017929,0.00038247,0.00027222,-0.000
 50418,-0.00073796,-0.00014501,0.00148128,0.00166251,-0.00000182,-0.000
 09054,-0.00016862,0.00012127,0.00013492,0.00003009,0.00011488,0.015961
 77,-0.01265134,-0.01146106,0.10177684,-0.10144651,-0.18496387,-0.00429
 512,0.00178711,0.00661021,-0.00217351,-0.00262471,0.00319656,0.0000613
 9,0.00177092,-0.00090154,-0.00487412,-0.00424351,-0.00139004,0.0000002
 0,-0.00000240,0.00000012,-0.00000136,-0.00000043,-0.00000143,-0.000010
 70,-0.00000808,0.00000976,-0.00000272,0.00000078,0.00000002,0.00001346
 ,-0.00000502,0.00000318,-0.00000306,0.00000094,-0.00001835,0.00000548,
 0.00000342,0.00000198,0.00000253,-0.00000047,-0.00000403,0.00000095,0.
 00000098,0.00000046,0.00000142,0.00000143,-0.00000131,-0.00000014,-0.0
 0000057,-0.00000132,-0.00000134,0.00000161,0.00000400,-0.00004861,-0.0
 0002210,0.00000196,-0.00034419,0.00089832,-0.00020744,0.00007785,0.000
 11933,-0.00000862,0.00000432,0.00001021,-0.00002543,-0.10847767,0.1132
 6796,0.18990017,-0.00000678,0.00001271,-0.00000262,0.00000766,-0.00001
 406,0.00000558,-0.00000400,0.00000901,0.00000114,0.00000362,-0.0000030
 4,-0.00001118,-0.00000659,0.00000218,0.00001137,0.00000743,-0.00000268
 ,-0.00001510,-0.00000444,0.00000515,0.00001110,0.00000473,-0.00006134,
 -0.00000442,-0.00015380,-0.00001234,-0.00001689,0.00007859,0.00010445,
 -0.00000529,-0.00004006,-0.00004793,0.00002538,0.00001260,0.00001520,-
 0.00000741,-0.00001779,-0.00001357,-0.00000714,0.00000430,0.00001339,0
 .00002357,-0.00001025,-0.00001490,0.00000367,-0.00000182,-0.00000278,-
 0.00000445,0.00000129,0.00000190,-0.00000047,-0.00000091,-0.00000126,0
 .00000158,0.00000076,0.00000172,-0.00000259,-0.00000152,-0.00000058,0.
 00000419,0.00001092,0.00000597,-0.00002061,0.00011020,-0.00000995,0.00
 001029,-0.00003890,0.00001057,0.00002795,-0.00004102,-0.00011079,0.000
 04641,0.00023845,-0.00081537,-0.00120118,-0.00037327,0.00022232,-0.000
 00942,-0.00005587,-0.00010736,-0.00000023,-0.00483936,0.00280689,-0.00
 021678,-0.00849177,-0.01208422,-0.02569396,-0.11683663,-0.04378085,-0.
 10660754,0.01173134,0.00543670,0.01348335,-0.00009178,0.00338755,0.002
 70028,-0.00160584,0.00061744,0.00052680,-0.00000198,0.00000141,-0.0000
 0032,-0.00000242,-0.00000026,0.00000303,0.00000423,-0.00000004,-0.0000
 1151,0.00000118,-0.00000236,-0.00000001,-0.00001221,0.00001199,-0.0000
 0319,0.00000211,-0.00000142,0.00000830,-0.00000711,-0.00000355,-0.0000
 0096,-0.00000302,-0.00000012,0.00000184,-0.00000035,-0.00000065,-0.000
 00025,-0.00000095,-0.00000108,0.00000080,-0.00000048,0.,0.00000175,0.0
 0000134,-0.00000080,-0.00000356,-0.00001988,0.00001195,-0.00000520,0.0
 0003375,0.00002822,-0.00001765,0.00002146,-0.00000769,-0.00001906,-0.0
 0003512,0.00000910,-0.00001233,0.00104380,-0.00070067,0.00068281,0.118
 89911,-0.00000248,0.00000340,-0.00000094,0.00000294,-0.00000527,0.0000
 0212,-0.00000126,0.00000126,-0.00000047,-0.00000031,-0.00000140,-0.000
 00329,-0.00000382,0.00000033,0.00000197,0.00000050,-0.00000179,-0.0000
 0222,-0.00000184,0.00000089,0.00000221,0.00000286,-0.00000807,-0.00000
 078,-0.00004762,-0.00002092,0.00000563,0.00002606,0.00005014,-0.000007
 45,-0.00000708,-0.00002638,0.00001190,0.00000624,0.00000774,-0.0000030
 9,-0.00000733,-0.00000726,-0.00000314,0.00000245,0.00000551,0.00001106
 ,-0.00000474,-0.00000711,0.00000156,-0.00000091,-0.00000116,-0.0000020
 9,0.00000074,0.00000069,-0.00000034,-0.00000002,-0.00000071,0.00000072
 ,0.00000061,0.00000032,-0.00000108,0.00000036,-0.00000005,0.00000228,0
 .00000397,0.00000260,-0.00000905,0.00001726,0.00000559,-0.00000150,0.0
 0001186,0.00000625,-0.00000755,-0.00004801,-0.00003129,0.00003939,0.00
 027584,0.00038474,0.00007236,0.00009802,-0.00006245,0.00008626,0.00004
 006,0.00000851,-0.00001054,0.00220803,0.00626823,-0.00255192,0.0029926
 3,0.00466994,0.00444664,-0.04394802,-0.07964687,-0.09197843,-0.0106894
 2,-0.00267708,-0.01065856,0.00341612,0.00373379,-0.00577033,0.00113408
 ,-0.00032058,0.00042176,0.00000061,0.00000068,-0.00000005,0.00000083,0
 .00000085,0.00000041,0.00000240,0.00000145,-0.00000234,0.00000122,-0.0
 0000013,0.00000029,-0.00000229,0.00000167,-0.00000125,0.00000057,-0.00
 000062,0.00000260,-0.00000136,-0.00000121,-0.00000057,-0.00000081,0.00
 000027,0.00000127,-0.00000040,-0.00000019,-0.00000028,-0.00000082,-0.0
 0000042,0.00000044,-0.00000039,0.00000052,0.00000076,0.00000006,0.0000
 0014,-0.00000148,0.00000154,0.00000324,-0.00000006,0.00004809,-0.00000
 976,0.00001743,0.00000511,-0.00000966,0.00000597,0.00000764,0.00000345
 ,-0.00000528,-0.00097524,-0.00284367,0.00199952,0.04627532,0.07379608,
 -0.00000817,0.00001542,-0.00000467,0.00001006,-0.00001832,0.00000743,-
 0.00000357,0.00000758,-0.00000152,0.00000201,-0.00000305,-0.00000666,-
 0.00000461,-0.00000027,0.00000732,0.00000494,-0.00000116,-0.00000944,-
 0.00000429,0.00000603,0.00000773,0.00000353,-0.00004870,-0.00000241,-0
 .00011775,-0.00000312,-0.00001855,0.00006370,0.00007115,0.00000067,-0.
 00003040,-0.00002995,0.00001041,0.00000942,0.00001307,-0.00000551,-0.0
 0001423,-0.00001121,-0.00000676,0.00000462,0.00001299,0.00001815,-0.00
 000969,-0.00001294,0.00000328,-0.00000104,-0.00000203,-0.00000407,0.00
 000069,0.00000154,0.00000049,-0.00000105,-0.00000056,-0.00000022,0.000
 00050,0.00000235,-0.00000171,-0.00000147,0.00000063,0.00000386,0.00000
 789,0.00000320,-0.00001508,0.00009197,-0.00002182,0.00001940,-0.000027
 25,-0.00001899,0.00000046,-0.00003193,0.00000132,-0.00004205,0.0002669
 2,-0.00027733,0.00006673,-0.00005804,0.00009974,-0.00006541,-0.0000422
 1,0.00002101,-0.00000610,-0.00069134,-0.00249091,0.00384646,0.00084980
 ,-0.00151080,0.00036761,-0.10671625,-0.09222025,-0.23778151,-0.0142827
 5,-0.00404198,-0.01156548,0.00210194,-0.00562449,-0.00106679,0.0016076
 4,0.00013189,0.00055351,-0.00000119,0.00000092,0.00000026,0.00000010,-
 0.00000052,0.00000111,0.00000392,0.00000147,-0.00000675,0.00000073,-0.
 00000189,-0.00000052,-0.00000986,0.00000924,-0.00000304,0.00000180,-0.
 00000132,0.00000669,-0.00000532,-0.00000294,-0.00000043,-0.00000216,-0
 .00000032,0.00000138,-0.00000009,-0.00000083,-0.00000036,-0.00000040,-
 0.00000111,0.00000088,0.00000066,-0.00000004,0.00000078,0.00000150,-0.
 00000183,-0.00000220,-0.00000980,0.00000718,0.00000101,-0.00001856,-0.
 00001748,-0.00001077,0.00001015,0.00002000,-0.00000239,-0.00000865,-0.
 00000102,0.00000157,0.00017890,0.00218976,-0.00034435,0.11631420,0.101
 55436,0.24678306,-0.00001128,0.00002017,-0.00000634,0.00001392,-0.0000
 2548,0.00001026,-0.00000479,0.00000910,-0.00000233,0.00000158,-0.00000
 432,-0.00000949,-0.00000805,-0.00000123,0.00000870,0.00000488,-0.00000
 304,-0.00001114,-0.00000651,0.00000747,0.00000982,0.00000509,-0.000053
 19,-0.00000202,-0.00014564,-0.00001759,-0.00001724,0.00008724,0.000104
 24,-0.00000548,-0.00004106,-0.00004751,0.00001853,0.00001471,0.0000207
 4,-0.00000845,-0.00002153,-0.00001847,-0.00001052,0.00000781,0.0000192
 8,0.00002847,-0.00001467,-0.00002029,0.00000491,-0.00000165,-0.0000027
 2,-0.00000640,0.00000118,0.00000195,0.00000068,-0.00000134,-0.00000130
 ,-0.00000013,0.00000111,0.00000325,-0.00000249,-0.00000133,0.00000090,
 0.00000630,0.00001142,0.00000512,-0.00002309,0.00010039,0.00001907,0.0
 0004039,-0.00004251,-0.00002617,-0.00004111,0.00000721,0.00000872,0.00
 002962,0.00011268,-0.00021975,0.00026850,-0.00009858,0.00000471,-0.000
 03445,0.00002880,-0.00000835,-0.00000627,0.00018786,0.00000419,0.00032
 672,0.00048438,0.00273417,0.00213601,-0.01095561,0.00113583,-0.0046405
 0,-0.31805929,0.05096928,-0.01975620,-0.01316524,-0.00385417,-0.010011
 95,0.00257645,0.00071489,-0.00185221,-0.00000059,0.00000147,0.00000014
 ,0.00000120,0.,0.00000109,0.00000672,0.00000348,-0.00000819,0.00000196
 ,-0.00000189,-0.00000057,-0.00001294,0.00001022,-0.00000419,0.00000246
 ,-0.00000240,0.00001048,-0.00000642,-0.00000405,-0.00000093,-0.0000028
 0,0.00000008,0.00000277,-0.00000046,-0.00000113,-0.00000063,-0.0000009
 7,-0.00000155,0.00000139,0.00000076,0.00000035,0.00000116,0.00000179,-
 0.00000220,-0.00000334,-0.00000478,0.00001037,-0.00000066,0.00001474,-
 0.00003970,0.00000370,0.00001765,0.00002485,-0.00001026,-0.00000549,-0
 .00000126,-0.00000235,-0.00068242,-0.00004035,-0.00021681,0.00036964,-
 0.00041241,0.00059503,0.33959526,0.00000001,-0.00000050,0.00000052,-0.
 00000018,0.00000024,-0.00000073,-0.00000041,0.00000029,0.00000112,0.00
 000007,0.00000044,-0.00000112,-0.00000065,0.00000082,0.00000148,0.0000
 0230,-0.00000136,-0.00000278,-0.00000070,0.00000069,0.00000134,-0.0000
 0487,-0.00001124,-0.00000666,-0.00004367,-0.00000518,-0.00001407,0.000
 01675,0.00005094,-0.00000851,0.00000871,-0.00002584,0.00001167,0.00000
 389,0.00000367,-0.00000261,-0.00000361,-0.00000358,-0.00000165,0.00000
 167,0.00000256,0.00000542,-0.00000207,-0.00000387,0.00000083,-0.000000
 63,-0.00000057,-0.00000097,0.00000042,0.00000019,-0.00000015,0.0000000
 6,-0.00000066,0.00000046,0.00000049,0.00000010,-0.00000030,0.00000029,
 -0.00000032,0.00000106,0.00000185,0.00000154,-0.00000473,0.00000721,0.
 00016625,0.00008962,-0.00015978,-0.00010570,-0.00011071,0.00026939,-0.
 00000621,0.00009564,-0.00007581,-0.00114319,0.00087776,-0.00027942,-0.
 00001240,-0.00009903,0.00018431,-0.00007576,-0.00004480,-0.00056450,-0
 .00041439,-0.00011428,0.00216039,0.00335708,-0.00536187,0.01581763,0.0
 0360417,0.00149937,0.05116727,-0.05358332,-0.00248763,-0.01655648,-0.0
 0078227,-0.00046249,-0.00026382,0.00685630,-0.00605317,0.00000009,0.00
 000025,-0.00000009,-0.00000046,0.00000042,0.00000068,0.00000069,-0.000
 00087,-0.00000193,0.00000049,-0.00000019,0.00000030,-0.00000445,0.0000
 0376,-0.00000113,0.00000048,-0.00000139,0.00000142,-0.00000088,-0.0000
 0111,-0.00000042,-0.00000081,0.00000078,0.00000028,-0.00000038,0.00000
 002,-0.00000007,-0.00000048,-0.00000003,0.00000017,-0.00000043,0.00000
 026,0.00000037,-0.00000019,0.00000030,-0.00000077,0.00001300,-0.000003
 10,0.00000729,0.00000433,0.00001654,-0.00002618,-0.00001069,-0.0000087
 8,-0.00000414,-0.00000576,-0.00000366,0.00000495,0.00072866,-0.0002858
 2,0.00028993,-0.00082265,-0.00198768,0.00143520,-0.05121560,0.04392864
 ,-0.00000158,0.00000302,-0.00000099,0.00000190,-0.00000351,0.00000185,
 -0.00000088,0.00000200,-0.00000037,0.00000075,-0.00000093,-0.00000121,
 -0.00000131,0.00000079,0.00000151,0.00000066,-0.00000023,-0.00000239,-
 0.00000073,0.00000082,0.00000195,0.00000245,-0.00000766,0.00000198,-0.
 00001265,0.00000624,0.00000566,0.00001080,-0.00000076,0.00000288,-0.00
 001190,0.00000223,0.00000035,0.00000124,0.00000200,-0.00000124,-0.0000
 0248,-0.00000178,-0.00000141,0.00000077,0.00000269,0.00000279,-0.00000
 175,-0.00000210,0.00000066,-0.00000006,-0.00000032,-0.00000074,0.00000
 008,0.00000036,0.00000029,-0.00000035,-0.00000007,-0.00000024,0.000000
 05,0.00000064,-0.00000011,-0.00000054,0.,0.00000050,0.00000143,0.00000
 035,-0.00000237,0.00002043,-0.00006068,-0.00003949,0.00003123,0.000095
 77,0.00006726,-0.00020829,-0.00008421,-0.00005494,0.00003375,0.0008774
 5,-0.00021484,0.00013509,-0.00004058,0.00006627,-0.00005470,0.00006484
 ,0.00004163,-0.00020324,-0.00021352,-0.00081913,0.00112715,-0.00500405
 ,-0.00121539,0.02058452,-0.00441077,0.00676224,-0.01940812,-0.00225886
 ,-0.05212836,-0.03149870,0.00403683,-0.00939746,-0.00383989,-0.0053900
 1,-0.00036497,-0.00000022,0.00000009,0.00000008,-0.00000037,-0.0000000
 3,0.00000036,0.00000028,0.00000012,-0.00000165,0.00000014,-0.00000048,
 -0.00000017,-0.00000071,0.00000084,-0.00000024,0.00000018,-0.00000019,
 0.00000101,-0.00000107,-0.00000035,0.00000006,-0.00000027,-0.00000035,
 0.00000036,0.00000005,-0.00000021,-0.00000001,0.00000010,-0.00000019,0
 .00000019,0.00000023,-0.00000016,0.00000003,0.00000032,-0.00000047,-0.
 00000030,-0.00001595,0.00000494,-0.00000730,-0.00000714,0.00004854,0.0
 0000697,0.00003391,0.00005529,-0.00000061,0.00000504,0.00000143,-0.000
 00376,0.00117492,-0.00002100,0.00006165,-0.00012128,0.00164412,-0.0002
 1930,0.03317754,0.01075698,0.05742941,0.00000964,-0.00001744,0.0000056
 2,-0.00001144,0.00002070,-0.00000924,0.00000484,-0.00000918,0.00000201
 ,-0.00000196,0.00000417,0.00000914,0.00000799,0.00000106,-0.00000895,-
 0.00000579,0.00000151,0.00001302,0.00000521,-0.00000579,-0.00001063,0.
 00000048,0.00005444,-0.00000078,0.00012694,-0.00000078,0.00002776,-0.0
 0008614,-0.00009594,0.00000758,0.00004230,0.00004417,-0.00002092,-0.00
 001307,-0.00001867,0.00000781,0.00001988,0.00001649,0.00001070,-0.0000
 0934,-0.00001961,-0.00002547,0.00001364,0.00002012,-0.00000508,0.00000
 168,0.00000256,0.00000609,-0.00000082,-0.00000139,-0.00000131,0.000001
 40,0.00000191,0.00000077,-0.00000161,-0.00000350,0.00000213,0.00000117
 ,-0.00000072,-0.00000598,-0.00000999,-0.00000429,0.00002143,-0.0000908
 9,-0.00012041,-0.00012331,0.00014084,0.00001650,0.00003443,0.00003997,
 0.00006006,-0.00011317,0.00058909,-0.00031982,0.00056221,-0.00056047,-
 0.00010490,0.00043634,-0.00025539,0.00005789,-0.00017028,0.00903173,0.
 00690967,0.01380220,-0.00189411,0.00278447,0.00189685,-0.00059417,-0.0
 0003999,-0.00023982,-0.00377783,0.00213188,-0.00188223,-0.02385756,-0.
 01217377,-0.02928549,-0.08427218,-0.03441556,-0.08193090,0.00000065,-0
 .00000136,-0.00000025,-0.00000027,-0.00000016,-0.00000145,-0.00000678,
 -0.00000240,0.00000929,-0.00000117,0.00000177,0.00000048,0.00001513,-0
 .00001023,0.00000379,-0.00000375,0.00000413,-0.00001263,0.00000631,0.0
 0000371,0.00000094,0.00000323,-0.00000030,-0.00000263,0.00000074,0.000
 00093,0.00000028,0.00000084,0.00000110,-0.00000114,-0.00000043,-0.0000
 0021,-0.00000079,-0.00000133,0.00000202,0.00000306,0.00000303,-0.00001
 258,0.00000878,0.00000779,-0.00005206,0.00001832,-0.00106958,-0.000327
 90,0.00044283,-0.00001910,-0.00001468,0.00005705,0.00049062,0.00033590
 ,0.00095565,0.00011740,-0.00042745,-0.00003059,-0.00036291,-0.00037107
 ,-0.00095083,0.10622552,-0.00000329,0.00000498,-0.00000057,0.00000453,
 -0.00000738,0.00000265,-0.00000211,0.00000383,0.00000105,0.00000086,-0
 .00000169,-0.00000445,-0.00000701,0.00000191,0.00000559,0.00000400,-0.
 00000876,-0.00000658,-0.00000351,0.00000282,0.00000277,-0.00000857,0.0
 0000006,-0.00001586,0.00000336,0.00000988,-0.00003596,0.00003935,0.000
 04761,-0.00001717,-0.00000724,-0.00002517,0.00002042,0.00000796,0.0000
 0934,-0.00000730,-0.00000910,-0.00000995,-0.00000326,0.00000385,0.0000
 0704,0.00001378,-0.00000541,-0.00000934,0.00000251,-0.00000142,-0.0000
 0165,-0.00000253,0.00000099,0.00000074,-0.00000031,-0.00000005,-0.0000
 0130,0.00000102,0.00000092,0.00000052,-0.00000062,0.00000038,-0.000000
 34,0.00000260,0.00000450,0.00000320,-0.00001160,0.00004640,0.00048044,
 0.00021738,-0.00051167,-0.00015780,-0.00023877,0.00084927,-0.00059527,
 -0.00005394,-0.00255264,-0.00146853,0.00072869,-0.00062531,0.00020205,
 0.00048537,0.00052562,-0.00034443,0.00017046,-0.00486257,0.00007617,-0
 .01382250,0.00301989,0.00329205,-0.00414654,0.00073924,-0.00049289,0.0
 0023231,0.00299938,0.00883650,-0.00254035,-0.00015578,0.00006410,0.008
 00692,-0.03447636,-0.08593864,-0.09562232,-0.00000022,0.00000090,0.,-0
 .00000079,0.00000045,0.00000190,0.00000507,0.00000098,-0.00000485,0.00
 000220,-0.00000125,0.00000063,-0.00000558,0.00000456,-0.00000100,0.000
 00019,-0.00000872,0.00000550,-0.00000064,-0.00000157,-0.00000076,0.000
 00045,0.00000119,0.00000186,-0.00000084,-0.00000016,-0.00000024,-0.000
 00103,-0.00000035,0.00000063,-0.00000059,0.00000046,0.00000088,-0.0000
 0013,0.00000038,-0.00000170,0.00001220,-0.00000450,-0.00000148,0.00001
 141,0.00002289,0.00001766,-0.00054212,0.00024810,-0.00008975,-0.000010
 99,0.00000260,0.00001025,-0.00040742,-0.00053922,-0.00051891,-0.000366
 83,-0.00128655,0.00076114,0.00019221,0.00047276,-0.00010492,0.03609502
 ,0.07710696,-0.00000981,0.00001811,-0.00000481,0.00001168,-0.00002123,
 0.00000825,-0.00000496,0.00001024,-0.00000012,0.00000333,-0.00000353,-
 0.00001067,-0.00000711,0.00000233,0.00001125,0.00000513,-0.00000150,-0
 .00001716,-0.00000594,0.00000802,0.00001294,-0.00000022,-0.00004976,0.
 00001046,-0.00008495,0.00007304,0.00000487,0.00008472,0.00000716,0.000
 00350,-0.00007544,0.00000968,0.00001357,0.00001102,0.00001837,-0.00001
 025,-0.00001823,-0.00001448,-0.00000779,0.00000389,0.00001584,0.000024
 76,-0.00001195,-0.00001476,0.00000423,-0.00000116,-0.00000298,-0.00000
 525,0.00000126,0.00000271,-0.00000003,-0.00000138,-0.00000047,0.000000
 63,0.00000035,0.00000274,-0.00000266,-0.00000272,-0.00000004,0.0000041
 9,0.00001201,0.00000487,-0.00002078,0.00007348,-0.00004917,-0.00009572
 ,-0.00005808,0.00010576,0.00007005,0.00014445,-0.00009987,0.00016144,-
 0.00049037,0.00122195,-0.00031887,0.00021194,-0.00099379,0.00005440,0.
 00000115,0.00045996,0.00027527,-0.01098737,-0.00801982,-0.01172411,0.0
 0299376,-0.00412969,0.00017070,0.00047517,0.00029124,0.00010023,0.0001
 4590,-0.00328775,0.00475995,-0.00757667,0.00351481,-0.00051138,-0.0811
 7356,-0.09671989,-0.25030164,-0.00000159,0.00000144,0.00000002,-0.0000
 0157,-0.00000031,0.00000263,0.00000488,0.00000120,-0.00001124,0.000001
 48,-0.00000267,-0.00000046,-0.00001093,0.00000888,-0.00000191,0.000000
 52,-0.00000264,0.00001038,-0.00000740,-0.00000319,-0.00000056,-0.00000
 250,-0.00000119,0.00000224,0.00000012,-0.00000108,-0.00000040,-0.00000
 058,-0.00000158,0.00000121,0.00000045,-0.00000024,0.00000155,0.0000020
 7,-0.00000202,-0.00000335,0.00001953,0.00001227,-0.00001469,-0.0000449
 4,0.00013579,-0.00002457,0.00023795,0.00077897,0.00017812,0.00004636,-
 0.00002290,0.00002708,-0.00054112,-0.00023930,-0.00081339,0.00012721,0
 .00069105,-0.00051622,0.00001351,-0.00027084,0.00002103,0.09648731,0.1
 0656024,0.25848307\\-0.00000243,0.00000495,-0.00000598,0.00000692,-0.0
 0001216,0.00000102,-0.00000280,0.00000660,-0.00000493,0.00000065,0.000
 00072,-0.00000150,0.00000040,-0.00000075,-0.00000294,0.00000073,-0.000
 00009,0.00000183,-0.00000257,0.00000584,-0.00000471,0.00000185,-0.0000
 0227,-0.00000531,0.00000321,-0.00000113,0.00000199,-0.00000638,0.00000
 545,-0.00000332,0.00000245,-0.00000584,0.00000400,0.00000606,0.0000009
 2,0.00000258,-0.00000403,-0.00000480,-0.00000902,0.00000489,0.00000731
 ,0.00001481,-0.00000687,-0.00001037,0.00000143,0.00000342,0.00000333,-
 0.00000679,-0.00000109,0.00000036,0.00000693,-0.00000190,-0.00000103,-
 0.00000033,0.00000298,0.00000561,0.00000332,-0.00000167,0.00000122,0.0
 0000354,0.00000072,-0.00000069,0.00000355,-0.00000608,-0.00000243,-0.0
 0000198,0.00000050,-0.00000042,0.,-0.00000064,-0.00000110,-0.00000088,
 0.00000505,-0.00000257,0.00000235,0.00000332,0.00000155,0.00000060,-0.
 00000251,0.00000226,0.00000032,-0.00000428,0.00000086,0.00000006,-0.00
 000020,-0.00000010,-0.00000343,-0.00000074,0.00000129,0.00000068,0.000
 00224,-0.00000376,-0.00000196,-0.00000305,0.00000070,0.00000307,0.0000
 0256,-0.00000072,-0.00000238,0.00000044,0.00000169,-0.00000214,0.00000
 018,0.00000214,-0.00000095,0.00000119,0.00000057,-0.00000036,0.0000006
 6,-0.00000162,-0.00000362,-0.00000120,-0.00000179,-0.00000062,0.000000
 32,-0.00000034,-0.00000088,-0.00000038,-0.00000040,0.00000046,0.000000
 09,-0.00000190,-0.00000079,-0.00000087,-0.00000084,0.00000359,-0.00000
 054,0.00000148,0.00000411,-0.00000010,0.00000258,0.00000296,0.00000101
 ,0.00000207,0.00000172,-0.00000036,0.00000169,-0.00000088,-0.00000116,
 0.00000219,-0.00000147,-0.00000168,-0.00000289,0.00000041,-0.00000007,
 -0.00000354,0.00000054,0.00000122,0.00000125,0.00000096,-0.00000065,0.
 00000273,0.00000081,0.00000042,-0.00000061,-0.00000111,0.00000075,-0.0
 0000320,0.00000066\\\@


 IT IS THE BEHAVIOR AND DISTRIBUTION OF THE ELECTRONS 
 AROUND THE NUCLEUS THAT GIVES THE FUNDAMENTAL 
 CHARACTER OF AN ATOM:  IT MUST BE THE SAME FOR MOLECULES.

                               -- C. A. COULSON, 1951
 Job cpu time:  0 days 21 hours 32 minutes 34.2 seconds.
 File lengths (MBytes):  RWF=   1904 Int=      0 D2E=      0 Chk=     26 Scr=      1
 Normal termination of Gaussian 09 at Tue Sep  6 02:49:20 2022.
