 Entering Gaussian System, Link 0=g09
 Input=Mol20.gjf
 Output=Mol20.log
 Initial command:
 /opt/gaussian/l1.exe /home/scr/lqcapf-6/Gau-186403.inp -scrdir=/home/scr/lqcapf-6/
 Entering Link 1 = /opt/gaussian/l1.exe PID=    186405.
  
 Copyright (c) 1988,1990,1992,1993,1995,1998,2003,2009,2011,
            Gaussian, Inc.  All Rights Reserved.
  
 This is part of the Gaussian(R) 09 program.  It is based on
 the Gaussian(R) 03 system (copyright 2003, Gaussian, Inc.),
 the Gaussian(R) 98 system (copyright 1998, Gaussian, Inc.),
 the Gaussian(R) 94 system (copyright 1995, Gaussian, Inc.),
 the Gaussian 92(TM) system (copyright 1992, Gaussian, Inc.),
 the Gaussian 90(TM) system (copyright 1990, Gaussian, Inc.),
 the Gaussian 88(TM) system (copyright 1988, Gaussian, Inc.),
 the Gaussian 86(TM) system (copyright 1986, Carnegie Mellon
 University), and the Gaussian 82(TM) system (copyright 1983,
 Carnegie Mellon University). Gaussian is a federally registered
 trademark of Gaussian, Inc.
  
 This software contains proprietary and confidential information,
 including trade secrets, belonging to Gaussian, Inc.
  
 This software is provided under written license and may be
 used, copied, transmitted, or stored only in accord with that
 written license.
  
 The following legend is applicable only to US Government
 contracts under FAR:
  
                    RESTRICTED RIGHTS LEGEND
  
 Use, reproduction and disclosure by the US Government is
 subject to restrictions as set forth in subparagraphs (a)
 and (c) of the Commercial Computer Software - Restricted
 Rights clause in FAR 52.227-19.
  
 Gaussian, Inc.
 340 Quinnipiac St., Bldg. 40, Wallingford CT 06492
  
  
 ---------------------------------------------------------------
 Warning -- This program may not be used in any manner that
 competes with the business of Gaussian, Inc. or will provide
 assistance to any competitor of Gaussian, Inc.  The licensee
 of this program is prohibited from giving any competitor of
 Gaussian, Inc. access to this program.  By using this program,
 the user acknowledges that Gaussian, Inc. is engaged in the
 business of creating and licensing software in the field of
 computational chemistry and represents and warrants to the
 licensee that it is not a competitor of Gaussian, Inc. and that
 it will not use this program in any manner prohibited above.
 ---------------------------------------------------------------
  

 Cite this work as:
 Gaussian 09, Revision C.01,
 M. J. Frisch, G. W. Trucks, H. B. Schlegel, G. E. Scuseria, 
 M. A. Robb, J. R. Cheeseman, G. Scalmani, V. Barone, B. Mennucci, 
 G. A. Petersson, H. Nakatsuji, M. Caricato, X. Li, H. P. Hratchian, 
 A. F. Izmaylov, J. Bloino, G. Zheng, J. L. Sonnenberg, M. Hada, 
 M. Ehara, K. Toyota, R. Fukuda, J. Hasegawa, M. Ishida, T. Nakajima, 
 Y. Honda, O. Kitao, H. Nakai, T. Vreven, J. A. Montgomery, Jr., 
 J. E. Peralta, F. Ogliaro, M. Bearpark, J. J. Heyd, E. Brothers, 
 K. N. Kudin, V. N. Staroverov, T. Keith, R. Kobayashi, J. Normand, 
 K. Raghavachari, A. Rendell, J. C. Burant, S. S. Iyengar, J. Tomasi, 
 M. Cossi, N. Rega, J. M. Millam, M. Klene, J. E. Knox, J. B. Cross, 
 V. Bakken, C. Adamo, J. Jaramillo, R. Gomperts, R. E. Stratmann, 
 O. Yazyev, A. J. Austin, R. Cammi, C. Pomelli, J. W. Ochterski, 
 R. L. Martin, K. Morokuma, V. G. Zakrzewski, G. A. Voth, 
 P. Salvador, J. J. Dannenberg, S. Dapprich, A. D. Daniels, 
 O. Farkas, J. B. Foresman, J. V. Ortiz, J. Cioslowski, 
 and D. J. Fox, Gaussian, Inc., Wallingford CT, 2010.
 
 ******************************************
 Gaussian 09:  EM64L-G09RevC.01 23-Sep-2011
                 3-Sep-2022 
 ******************************************
 %nprocshared=8
 Will use up to    8 processors via shared memory.
 %mem=1600MB
 -------------------------
 #p opt freq b3lyp/cc-pvdz
 -------------------------
 1/14=-1,18=20,19=15,26=3,38=1/1,3;
 2/9=110,12=2,17=6,18=5,40=1/2;
 3/5=16,11=2,16=1,25=1,30=1,71=1,74=-5/1,2,3;
 4//1;
 5/5=2,38=5/2;
 6/7=2,8=2,9=2,10=2,28=1/1;
 7//1,2,3,16;
 1/14=-1,18=20,19=15/3(2);
 2/9=110/2;
 99//99;
 2/9=110/2;
 3/5=16,11=2,16=1,25=1,30=1,71=1,74=-5/1,2,3;
 4/5=5,16=3/1;
 5/5=2,38=5/2;
 7//1,2,3,16;
 1/14=-1,18=20,19=15/3(-5);
 2/9=110/2;
 6/7=2,8=2,9=2,10=2,19=2,28=1/1;
 99/9=1/99;
 Leave Link    1 at Sat Sep  3 18:26:06 2022, MaxMem=  209715200 cpu:       0.2
 (Enter /opt/gaussian/l101.exe)
 ---------
 Mol20.log
 ---------
 Charge =  0 Multiplicity = 1
 Symbolic Z-Matrix:
 C                    -8.7481   -0.74089   0.94772 
 N                    -7.42789  -0.94469   0.38416 
 C                    -7.05851  -1.90454  -0.50441 
 N                    -5.79541  -1.81452  -0.80622 
 C                    -5.2918   -0.7429   -0.08698 
 C                    -6.30005  -0.20051   0.65435 
 C                    -3.88141  -0.35728  -0.18667 
 C                    -2.9898   -1.157    -0.90065 
 C                    -1.65506  -0.81184  -1.00992 
 C                    -1.1756    0.33848  -0.39823 
 C                    -2.05232   1.13963   0.31815 
 C                    -3.39105   0.79787   0.41603 
 N                     0.2033    0.72708  -0.54992 
 C                     0.4707    2.00243  -1.23312 
 C                     1.22094   3.02252  -0.40794 
 C                     1.05728   3.19067   1.02251 
 C                     1.78872   4.19061   1.53885 
 S                     2.75388   5.0239    0.28766 
 C                     2.08668   3.90634  -0.93655 
 C                     1.18653  -0.14203  -0.16591 
 O                     0.94524  -1.20147   0.39853 
 C                     2.63463   0.25365  -0.41675 
 N                     3.48374  -0.88984  -0.60489 
 N                     3.9599   -1.15349  -1.85589 
 N                     4.72053  -2.168    -1.81537 
 C                     4.78237  -2.62925  -0.51137 
 C                     5.49017  -3.69909   0.03839 
 C                     5.36211  -3.90878   1.38812 
 C                     4.53595  -3.07686   2.17915 
 C                     3.83067  -2.02656   1.64537 
 C                     3.97686  -1.81092   0.27152 
 H                    -8.72328  -0.84302   2.02389 
 H                    -9.12486   0.2399    0.69212 
 H                    -9.42116  -1.48367   0.54678 
 H                    -7.74026  -2.62718  -0.88911 
 H                    -6.32005   0.61624   1.33748 
 H                    -3.35625  -2.04586  -1.37093 
 H                    -0.98285  -1.44441  -1.55241 
 H                    -1.69975   2.03267   0.79549 
 H                    -4.04962   1.44239   0.9657 
 H                     0.99472   1.82833  -2.16588 
 H                    -0.49576   2.40282  -1.49965 
 H                     0.42323   2.56563   1.61585 
 H                     1.84546   4.51051   2.55467 
 H                     2.3937    3.99798  -1.95497 
 H                     2.74973   0.85861  -1.29745 
 H                     2.98284   0.83417   0.42883 
 H                     6.1037   -4.32101  -0.5817 
 H                     5.88534  -4.71828   1.85769 
 H                     4.44999  -3.28462   3.22813 
 H                     3.17257  -1.42995   2.24157 
 
 NAtoms=     51 NQM=        0 NQMF=       0 NMMI=     51 NMMIF=      0
                NMic=       0 NMicF=      0.
                    Isotopes and Nuclear Properties:
 (Nuclear quadrupole moments (NQMom) in fm**2, nuclear magnetic moments (NMagM)
  in nuclear magnetons)

  Atom         1           2           3           4           5           6           7           8           9          10
 IAtWgt=          12          14          12          14          12          12          12          12          12          12
 AtmWgt=  12.0000000  14.0030740  12.0000000  14.0030740  12.0000000  12.0000000  12.0000000  12.0000000  12.0000000  12.0000000
 NucSpn=           0           2           0           2           0           0           0           0           0           0
 AtZEff=   0.0000000   0.0000000   0.0000000   0.0000000   0.0000000   0.0000000   0.0000000   0.0000000   0.0000000   0.0000000
 NQMom=    0.0000000   2.0440000   0.0000000   2.0440000   0.0000000   0.0000000   0.0000000   0.0000000   0.0000000   0.0000000
 NMagM=    0.0000000   0.4037610   0.0000000   0.4037610   0.0000000   0.0000000   0.0000000   0.0000000   0.0000000   0.0000000

  Atom        11          12          13          14          15          16          17          18          19          20
 IAtWgt=          12          12          14          12          12          12          12          32          12          12
 AtmWgt=  12.0000000  12.0000000  14.0030740  12.0000000  12.0000000  12.0000000  12.0000000  31.9720718  12.0000000  12.0000000
 NucSpn=           0           0           2           0           0           0           0           0           0           0
 AtZEff=   0.0000000   0.0000000   0.0000000   0.0000000   0.0000000   0.0000000   0.0000000   0.0000000   0.0000000   0.0000000
 NQMom=    0.0000000   0.0000000   2.0440000   0.0000000   0.0000000   0.0000000   0.0000000   0.0000000   0.0000000   0.0000000
 NMagM=    0.0000000   0.0000000   0.4037610   0.0000000   0.0000000   0.0000000   0.0000000   0.0000000   0.0000000   0.0000000

  Atom        21          22          23          24          25          26          27          28          29          30
 IAtWgt=          16          12          14          14          14          12          12          12          12          12
 AtmWgt=  15.9949146  12.0000000  14.0030740  14.0030740  14.0030740  12.0000000  12.0000000  12.0000000  12.0000000  12.0000000
 NucSpn=           0           0           2           2           2           0           0           0           0           0
 AtZEff=   0.0000000   0.0000000   0.0000000   0.0000000   0.0000000   0.0000000   0.0000000   0.0000000   0.0000000   0.0000000
 NQMom=    0.0000000   0.0000000   2.0440000   2.0440000   2.0440000   0.0000000   0.0000000   0.0000000   0.0000000   0.0000000
 NMagM=    0.0000000   0.0000000   0.4037610   0.4037610   0.4037610   0.0000000   0.0000000   0.0000000   0.0000000   0.0000000

  Atom        31          32          33          34          35          36          37          38          39          40
 IAtWgt=          12           1           1           1           1           1           1           1           1           1
 AtmWgt=  12.0000000   1.0078250   1.0078250   1.0078250   1.0078250   1.0078250   1.0078250   1.0078250   1.0078250   1.0078250
 NucSpn=           0           1           1           1           1           1           1           1           1           1
 AtZEff=   0.0000000   0.0000000   0.0000000   0.0000000   0.0000000   0.0000000   0.0000000   0.0000000   0.0000000   0.0000000
 NQMom=    0.0000000   0.0000000   0.0000000   0.0000000   0.0000000   0.0000000   0.0000000   0.0000000   0.0000000   0.0000000
 NMagM=    0.0000000   2.7928460   2.7928460   2.7928460   2.7928460   2.7928460   2.7928460   2.7928460   2.7928460   2.7928460

  Atom        41          42          43          44          45          46          47          48          49          50
 IAtWgt=           1           1           1           1           1           1           1           1           1           1
 AtmWgt=   1.0078250   1.0078250   1.0078250   1.0078250   1.0078250   1.0078250   1.0078250   1.0078250   1.0078250   1.0078250
 NucSpn=           1           1           1           1           1           1           1           1           1           1
 AtZEff=   0.0000000   0.0000000   0.0000000   0.0000000   0.0000000   0.0000000   0.0000000   0.0000000   0.0000000   0.0000000
 NQMom=    0.0000000   0.0000000   0.0000000   0.0000000   0.0000000   0.0000000   0.0000000   0.0000000   0.0000000   0.0000000
 NMagM=    2.7928460   2.7928460   2.7928460   2.7928460   2.7928460   2.7928460   2.7928460   2.7928460   2.7928460   2.7928460

  Atom        51
 IAtWgt=           1
 AtmWgt=   1.0078250
 NucSpn=           1
 AtZEff=   0.0000000
 NQMom=    0.0000000
 NMagM=    2.7928460
 Leave Link  101 at Sat Sep  3 18:26:06 2022, MaxMem=  209715200 cpu:       1.0
 (Enter /opt/gaussian/l103.exe)

 GradGradGradGradGradGradGradGradGradGradGradGradGradGradGradGradGradGrad
 Berny optimization.
 Initialization pass.
                           ----------------------------
                           !    Initial Parameters    !
                           ! (Angstroms and Degrees)  !
 --------------------------                            --------------------------
 ! Name  Definition              Value          Derivative Info.                !
 --------------------------------------------------------------------------------
 ! R1    R(1,2)                  1.4499         estimate D2E/DX2                !
 ! R2    R(1,32)                 1.0813         estimate D2E/DX2                !
 ! R3    R(1,33)                 1.0813         estimate D2E/DX2                !
 ! R4    R(1,34)                 1.0796         estimate D2E/DX2                !
 ! R5    R(2,3)                  1.3592         estimate D2E/DX2                !
 ! R6    R(2,6)                  1.378          estimate D2E/DX2                !
 ! R7    R(3,4)                  1.3018         estimate D2E/DX2                !
 ! R8    R(3,35)                 1.0654         estimate D2E/DX2                !
 ! R9    R(4,5)                  1.3854         estimate D2E/DX2                !
 ! R10   R(5,6)                  1.3639         estimate D2E/DX2                !
 ! R11   R(5,7)                  1.4656         estimate D2E/DX2                !
 ! R12   R(6,36)                 1.065          estimate D2E/DX2                !
 ! R13   R(7,8)                  1.3944         estimate D2E/DX2                !
 ! R14   R(7,12)                 1.3921         estimate D2E/DX2                !
 ! R15   R(8,9)                  1.383          estimate D2E/DX2                !
 ! R16   R(8,37)                 1.0703         estimate D2E/DX2                !
 ! R17   R(9,10)                 1.3883         estimate D2E/DX2                !
 ! R18   R(9,38)                 1.0707         estimate D2E/DX2                !
 ! R19   R(10,11)                1.387          estimate D2E/DX2                !
 ! R20   R(10,13)                1.4406         estimate D2E/DX2                !
 ! R21   R(11,12)                1.3851         estimate D2E/DX2                !
 ! R22   R(11,39)                1.0722         estimate D2E/DX2                !
 ! R23   R(12,40)                1.073          estimate D2E/DX2                !
 ! R24   R(13,14)                1.4713         estimate D2E/DX2                !
 ! R25   R(13,20)                1.3673         estimate D2E/DX2                !
 ! R26   R(14,15)                1.5114         estimate D2E/DX2                !
 ! R27   R(14,41)                1.084          estimate D2E/DX2                !
 ! R28   R(14,42)                1.0795         estimate D2E/DX2                !
 ! R29   R(15,16)                1.4496         estimate D2E/DX2                !
 ! R30   R(15,19)                1.3454         estimate D2E/DX2                !
 ! R31   R(16,17)                1.3422         estimate D2E/DX2                !
 ! R32   R(16,43)                1.0699         estimate D2E/DX2                !
 ! R33   R(17,18)                1.7864         estimate D2E/DX2                !
 ! R34   R(17,44)                1.0665         estimate D2E/DX2                !
 ! R35   R(18,19)                1.7868         estimate D2E/DX2                !
 ! R36   R(19,45)                1.0676         estimate D2E/DX2                !
 ! R37   R(20,21)                1.2244         estimate D2E/DX2                !
 ! R38   R(20,22)                1.522          estimate D2E/DX2                !
 ! R39   R(22,23)                1.4366         estimate D2E/DX2                !
 ! R40   R(22,46)                1.0746         estimate D2E/DX2                !
 ! R41   R(22,47)                1.0832         estimate D2E/DX2                !
 ! R42   R(23,24)                1.3643         estimate D2E/DX2                !
 ! R43   R(23,31)                1.3637         estimate D2E/DX2                !
 ! R44   R(24,25)                1.2686         estimate D2E/DX2                !
 ! R45   R(25,26)                1.3846         estimate D2E/DX2                !
 ! R46   R(26,27)                1.3956         estimate D2E/DX2                !
 ! R47   R(26,31)                1.3898         estimate D2E/DX2                !
 ! R48   R(27,28)                1.3719         estimate D2E/DX2                !
 ! R49   R(27,48)                1.0713         estimate D2E/DX2                !
 ! R50   R(28,29)                1.4143         estimate D2E/DX2                !
 ! R51   R(28,49)                1.0722         estimate D2E/DX2                !
 ! R52   R(29,30)                1.3731         estimate D2E/DX2                !
 ! R53   R(29,50)                1.0728         estimate D2E/DX2                !
 ! R54   R(30,31)                1.3983         estimate D2E/DX2                !
 ! R55   R(30,51)                1.0698         estimate D2E/DX2                !
 ! A1    A(2,1,32)             110.6514         estimate D2E/DX2                !
 ! A2    A(2,1,33)             110.6642         estimate D2E/DX2                !
 ! A3    A(2,1,34)             109.0642         estimate D2E/DX2                !
 ! A4    A(32,1,33)            109.2039         estimate D2E/DX2                !
 ! A5    A(32,1,34)            108.5996         estimate D2E/DX2                !
 ! A6    A(33,1,34)            108.6057         estimate D2E/DX2                !
 ! A7    A(1,2,3)              126.9312         estimate D2E/DX2                !
 ! A8    A(1,2,6)              126.3813         estimate D2E/DX2                !
 ! A9    A(3,2,6)              106.6868         estimate D2E/DX2                !
 ! A10   A(2,3,4)              111.4959         estimate D2E/DX2                !
 ! A11   A(2,3,35)             122.7646         estimate D2E/DX2                !
 ! A12   A(4,3,35)             125.7396         estimate D2E/DX2                !
 ! A13   A(3,4,5)              106.6091         estimate D2E/DX2                !
 ! A14   A(4,5,6)              108.7269         estimate D2E/DX2                !
 ! A15   A(4,5,7)              121.2015         estimate D2E/DX2                !
 ! A16   A(6,5,7)              130.0708         estimate D2E/DX2                !
 ! A17   A(2,6,5)              106.4812         estimate D2E/DX2                !
 ! A18   A(2,6,36)             121.6403         estimate D2E/DX2                !
 ! A19   A(5,6,36)             131.8751         estimate D2E/DX2                !
 ! A20   A(5,7,8)              119.9528         estimate D2E/DX2                !
 ! A21   A(5,7,12)             121.8607         estimate D2E/DX2                !
 ! A22   A(8,7,12)             118.1865         estimate D2E/DX2                !
 ! A23   A(7,8,9)              120.9606         estimate D2E/DX2                !
 ! A24   A(7,8,37)             118.8401         estimate D2E/DX2                !
 ! A25   A(9,8,37)             120.1985         estimate D2E/DX2                !
 ! A26   A(8,9,10)             120.3519         estimate D2E/DX2                !
 ! A27   A(8,9,38)             119.9027         estimate D2E/DX2                !
 ! A28   A(10,9,38)            119.7341         estimate D2E/DX2                !
 ! A29   A(9,10,11)            119.2022         estimate D2E/DX2                !
 ! A30   A(9,10,13)            120.5099         estimate D2E/DX2                !
 ! A31   A(11,10,13)           120.2388         estimate D2E/DX2                !
 ! A32   A(10,11,12)           120.3258         estimate D2E/DX2                !
 ! A33   A(10,11,39)           120.2109         estimate D2E/DX2                !
 ! A34   A(12,11,39)           119.462          estimate D2E/DX2                !
 ! A35   A(7,12,11)            120.9689         estimate D2E/DX2                !
 ! A36   A(7,12,40)            120.2663         estimate D2E/DX2                !
 ! A37   A(11,12,40)           118.7647         estimate D2E/DX2                !
 ! A38   A(10,13,14)           117.1721         estimate D2E/DX2                !
 ! A39   A(10,13,20)           119.1604         estimate D2E/DX2                !
 ! A40   A(14,13,20)           123.4144         estimate D2E/DX2                !
 ! A41   A(13,14,15)           114.9436         estimate D2E/DX2                !
 ! A42   A(13,14,41)           110.3782         estimate D2E/DX2                !
 ! A43   A(13,14,42)           105.8684         estimate D2E/DX2                !
 ! A44   A(15,14,41)           109.7702         estimate D2E/DX2                !
 ! A45   A(15,14,42)           109.1997         estimate D2E/DX2                !
 ! A46   A(41,14,42)           106.255          estimate D2E/DX2                !
 ! A47   A(14,15,16)           124.126          estimate D2E/DX2                !
 ! A48   A(14,15,19)           123.249          estimate D2E/DX2                !
 ! A49   A(16,15,19)           112.5923         estimate D2E/DX2                !
 ! A50   A(15,16,17)           113.8609         estimate D2E/DX2                !
 ! A51   A(15,16,43)           123.1196         estimate D2E/DX2                !
 ! A52   A(17,16,43)           123.0131         estimate D2E/DX2                !
 ! A53   A(16,17,18)           111.8697         estimate D2E/DX2                !
 ! A54   A(16,17,44)           128.2336         estimate D2E/DX2                !
 ! A55   A(18,17,44)           119.8966         estimate D2E/DX2                !
 ! A56   A(17,18,19)            89.2194         estimate D2E/DX2                !
 ! A57   A(15,19,18)           112.4548         estimate D2E/DX2                !
 ! A58   A(15,19,45)           128.0413         estimate D2E/DX2                !
 ! A59   A(18,19,45)           119.5039         estimate D2E/DX2                !
 ! A60   A(13,20,21)           122.53           estimate D2E/DX2                !
 ! A61   A(13,20,22)           118.2062         estimate D2E/DX2                !
 ! A62   A(21,20,22)           119.2363         estimate D2E/DX2                !
 ! A63   A(20,22,23)           112.1478         estimate D2E/DX2                !
 ! A64   A(20,22,46)           112.5396         estimate D2E/DX2                !
 ! A65   A(20,22,47)           108.4536         estimate D2E/DX2                !
 ! A66   A(23,22,46)           106.1076         estimate D2E/DX2                !
 ! A67   A(23,22,47)           109.8045         estimate D2E/DX2                !
 ! A68   A(46,22,47)           107.6758         estimate D2E/DX2                !
 ! A69   A(22,23,24)           118.6976         estimate D2E/DX2                !
 ! A70   A(22,23,31)           131.8487         estimate D2E/DX2                !
 ! A71   A(24,23,31)           109.4253         estimate D2E/DX2                !
 ! A72   A(23,24,25)           109.5431         estimate D2E/DX2                !
 ! A73   A(24,25,26)           108.8607         estimate D2E/DX2                !
 ! A74   A(25,26,27)           130.468          estimate D2E/DX2                !
 ! A75   A(25,26,31)           107.9691         estimate D2E/DX2                !
 ! A76   A(27,26,31)           121.5621         estimate D2E/DX2                !
 ! A77   A(26,27,28)           117.2177         estimate D2E/DX2                !
 ! A78   A(26,27,48)           120.4939         estimate D2E/DX2                !
 ! A79   A(28,27,48)           122.2884         estimate D2E/DX2                !
 ! A80   A(27,28,29)           120.9888         estimate D2E/DX2                !
 ! A81   A(27,28,49)           120.0481         estimate D2E/DX2                !
 ! A82   A(29,28,49)           118.9608         estimate D2E/DX2                !
 ! A83   A(28,29,30)           122.1764         estimate D2E/DX2                !
 ! A84   A(28,29,50)           118.67           estimate D2E/DX2                !
 ! A85   A(30,29,50)           119.1485         estimate D2E/DX2                !
 ! A86   A(29,30,31)           116.4992         estimate D2E/DX2                !
 ! A87   A(29,30,51)           121.7282         estimate D2E/DX2                !
 ! A88   A(31,30,51)           121.7254         estimate D2E/DX2                !
 ! A89   A(23,31,26)           104.1976         estimate D2E/DX2                !
 ! A90   A(23,31,30)           134.249          estimate D2E/DX2                !
 ! A91   A(26,31,30)           121.5509         estimate D2E/DX2                !
 ! D1    D(32,1,2,3)           119.2792         estimate D2E/DX2                !
 ! D2    D(32,1,2,6)           -60.3993         estimate D2E/DX2                !
 ! D3    D(33,1,2,3)          -119.5336         estimate D2E/DX2                !
 ! D4    D(33,1,2,6)            60.788          estimate D2E/DX2                !
 ! D5    D(34,1,2,3)            -0.1196         estimate D2E/DX2                !
 ! D6    D(34,1,2,6)          -179.798          estimate D2E/DX2                !
 ! D7    D(1,2,3,4)           -179.7622         estimate D2E/DX2                !
 ! D8    D(1,2,3,35)             0.2663         estimate D2E/DX2                !
 ! D9    D(6,2,3,4)             -0.0325         estimate D2E/DX2                !
 ! D10   D(6,2,3,35)           179.996          estimate D2E/DX2                !
 ! D11   D(1,2,6,5)            179.8143         estimate D2E/DX2                !
 ! D12   D(1,2,6,36)             0.4094         estimate D2E/DX2                !
 ! D13   D(3,2,6,5)              0.0827         estimate D2E/DX2                !
 ! D14   D(3,2,6,36)          -179.3223         estimate D2E/DX2                !
 ! D15   D(2,3,4,5)             -0.031          estimate D2E/DX2                !
 ! D16   D(35,3,4,5)           179.9396         estimate D2E/DX2                !
 ! D17   D(3,4,5,6)              0.0839         estimate D2E/DX2                !
 ! D18   D(3,4,5,7)            179.7853         estimate D2E/DX2                !
 ! D19   D(4,5,6,2)             -0.1028         estimate D2E/DX2                !
 ! D20   D(4,5,6,36)           179.2169         estimate D2E/DX2                !
 ! D21   D(7,5,6,2)           -179.769          estimate D2E/DX2                !
 ! D22   D(7,5,6,36)            -0.4494         estimate D2E/DX2                !
 ! D23   D(4,5,7,8)             -6.939          estimate D2E/DX2                !
 ! D24   D(4,5,7,12)           173.0766         estimate D2E/DX2                !
 ! D25   D(6,5,7,8)            172.6915         estimate D2E/DX2                !
 ! D26   D(6,5,7,12)            -7.2929         estimate D2E/DX2                !
 ! D27   D(5,7,8,9)            179.896          estimate D2E/DX2                !
 ! D28   D(5,7,8,37)             0.213          estimate D2E/DX2                !
 ! D29   D(12,7,8,9)            -0.119          estimate D2E/DX2                !
 ! D30   D(12,7,8,37)         -179.8021         estimate D2E/DX2                !
 ! D31   D(5,7,12,11)          179.5232         estimate D2E/DX2                !
 ! D32   D(5,7,12,40)           -0.5953         estimate D2E/DX2                !
 ! D33   D(8,7,12,11)           -0.4615         estimate D2E/DX2                !
 ! D34   D(8,7,12,40)          179.42           estimate D2E/DX2                !
 ! D35   D(7,8,9,10)             0.4938         estimate D2E/DX2                !
 ! D36   D(7,8,9,38)           179.269          estimate D2E/DX2                !
 ! D37   D(37,8,9,10)         -179.8275         estimate D2E/DX2                !
 ! D38   D(37,8,9,38)           -1.0523         estimate D2E/DX2                !
 ! D39   D(8,9,10,11)           -0.286          estimate D2E/DX2                !
 ! D40   D(8,9,10,13)         -177.7431         estimate D2E/DX2                !
 ! D41   D(38,9,10,11)        -179.0632         estimate D2E/DX2                !
 ! D42   D(38,9,10,13)           3.4796         estimate D2E/DX2                !
 ! D43   D(9,10,11,12)          -0.2901         estimate D2E/DX2                !
 ! D44   D(9,10,11,39)        -179.8845         estimate D2E/DX2                !
 ! D45   D(13,10,11,12)        177.1741         estimate D2E/DX2                !
 ! D46   D(13,10,11,39)         -2.4204         estimate D2E/DX2                !
 ! D47   D(9,10,13,14)         116.715          estimate D2E/DX2                !
 ! D48   D(9,10,13,20)         -57.7052         estimate D2E/DX2                !
 ! D49   D(11,10,13,14)        -60.7156         estimate D2E/DX2                !
 ! D50   D(11,10,13,20)        124.8641         estimate D2E/DX2                !
 ! D51   D(10,11,12,7)           0.6717         estimate D2E/DX2                !
 ! D52   D(10,11,12,40)       -179.2116         estimate D2E/DX2                !
 ! D53   D(39,11,12,7)        -179.7309         estimate D2E/DX2                !
 ! D54   D(39,11,12,40)          0.3859         estimate D2E/DX2                !
 ! D55   D(10,13,14,15)        120.3098         estimate D2E/DX2                !
 ! D56   D(10,13,14,41)       -114.8895         estimate D2E/DX2                !
 ! D57   D(10,13,14,42)         -0.3057         estimate D2E/DX2                !
 ! D58   D(20,13,14,15)        -65.5285         estimate D2E/DX2                !
 ! D59   D(20,13,14,41)         59.2721         estimate D2E/DX2                !
 ! D60   D(20,13,14,42)        173.8559         estimate D2E/DX2                !
 ! D61   D(10,13,20,21)         -5.7302         estimate D2E/DX2                !
 ! D62   D(10,13,20,22)        176.195          estimate D2E/DX2                !
 ! D63   D(14,13,20,21)       -179.7819         estimate D2E/DX2                !
 ! D64   D(14,13,20,22)          2.1432         estimate D2E/DX2                !
 ! D65   D(13,14,15,16)        -35.0084         estimate D2E/DX2                !
 ! D66   D(13,14,15,19)        147.2283         estimate D2E/DX2                !
 ! D67   D(41,14,15,16)       -160.1268         estimate D2E/DX2                !
 ! D68   D(41,14,15,19)         22.1099         estimate D2E/DX2                !
 ! D69   D(42,14,15,16)         83.761          estimate D2E/DX2                !
 ! D70   D(42,14,15,19)        -94.0023         estimate D2E/DX2                !
 ! D71   D(14,15,16,17)       -177.6573         estimate D2E/DX2                !
 ! D72   D(14,15,16,43)          3.2409         estimate D2E/DX2                !
 ! D73   D(19,15,16,17)          0.3168         estimate D2E/DX2                !
 ! D74   D(19,15,16,43)       -178.785          estimate D2E/DX2                !
 ! D75   D(14,15,19,18)        177.4321         estimate D2E/DX2                !
 ! D76   D(14,15,19,45)         -2.5472         estimate D2E/DX2                !
 ! D77   D(16,15,19,18)         -0.5625         estimate D2E/DX2                !
 ! D78   D(16,15,19,45)        179.4581         estimate D2E/DX2                !
 ! D79   D(15,16,17,18)          0.0814         estimate D2E/DX2                !
 ! D80   D(15,16,17,44)       -179.7821         estimate D2E/DX2                !
 ! D81   D(43,16,17,18)        179.1843         estimate D2E/DX2                !
 ! D82   D(43,16,17,44)         -0.6792         estimate D2E/DX2                !
 ! D83   D(16,17,18,19)         -0.325          estimate D2E/DX2                !
 ! D84   D(44,17,18,19)        179.5513         estimate D2E/DX2                !
 ! D85   D(17,18,19,15)          0.5101         estimate D2E/DX2                !
 ! D86   D(17,18,19,45)       -179.5085         estimate D2E/DX2                !
 ! D87   D(13,20,22,23)       -151.3029         estimate D2E/DX2                !
 ! D88   D(13,20,22,46)        -31.7489         estimate D2E/DX2                !
 ! D89   D(13,20,22,47)         87.267          estimate D2E/DX2                !
 ! D90   D(21,20,22,23)         30.5571         estimate D2E/DX2                !
 ! D91   D(21,20,22,46)        150.1112         estimate D2E/DX2                !
 ! D92   D(21,20,22,47)        -90.8729         estimate D2E/DX2                !
 ! D93   D(20,22,23,24)        108.0647         estimate D2E/DX2                !
 ! D94   D(20,22,23,31)        -74.1029         estimate D2E/DX2                !
 ! D95   D(46,22,23,24)        -15.1866         estimate D2E/DX2                !
 ! D96   D(46,22,23,31)        162.6459         estimate D2E/DX2                !
 ! D97   D(47,22,23,24)       -131.2839         estimate D2E/DX2                !
 ! D98   D(47,22,23,31)         46.5486         estimate D2E/DX2                !
 ! D99   D(22,23,24,25)        177.8647         estimate D2E/DX2                !
 ! D100  D(31,23,24,25)         -0.4234         estimate D2E/DX2                !
 ! D101  D(22,23,31,26)       -177.3443         estimate D2E/DX2                !
 ! D102  D(22,23,31,30)          2.0589         estimate D2E/DX2                !
 ! D103  D(24,23,31,26)          0.6397         estimate D2E/DX2                !
 ! D104  D(24,23,31,30)       -179.9571         estimate D2E/DX2                !
 ! D105  D(23,24,25,26)          0.0064         estimate D2E/DX2                !
 ! D106  D(24,25,26,27)       -179.251          estimate D2E/DX2                !
 ! D107  D(24,25,26,31)          0.4015         estimate D2E/DX2                !
 ! D108  D(25,26,27,28)        179.4005         estimate D2E/DX2                !
 ! D109  D(25,26,27,48)         -0.5889         estimate D2E/DX2                !
 ! D110  D(31,26,27,28)         -0.2116         estimate D2E/DX2                !
 ! D111  D(31,26,27,48)        179.799          estimate D2E/DX2                !
 ! D112  D(25,26,31,23)         -0.6282         estimate D2E/DX2                !
 ! D113  D(25,26,31,30)        179.8735         estimate D2E/DX2                !
 ! D114  D(27,26,31,23)        179.0615         estimate D2E/DX2                !
 ! D115  D(27,26,31,30)         -0.4368         estimate D2E/DX2                !
 ! D116  D(26,27,28,29)          0.5168         estimate D2E/DX2                !
 ! D117  D(26,27,28,49)        179.9606         estimate D2E/DX2                !
 ! D118  D(48,27,28,29)       -179.494          estimate D2E/DX2                !
 ! D119  D(48,27,28,49)         -0.0502         estimate D2E/DX2                !
 ! D120  D(27,28,29,30)         -0.1935         estimate D2E/DX2                !
 ! D121  D(27,28,29,50)        178.9779         estimate D2E/DX2                !
 ! D122  D(49,28,29,30)       -179.6432         estimate D2E/DX2                !
 ! D123  D(49,28,29,50)         -0.4718         estimate D2E/DX2                !
 ! D124  D(28,29,30,31)         -0.4387         estimate D2E/DX2                !
 ! D125  D(28,29,30,51)        177.1053         estimate D2E/DX2                !
 ! D126  D(50,29,30,31)       -179.6063         estimate D2E/DX2                !
 ! D127  D(50,29,30,51)         -2.0622         estimate D2E/DX2                !
 ! D128  D(29,30,31,23)       -178.5762         estimate D2E/DX2                !
 ! D129  D(29,30,31,26)          0.7448         estimate D2E/DX2                !
 ! D130  D(51,30,31,23)          3.8797         estimate D2E/DX2                !
 ! D131  D(51,30,31,26)       -176.7993         estimate D2E/DX2                !
 --------------------------------------------------------------------------------
 Trust Radius=3.00D-01 FncErr=1.00D-07 GrdErr=1.00D-06
 Number of steps in this run=    287 maximum allowed number of steps=    306.
 GradGradGradGradGradGradGradGradGradGradGradGradGradGradGradGradGradGrad

 Leave Link  103 at Sat Sep  3 18:26:06 2022, MaxMem=  209715200 cpu:       0.1
 (Enter /opt/gaussian/l202.exe)
 Stoichiometry    C23H20N6OS
 Framework group  C1[X(C23H20N6OS)]
 Deg. of freedom   147
 Full point group                 C1      NOp   1
 Largest Abelian subgroup         C1      NOp   1
 Largest concise Abelian subgroup C1      NOp   1
                         Standard orientation:                         
 ---------------------------------------------------------------------
 Center     Atomic      Atomic             Coordinates (Angstroms)
 Number     Number       Type             X           Y           Z
 ---------------------------------------------------------------------
      1          6           0       -8.748101   -0.740888    0.947720
      2          7           0       -7.427891   -0.944688    0.384160
      3          6           0       -7.058511   -1.904539   -0.504410
      4          7           0       -5.795411   -1.814519   -0.806220
      5          6           0       -5.291801   -0.742899   -0.086980
      6          6           0       -6.300050   -0.200509    0.654350
      7          6           0       -3.881411   -0.357280   -0.186670
      8          6           0       -2.989801   -1.157000   -0.900650
      9          6           0       -1.655061   -0.811840   -1.009920
     10          6           0       -1.175600    0.338480   -0.398230
     11          6           0       -2.052320    1.139630    0.318150
     12          6           0       -3.391050    0.797870    0.416030
     13          7           0        0.203300    0.727079   -0.549920
     14          6           0        0.470700    2.002429   -1.233120
     15          6           0        1.220941    3.022519   -0.407940
     16          6           0        1.057281    3.190669    1.022510
     17          6           0        1.788721    4.190609    1.538850
     18         16           0        2.753881    5.023898    0.287660
     19          6           0        2.086681    3.906339   -0.936550
     20          6           0        1.186530   -0.142031   -0.165910
     21          8           0        0.945239   -1.201471    0.398530
     22          6           0        2.634630    0.253648   -0.416750
     23          7           0        3.483739   -0.889842   -0.604890
     24          7           0        3.959899   -1.153492   -1.855890
     25          7           0        4.720529   -2.168002   -1.815370
     26          6           0        4.782369   -2.629252   -0.511370
     27          6           0        5.490168   -3.699093    0.038390
     28          6           0        5.362108   -3.908782    1.388120
     29          6           0        4.535949   -3.076862    2.179150
     30          6           0        3.830669   -2.026562    1.645370
     31          6           0        3.976859   -1.810922    0.271520
     32          1           0       -8.723281   -0.843018    2.023890
     33          1           0       -9.124860    0.239902    0.692120
     34          1           0       -9.421161   -1.483668    0.546780
     35          1           0       -7.740261   -2.627178   -0.889110
     36          1           0       -6.320050    0.616241    1.337480
     37          1           0       -3.356251   -2.045860   -1.370930
     38          1           0       -0.982851   -1.444410   -1.552410
     39          1           0       -1.699750    2.032670    0.795490
     40          1           0       -4.049620    1.442391    0.965700
     41          1           0        0.994720    1.828329   -2.165880
     42          1           0       -0.495760    2.402819   -1.499650
     43          1           0        0.423230    2.565629    1.615850
     44          1           0        1.845461    4.510509    2.554670
     45          1           0        2.393701    3.997978   -1.954970
     46          1           0        2.749730    0.858608   -1.297450
     47          1           0        2.982840    0.834168    0.428830
     48          1           0        6.103698   -4.321013   -0.581700
     49          1           0        5.885338   -4.718283    1.857690
     50          1           0        4.449989   -3.284622    3.228130
     51          1           0        3.172569   -1.429952    2.241570
 ---------------------------------------------------------------------
 Rotational constants (GHZ):      0.1713438      0.0648045      0.0509256
 Leave Link  202 at Sat Sep  3 18:26:06 2022, MaxMem=  209715200 cpu:       0.0
 (Enter /opt/gaussian/l301.exe)
 Standard basis: CC-pVDZ (5D, 7F)
 Ernie: Thresh=  0.10000D-02 Tol=  0.10000D-05 Strict=F.
 Ernie:  70 primitive shells out of 810 were deleted.
 There are   538 symmetry adapted basis functions of A   symmetry.
 Integral buffers will be    131072 words long.
 Raffenetti 2 integral format.
 Two-electron integral symmetry is turned on.
   538 basis functions,  1201 primitive gaussians,   569 cartesian basis functions
   112 alpha electrons      112 beta electrons
       nuclear repulsion energy      2910.5921531201 Hartrees.
 IExCor=  402 DFT=T Ex+Corr=B3LYP ExCW=0 ScaHFX=  0.200000
 ScaDFX=  0.800000  0.720000  1.000000  0.810000 ScalE2=  1.000000  1.000000
 IRadAn=      0 IRanWt=     -1 IRanGd=            0 ICorTp=0
 NAtoms=   51 NActive=   51 NUniq=   51 SFac= 1.00D+00 NAtFMM=   60 NAOKFM=F Big=F
 Leave Link  301 at Sat Sep  3 18:26:06 2022, MaxMem=  209715200 cpu:       0.3
 (Enter /opt/gaussian/l302.exe)
 NPDir=0 NMtPBC=     1 NCelOv=     1 NCel=       1 NClECP=     1 NCelD=      1
         NCelK=      1 NCelE2=     1 NClLst=     1 CellRange=     0.0.
 One-electron integrals computed using PRISM.
 NBasis=   538 RedAO= T  NBF=   538
 NBsUse=   538 1.00D-06 NBFU=   538
 Precomputing XC quadrature grid using
 IXCGrd= 2 IRadAn=           0 IRanWt=          -1 IRanGd=           0 AccXCQ= 0.00D+00.
 NRdTot=    3296 NPtTot=      421594 NUsed=      445342 NTot=      445374
 NSgBfM=   543   543   546   546   546 NAtAll=    51    51.
 Leave Link  302 at Sat Sep  3 18:26:07 2022, MaxMem=  209715200 cpu:       7.6
 (Enter /opt/gaussian/l303.exe)
 DipDrv:  MaxL=1.
 Leave Link  303 at Sat Sep  3 18:26:07 2022, MaxMem=  209715200 cpu:       1.1
 (Enter /opt/gaussian/l401.exe)
 Harris functional with IExCor=  402 diagonalized for initial guess.
 ExpMin= 1.22D-01 ExpMax= 1.11D+05 ExpMxC= 1.07D+03 IAcc=2 IRadAn=         4 AccDes= 0.00D+00
 HarFok:  IExCor=  402 AccDes= 0.00D+00 IRadAn=         4 IDoV= 1
 ScaDFX=  1.000000  1.000000  1.000000  1.000000
 FoFCou: FMM=F IPFlag=           0 FMFlag=      100000 FMFlg1=           0
         NFxFlg=           0 DoJE=T BraDBF=F KetDBF=T FulRan=T
         Omega=  0.000000  0.000000  1.000000  0.000000  0.000000 ICntrl=     500 IOpCl=  0
         NMat0=    1 NMatS0=    1 NMatT0=    0 NMatD0=    1 NMtDS0=    0 NMtDT0=    0
         I1Cent=           4 NGrid=           0.
 Petite list used in FoFCou.
 Harris En= -1690.25821114220    
 Initial guess orbital symmetries:
       Occupied  (A) (A) (A) (A) (A) (A) (A) (A) (A) (A) (A) (A)
                 (A) (A) (A) (A) (A) (A) (A) (A) (A) (A) (A) (A)
                 (A) (A) (A) (A) (A) (A) (A) (A) (A) (A) (A) (A)
                 (A) (A) (A) (A) (A) (A) (A) (A) (A) (A) (A) (A)
                 (A) (A) (A) (A) (A) (A) (A) (A) (A) (A) (A) (A)
                 (A) (A) (A) (A) (A) (A) (A) (A) (A) (A) (A) (A)
                 (A) (A) (A) (A) (A) (A) (A) (A) (A) (A) (A) (A)
                 (A) (A) (A) (A) (A) (A) (A) (A) (A) (A) (A) (A)
                 (A) (A) (A) (A) (A) (A) (A) (A) (A) (A) (A) (A)
                 (A) (A) (A) (A)
       Virtual   (A) (A) (A) (A) (A) (A) (A) (A) (A) (A) (A) (A)
                 (A) (A) (A) (A) (A) (A) (A) (A) (A) (A) (A) (A)
                 (A) (A) (A) (A) (A) (A) (A) (A) (A) (A) (A) (A)
                 (A) (A) (A) (A) (A) (A) (A) (A) (A) (A) (A) (A)
                 (A) (A) (A) (A) (A) (A) (A) (A) (A) (A) (A) (A)
                 (A) (A) (A) (A) (A) (A) (A) (A) (A) (A) (A) (A)
                 (A) (A) (A) (A) (A) (A) (A) (A) (A) (A) (A) (A)
                 (A) (A) (A) (A) (A) (A) (A) (A) (A) (A) (A) (A)
                 (A) (A) (A) (A) (A) (A) (A) (A) (A) (A) (A) (A)
                 (A) (A) (A) (A) (A) (A) (A) (A) (A) (A) (A) (A)
                 (A) (A) (A) (A) (A) (A) (A) (A) (A) (A) (A) (A)
                 (A) (A) (A) (A) (A) (A) (A) (A) (A) (A) (A) (A)
                 (A) (A) (A) (A) (A) (A) (A) (A) (A) (A) (A) (A)
                 (A) (A) (A) (A) (A) (A) (A) (A) (A) (A) (A) (A)
                 (A) (A) (A) (A) (A) (A) (A) (A) (A) (A) (A) (A)
                 (A) (A) (A) (A) (A) (A) (A) (A) (A) (A) (A) (A)
                 (A) (A) (A) (A) (A) (A) (A) (A) (A) (A) (A) (A)
                 (A) (A) (A) (A) (A) (A) (A) (A) (A) (A) (A) (A)
                 (A) (A) (A) (A) (A) (A) (A) (A) (A) (A) (A) (A)
                 (A) (A) (A) (A) (A) (A) (A) (A) (A) (A) (A) (A)
                 (A) (A) (A) (A) (A) (A) (A) (A) (A) (A) (A) (A)
                 (A) (A) (A) (A) (A) (A) (A) (A) (A) (A) (A) (A)
                 (A) (A) (A) (A) (A) (A) (A) (A) (A) (A) (A) (A)
                 (A) (A) (A) (A) (A) (A) (A) (A) (A) (A) (A) (A)
                 (A) (A) (A) (A) (A) (A) (A) (A) (A) (A) (A) (A)
                 (A) (A) (A) (A) (A) (A) (A) (A) (A) (A) (A) (A)
                 (A) (A) (A) (A) (A) (A) (A) (A) (A) (A) (A) (A)
                 (A) (A) (A) (A) (A) (A) (A) (A) (A) (A) (A) (A)
                 (A) (A) (A) (A) (A) (A) (A) (A) (A) (A) (A) (A)
                 (A) (A) (A) (A) (A) (A) (A) (A) (A) (A) (A) (A)
                 (A) (A) (A) (A) (A) (A) (A) (A) (A) (A) (A) (A)
                 (A) (A) (A) (A) (A) (A) (A) (A) (A) (A) (A) (A)
                 (A) (A) (A) (A) (A) (A) (A) (A) (A) (A) (A) (A)
                 (A) (A) (A) (A) (A) (A) (A) (A) (A) (A) (A) (A)
                 (A) (A) (A) (A) (A) (A) (A) (A) (A) (A) (A) (A)
                 (A) (A) (A) (A) (A) (A)
 The electronic state of the initial guess is 1-A.
 Leave Link  401 at Sat Sep  3 18:26:10 2022, MaxMem=  209715200 cpu:      23.4
 (Enter /opt/gaussian/l502.exe)
 Closed shell SCF:
 Requested convergence on RMS density matrix=1.00D-08 within 128 cycles.
 Requested convergence on MAX density matrix=1.00D-06.
 Requested convergence on             energy=1.00D-06.
 No special actions if energy rises.
 Using DIIS extrapolation, IDIIS=  1040.
 Integral symmetry usage will be decided dynamically.
       444870 words used for storage of precomputed grid.
 IEnd=     1443153 IEndB=     1443153 NGot=   209715200 MDV=   208613018
 LenX=   208613018 LenY=   208288688
 Fock matrices will be formed incrementally for  20 cycles.
 Integral accuracy reduced to 1.0D-05 until final iterations.

 Cycle   1  Pass 0  IDiag  1:
 FoFCou: FMM=F IPFlag=           0 FMFlag=      100000 FMFlg1=           0
         NFxFlg=           0 DoJE=F BraDBF=F KetDBF=F FulRan=T
         Omega=  0.000000  0.000000  1.000000  0.000000  0.000000 ICntrl=       0 IOpCl=  0
         NMat0=    1 NMatS0=    1 NMatT0=    0 NMatD0=    1 NMtDS0=    0 NMtDT0=    0
         I1Cent=           0 NGrid=           0.
 Symmetry not used in FoFCou.
 E= -1689.75626116268    
 DIIS: error= 2.39D-02 at cycle   1 NSaved=   1.
 NSaved= 1 IEnMin= 1 EnMin= -1689.75626116268     IErMin= 1 ErrMin= 2.39D-02
 ErrMax= 2.39D-02 EMaxC= 1.00D-01 BMatC= 6.39D-01 BMatP= 6.39D-01
 IDIUse=3 WtCom= 7.61D-01 WtEn= 2.39D-01
 Coeff-Com:  0.100D+01
 Coeff-En:   0.100D+01
 Coeff:      0.100D+01
 Gap=     0.344 Goal=   None    Shift=    0.000
 GapD=    0.344 DampG=1.000 DampE=0.500 DampFc=0.5000 IDamp=-1.
 Damping current iteration by 5.00D-01
 RMSDP=4.37D-03 MaxDP=2.10D-01              OVMax= 3.19D-01

 Cycle   2  Pass 0  IDiag  1:
 RMSU=  1.53D-03    CP:  9.80D-01
 E= -1689.92604405057     Delta-E=       -0.169782887891 Rises=F Damp=T
 DIIS: error= 8.91D-03 at cycle   2 NSaved=   2.
 NSaved= 2 IEnMin= 2 EnMin= -1689.92604405057     IErMin= 2 ErrMin= 8.91D-03
 ErrMax= 8.91D-03 EMaxC= 1.00D-01 BMatC= 1.25D-01 BMatP= 6.39D-01
 IDIUse=3 WtCom= 9.11D-01 WtEn= 8.91D-02
 Coeff-Com:  0.245D+00 0.755D+00
 Coeff-En:   0.371D+00 0.629D+00
 Coeff:      0.257D+00 0.743D+00
 Gap=     0.265 Goal=   None    Shift=    0.000
 RMSDP=1.51D-03 MaxDP=7.44D-02 DE=-1.70D-01 OVMax= 3.17D-01

 Cycle   3  Pass 0  IDiag  1:
 RMSU=  9.72D-04    CP:  9.65D-01  7.37D-01
 E= -1690.37491552709     Delta-E=       -0.448871476521 Rises=F Damp=F
 DIIS: error= 1.04D-02 at cycle   3 NSaved=   3.
 NSaved= 3 IEnMin= 3 EnMin= -1690.37491552709     IErMin= 2 ErrMin= 8.91D-03
 ErrMax= 1.04D-02 EMaxC= 1.00D-01 BMatC= 9.15D-02 BMatP= 1.25D-01
 IDIUse=3 WtCom= 8.96D-01 WtEn= 1.04D-01
 Coeff-Com:  0.769D-01 0.452D+00 0.471D+00
 Coeff-En:   0.000D+00 0.000D+00 0.100D+01
 Coeff:      0.689D-01 0.405D+00 0.526D+00
 Gap=     0.176 Goal=   None    Shift=    0.000
 RMSDP=7.52D-04 MaxDP=5.96D-02 DE=-4.49D-01 OVMax= 7.84D-02

 Cycle   4  Pass 0  IDiag  1:
 RMSU=  4.09D-04    CP:  9.69D-01  8.14D-01  6.75D-01
 E= -1690.44001543012     Delta-E=       -0.065099903029 Rises=F Damp=F
 DIIS: error= 4.94D-03 at cycle   4 NSaved=   4.
 NSaved= 4 IEnMin= 4 EnMin= -1690.44001543012     IErMin= 4 ErrMin= 4.94D-03
 ErrMax= 4.94D-03 EMaxC= 1.00D-01 BMatC= 2.20D-02 BMatP= 9.15D-02
 IDIUse=3 WtCom= 9.51D-01 WtEn= 4.94D-02
 Coeff-Com:  0.203D-01 0.139D+00 0.340D+00 0.501D+00
 Coeff-En:   0.000D+00 0.000D+00 0.219D+00 0.781D+00
 Coeff:      0.193D-01 0.132D+00 0.334D+00 0.515D+00
 Gap=     0.181 Goal=   None    Shift=    0.000
 RMSDP=3.48D-04 MaxDP=2.30D-02 DE=-6.51D-02 OVMax= 4.07D-02

 Cycle   5  Pass 0  IDiag  1:
 RMSU=  1.54D-04    CP:  9.68D-01  7.91D-01  7.35D-01  5.61D-01
 E= -1690.45731146980     Delta-E=       -0.017296039681 Rises=F Damp=F
 DIIS: error= 2.14D-03 at cycle   5 NSaved=   5.
 NSaved= 5 IEnMin= 5 EnMin= -1690.45731146980     IErMin= 5 ErrMin= 2.14D-03
 ErrMax= 2.14D-03 EMaxC= 1.00D-01 BMatC= 2.64D-03 BMatP= 2.20D-02
 IDIUse=3 WtCom= 9.79D-01 WtEn= 2.14D-02
 Coeff-Com:  0.405D-02 0.238D-01 0.150D+00 0.342D+00 0.480D+00
 Coeff-En:   0.000D+00 0.000D+00 0.000D+00 0.113D+00 0.887D+00
 Coeff:      0.396D-02 0.233D-01 0.147D+00 0.338D+00 0.489D+00
 Gap=     0.179 Goal=   None    Shift=    0.000
 RMSDP=1.31D-04 MaxDP=6.85D-03 DE=-1.73D-02 OVMax= 1.44D-02

 Cycle   6  Pass 0  IDiag  1:
 RMSU=  4.00D-05    CP:  9.67D-01  7.89D-01  7.53D-01  6.54D-01  5.31D-01
 E= -1690.46001191006     Delta-E=       -0.002700440262 Rises=F Damp=F
 DIIS: error= 5.39D-04 at cycle   6 NSaved=   6.
 NSaved= 6 IEnMin= 6 EnMin= -1690.46001191006     IErMin= 6 ErrMin= 5.39D-04
 ErrMax= 5.39D-04 EMaxC= 1.00D-01 BMatC= 2.17D-04 BMatP= 2.64D-03
 IDIUse=3 WtCom= 9.95D-01 WtEn= 5.39D-03
 Coeff-Com:  0.506D-03-0.381D-02 0.468D-01 0.139D+00 0.289D+00 0.528D+00
 Coeff-En:   0.000D+00 0.000D+00 0.000D+00 0.000D+00 0.184D-01 0.982D+00
 Coeff:      0.503D-03-0.379D-02 0.465D-01 0.139D+00 0.287D+00 0.531D+00
 Gap=     0.177 Goal=   None    Shift=    0.000
 RMSDP=3.25D-05 MaxDP=2.01D-03 DE=-2.70D-03 OVMax= 4.06D-03

 Cycle   7  Pass 0  IDiag  1:
 RMSU=  1.48D-05    CP:  9.67D-01  7.90D-01  7.53D-01  6.47D-01  5.78D-01
                    CP:  6.10D-01
 E= -1690.46021682918     Delta-E=       -0.000204919121 Rises=F Damp=F
 DIIS: error= 1.41D-04 at cycle   7 NSaved=   7.
 NSaved= 7 IEnMin= 7 EnMin= -1690.46021682918     IErMin= 7 ErrMin= 1.41D-04
 ErrMax= 1.41D-04 EMaxC= 1.00D-01 BMatC= 2.17D-05 BMatP= 2.17D-04
 IDIUse=3 WtCom= 9.99D-01 WtEn= 1.41D-03
 Coeff-Com:  0.856D-04-0.457D-02 0.112D-01 0.419D-01 0.110D+00 0.303D+00
 Coeff-Com:  0.538D+00
 Coeff-En:   0.000D+00 0.000D+00 0.000D+00 0.000D+00 0.000D+00 0.341D-01
 Coeff-En:   0.966D+00
 Coeff:      0.855D-04-0.456D-02 0.112D-01 0.418D-01 0.110D+00 0.303D+00
 Coeff:      0.538D+00
 Gap=     0.178 Goal=   None    Shift=    0.000
 RMSDP=9.63D-06 MaxDP=5.91D-04 DE=-2.05D-04 OVMax= 9.77D-04

 Initial convergence to 1.0D-05 achieved.  Increase integral accuracy.
 Cycle   8  Pass 1  IDiag  1:
 E= -1690.46039761509     Delta-E=       -0.000180785907 Rises=F Damp=F
 DIIS: error= 1.68D-04 at cycle   1 NSaved=   1.
 NSaved= 1 IEnMin= 1 EnMin= -1690.46039761509     IErMin= 1 ErrMin= 1.68D-04
 ErrMax= 1.68D-04 EMaxC= 1.00D-01 BMatC= 1.27D-05 BMatP= 1.27D-05
 IDIUse=3 WtCom= 9.98D-01 WtEn= 1.68D-03
 Coeff-Com:  0.100D+01
 Coeff-En:   0.100D+01
 Coeff:      0.100D+01
 Gap=     0.178 Goal=   None    Shift=    0.000
 RMSDP=9.63D-06 MaxDP=5.91D-04 DE=-1.81D-04 OVMax= 7.63D-04

 Cycle   9  Pass 1  IDiag  1:
 RMSU=  9.19D-05    CP:  1.00D+00
 E= -1690.46040428820     Delta-E=       -0.000006673104 Rises=F Damp=F
 DIIS: error= 7.83D-05 at cycle   2 NSaved=   2.
 NSaved= 2 IEnMin= 2 EnMin= -1690.46040428820     IErMin= 2 ErrMin= 7.83D-05
 ErrMax= 7.83D-05 EMaxC= 1.00D-01 BMatC= 6.32D-06 BMatP= 1.27D-05
 IDIUse=1 WtCom= 1.00D+00 WtEn= 0.00D+00
 Coeff-Com:  0.371D+00 0.629D+00
 Coeff:      0.371D+00 0.629D+00
 Gap=     0.178 Goal=   None    Shift=    0.000
 RMSDP=8.68D-06 MaxDP=6.66D-04 DE=-6.67D-06 OVMax= 1.05D-03

 Cycle  10  Pass 1  IDiag  1:
 RMSU=  6.13D-06    CP:  1.00D+00  1.00D+00
 E= -1690.46040409475     Delta-E=        0.000000193444 Rises=F Damp=F
 DIIS: error= 7.58D-05 at cycle   3 NSaved=   3.
 NSaved= 3 IEnMin= 2 EnMin= -1690.46040428820     IErMin= 3 ErrMin= 7.58D-05
 ErrMax= 7.58D-05 EMaxC= 1.00D-01 BMatC= 6.64D-06 BMatP= 6.32D-06
 IDIUse=1 WtCom= 1.00D+00 WtEn= 0.00D+00
 Coeff-Com:  0.512D-02 0.505D+00 0.490D+00
 Coeff:      0.512D-02 0.505D+00 0.490D+00
 Gap=     0.178 Goal=   None    Shift=    0.000
 RMSDP=4.61D-06 MaxDP=3.86D-04 DE= 1.93D-07 OVMax= 5.30D-04

 Cycle  11  Pass 1  IDiag  1:
 RMSU=  8.77D-07    CP:  1.00D+00  1.01D+00  4.96D-01
 E= -1690.46040976411     Delta-E=       -0.000005669357 Rises=F Damp=F
 DIIS: error= 1.27D-05 at cycle   4 NSaved=   4.
 NSaved= 4 IEnMin= 4 EnMin= -1690.46040976411     IErMin= 4 ErrMin= 1.27D-05
 ErrMax= 1.27D-05 EMaxC= 1.00D-01 BMatC= 1.74D-07 BMatP= 6.32D-06
 IDIUse=1 WtCom= 1.00D+00 WtEn= 0.00D+00
 Coeff-Com: -0.352D-02 0.320D+00 0.322D+00 0.361D+00
 Coeff:     -0.352D-02 0.320D+00 0.322D+00 0.361D+00
 Gap=     0.178 Goal=   None    Shift=    0.000
 RMSDP=7.90D-07 MaxDP=4.16D-05 DE=-5.67D-06 OVMax= 9.65D-05

 Cycle  12  Pass 1  IDiag  1:
 RMSU=  2.38D-07    CP:  1.00D+00  1.01D+00  5.04D-01  4.26D-01
 E= -1690.46040992747     Delta-E=       -0.000000163358 Rises=F Damp=F
 DIIS: error= 1.74D-06 at cycle   5 NSaved=   5.
 NSaved= 5 IEnMin= 5 EnMin= -1690.46040992747     IErMin= 5 ErrMin= 1.74D-06
 ErrMax= 1.74D-06 EMaxC= 1.00D-01 BMatC= 3.68D-09 BMatP= 1.74D-07
 IDIUse=1 WtCom= 1.00D+00 WtEn= 0.00D+00
 Coeff-Com: -0.223D-02 0.168D+00 0.169D+00 0.212D+00 0.453D+00
 Coeff:     -0.223D-02 0.168D+00 0.169D+00 0.212D+00 0.453D+00
 Gap=     0.178 Goal=   None    Shift=    0.000
 RMSDP=1.43D-07 MaxDP=6.08D-06 DE=-1.63D-07 OVMax= 1.52D-05

 Cycle  13  Pass 1  IDiag  1:
 RMSU=  7.48D-08    CP:  1.00D+00  1.01D+00  5.04D-01  4.52D-01  7.29D-01
 E= -1690.46040993110     Delta-E=       -0.000000003636 Rises=F Damp=F
 DIIS: error= 6.56D-07 at cycle   6 NSaved=   6.
 NSaved= 6 IEnMin= 6 EnMin= -1690.46040993110     IErMin= 6 ErrMin= 6.56D-07
 ErrMax= 6.56D-07 EMaxC= 1.00D-01 BMatC= 2.37D-10 BMatP= 3.68D-09
 IDIUse=1 WtCom= 1.00D+00 WtEn= 0.00D+00
 Coeff-Com: -0.839D-03 0.576D-01 0.583D-01 0.765D-01 0.248D+00 0.561D+00
 Coeff:     -0.839D-03 0.576D-01 0.583D-01 0.765D-01 0.248D+00 0.561D+00
 Gap=     0.178 Goal=   None    Shift=    0.000
 RMSDP=3.61D-08 MaxDP=1.86D-06 DE=-3.64D-09 OVMax= 3.61D-06

 Cycle  14  Pass 1  IDiag  1:
 RMSU=  2.00D-08    CP:  1.00D+00  1.01D+00  5.04D-01  4.54D-01  7.63D-01
                    CP:  8.24D-01
 E= -1690.46040993125     Delta-E=       -0.000000000148 Rises=F Damp=F
 DIIS: error= 2.37D-07 at cycle   7 NSaved=   7.
 NSaved= 7 IEnMin= 7 EnMin= -1690.46040993125     IErMin= 7 ErrMin= 2.37D-07
 ErrMax= 2.37D-07 EMaxC= 1.00D-01 BMatC= 3.29D-11 BMatP= 2.37D-10
 IDIUse=1 WtCom= 1.00D+00 WtEn= 0.00D+00
 Coeff-Com: -0.224D-03 0.136D-01 0.137D-01 0.190D-01 0.932D-01 0.325D+00
 Coeff-Com:  0.535D+00
 Coeff:     -0.224D-03 0.136D-01 0.137D-01 0.190D-01 0.932D-01 0.325D+00
 Coeff:      0.535D+00
 Gap=     0.178 Goal=   None    Shift=    0.000
 RMSDP=1.56D-08 MaxDP=6.96D-07 DE=-1.48D-10 OVMax= 1.75D-06

 Cycle  15  Pass 1  IDiag  1:
 RMSU=  8.20D-09    CP:  1.00D+00  1.01D+00  5.04D-01  4.54D-01  7.71D-01
                    CP:  8.59D-01  6.75D-01
 E= -1690.46040993129     Delta-E=       -0.000000000043 Rises=F Damp=F
 DIIS: error= 1.11D-07 at cycle   8 NSaved=   8.
 NSaved= 8 IEnMin= 8 EnMin= -1690.46040993129     IErMin= 8 ErrMin= 1.11D-07
 ErrMax= 1.11D-07 EMaxC= 1.00D-01 BMatC= 6.64D-12 BMatP= 3.29D-11
 IDIUse=1 WtCom= 1.00D+00 WtEn= 0.00D+00
 Coeff-Com:  0.304D-04-0.319D-02-0.332D-02-0.380D-02 0.935D-02 0.917D-01
 Coeff-Com:  0.344D+00 0.565D+00
 Coeff:      0.304D-04-0.319D-02-0.332D-02-0.380D-02 0.935D-02 0.917D-01
 Coeff:      0.344D+00 0.565D+00
 Gap=     0.178 Goal=   None    Shift=    0.000
 RMSDP=6.31D-09 MaxDP=3.07D-07 DE=-4.27D-11 OVMax= 7.21D-07

 SCF Done:  E(RB3LYP) =  -1690.46040993     A.U. after   15 cycles
             Convg  =    0.6309D-08             -V/T =  2.0050
 KE= 1.682127276608D+03 PE=-9.772385959943D+03 EE= 3.489206120284D+03
 Leave Link  502 at Sat Sep  3 18:37:10 2022, MaxMem=  209715200 cpu:    5262.8
 (Enter /opt/gaussian/l601.exe)
 Copying SCF densities to generalized density rwf, IOpCl= 0 IROHF=0.

 **********************************************************************

            Population analysis using the SCF density.

 **********************************************************************

 Orbital symmetries:
       Occupied  (A) (A) (A) (A) (A) (A) (A) (A) (A) (A) (A) (A)
                 (A) (A) (A) (A) (A) (A) (A) (A) (A) (A) (A) (A)
                 (A) (A) (A) (A) (A) (A) (A) (A) (A) (A) (A) (A)
                 (A) (A) (A) (A) (A) (A) (A) (A) (A) (A) (A) (A)
                 (A) (A) (A) (A) (A) (A) (A) (A) (A) (A) (A) (A)
                 (A) (A) (A) (A) (A) (A) (A) (A) (A) (A) (A) (A)
                 (A) (A) (A) (A) (A) (A) (A) (A) (A) (A) (A) (A)
                 (A) (A) (A) (A) (A) (A) (A) (A) (A) (A) (A) (A)
                 (A) (A) (A) (A) (A) (A) (A) (A) (A) (A) (A) (A)
                 (A) (A) (A) (A)
       Virtual   (A) (A) (A) (A) (A) (A) (A) (A) (A) (A) (A) (A)
                 (A) (A) (A) (A) (A) (A) (A) (A) (A) (A) (A) (A)
                 (A) (A) (A) (A) (A) (A) (A) (A) (A) (A) (A) (A)
                 (A) (A) (A) (A) (A) (A) (A) (A) (A) (A) (A) (A)
                 (A) (A) (A) (A) (A) (A) (A) (A) (A) (A) (A) (A)
                 (A) (A) (A) (A) (A) (A) (A) (A) (A) (A) (A) (A)
                 (A) (A) (A) (A) (A) (A) (A) (A) (A) (A) (A) (A)
                 (A) (A) (A) (A) (A) (A) (A) (A) (A) (A) (A) (A)
                 (A) (A) (A) (A) (A) (A) (A) (A) (A) (A) (A) (A)
                 (A) (A) (A) (A) (A) (A) (A) (A) (A) (A) (A) (A)
                 (A) (A) (A) (A) (A) (A) (A) (A) (A) (A) (A) (A)
                 (A) (A) (A) (A) (A) (A) (A) (A) (A) (A) (A) (A)
                 (A) (A) (A) (A) (A) (A) (A) (A) (A) (A) (A) (A)
                 (A) (A) (A) (A) (A) (A) (A) (A) (A) (A) (A) (A)
                 (A) (A) (A) (A) (A) (A) (A) (A) (A) (A) (A) (A)
                 (A) (A) (A) (A) (A) (A) (A) (A) (A) (A) (A) (A)
                 (A) (A) (A) (A) (A) (A) (A) (A) (A) (A) (A) (A)
                 (A) (A) (A) (A) (A) (A) (A) (A) (A) (A) (A) (A)
                 (A) (A) (A) (A) (A) (A) (A) (A) (A) (A) (A) (A)
                 (A) (A) (A) (A) (A) (A) (A) (A) (A) (A) (A) (A)
                 (A) (A) (A) (A) (A) (A) (A) (A) (A) (A) (A) (A)
                 (A) (A) (A) (A) (A) (A) (A) (A) (A) (A) (A) (A)
                 (A) (A) (A) (A) (A) (A) (A) (A) (A) (A) (A) (A)
                 (A) (A) (A) (A) (A) (A) (A) (A) (A) (A) (A) (A)
                 (A) (A) (A) (A) (A) (A) (A) (A) (A) (A) (A) (A)
                 (A) (A) (A) (A) (A) (A) (A) (A) (A) (A) (A) (A)
                 (A) (A) (A) (A) (A) (A) (A) (A) (A) (A) (A) (A)
                 (A) (A) (A) (A) (A) (A) (A) (A) (A) (A) (A) (A)
                 (A) (A) (A) (A) (A) (A) (A) (A) (A) (A) (A) (A)
                 (A) (A) (A) (A) (A) (A) (A) (A) (A) (A) (A) (A)
                 (A) (A) (A) (A) (A) (A) (A) (A) (A) (A) (A) (A)
                 (A) (A) (A) (A) (A) (A) (A) (A) (A) (A) (A) (A)
                 (A) (A) (A) (A) (A) (A) (A) (A) (A) (A) (A) (A)
                 (A) (A) (A) (A) (A) (A) (A) (A) (A) (A) (A) (A)
                 (A) (A) (A) (A) (A) (A) (A) (A) (A) (A) (A) (A)
                 (A) (A) (A) (A) (A) (A)
 The electronic state is 1-A.
 Alpha  occ. eigenvalues --  -88.91770 -19.11006 -14.40061 -14.39614 -14.38011
 Alpha  occ. eigenvalues --  -14.37427 -14.33763 -14.30741 -10.29305 -10.24727
 Alpha  occ. eigenvalues --  -10.24715 -10.24203 -10.23927 -10.22802 -10.22676
 Alpha  occ. eigenvalues --  -10.22509 -10.21916 -10.21410 -10.21357 -10.20625
 Alpha  occ. eigenvalues --  -10.20441 -10.19846 -10.19585 -10.19190 -10.18965
 Alpha  occ. eigenvalues --  -10.18895 -10.18654 -10.18581 -10.18520 -10.18191
 Alpha  occ. eigenvalues --  -10.18010  -7.97841  -5.94188  -5.93822  -5.93444
 Alpha  occ. eigenvalues --   -1.09345  -1.04513  -1.02962  -0.95576  -0.91953
 Alpha  occ. eigenvalues --   -0.89755  -0.88808  -0.86213  -0.86004  -0.79028
 Alpha  occ. eigenvalues --   -0.77730  -0.77103  -0.76332  -0.75621  -0.75037
 Alpha  occ. eigenvalues --   -0.74429  -0.73886  -0.71719  -0.69708  -0.64887
 Alpha  occ. eigenvalues --   -0.64217  -0.62322  -0.61862  -0.60178  -0.59141
 Alpha  occ. eigenvalues --   -0.58371  -0.58038  -0.56719  -0.55355  -0.54628
 Alpha  occ. eigenvalues --   -0.52946  -0.52257  -0.52250  -0.51130  -0.50643
 Alpha  occ. eigenvalues --   -0.48806  -0.48110  -0.47400  -0.46499  -0.46111
 Alpha  occ. eigenvalues --   -0.45173  -0.45090  -0.44653  -0.44262  -0.43949
 Alpha  occ. eigenvalues --   -0.43011  -0.42853  -0.42763  -0.42121  -0.41892
 Alpha  occ. eigenvalues --   -0.41392  -0.40938  -0.40184  -0.39272  -0.38116
 Alpha  occ. eigenvalues --   -0.37981  -0.37154  -0.36937  -0.36788  -0.35954
 Alpha  occ. eigenvalues --   -0.35260  -0.35123  -0.34845  -0.32541  -0.30505
 Alpha  occ. eigenvalues --   -0.29787  -0.27272  -0.27014  -0.26496  -0.26288
 Alpha  occ. eigenvalues --   -0.25783  -0.25442  -0.25353  -0.24952  -0.24325
 Alpha  occ. eigenvalues --   -0.22552  -0.21149
 Alpha virt. eigenvalues --   -0.03366  -0.02969  -0.02740  -0.00911   0.00858
 Alpha virt. eigenvalues --    0.01319   0.02136   0.02586   0.03556   0.04638
 Alpha virt. eigenvalues --    0.04670   0.05481   0.06498   0.07482   0.07614
 Alpha virt. eigenvalues --    0.08120   0.08452   0.08540   0.09481   0.09859
 Alpha virt. eigenvalues --    0.10499   0.11298   0.11714   0.11995   0.12142
 Alpha virt. eigenvalues --    0.12464   0.13024   0.13880   0.14371   0.15227
 Alpha virt. eigenvalues --    0.16023   0.16219   0.16450   0.17520   0.17790
 Alpha virt. eigenvalues --    0.18123   0.19303   0.20885   0.21418   0.22041
 Alpha virt. eigenvalues --    0.22866   0.23550   0.25061   0.25841   0.26055
 Alpha virt. eigenvalues --    0.26689   0.27323   0.27977   0.28769   0.28799
 Alpha virt. eigenvalues --    0.29401   0.30816   0.31332   0.31897   0.32532
 Alpha virt. eigenvalues --    0.34020   0.34689   0.36191   0.36351   0.37022
 Alpha virt. eigenvalues --    0.37975   0.38039   0.39361   0.40212   0.40838
 Alpha virt. eigenvalues --    0.41822   0.41967   0.43012   0.43173   0.43841
 Alpha virt. eigenvalues --    0.44597   0.45445   0.46033   0.46093   0.46146
 Alpha virt. eigenvalues --    0.46455   0.46771   0.47092   0.47452   0.47707
 Alpha virt. eigenvalues --    0.47957   0.48257   0.48975   0.49151   0.49551
 Alpha virt. eigenvalues --    0.49800   0.50465   0.50550   0.51015   0.51215
 Alpha virt. eigenvalues --    0.51546   0.51998   0.52146   0.52858   0.53069
 Alpha virt. eigenvalues --    0.53557   0.53583   0.54508   0.54799   0.55204
 Alpha virt. eigenvalues --    0.56076   0.56303   0.56523   0.56840   0.57025
 Alpha virt. eigenvalues --    0.57763   0.58609   0.58819   0.59244   0.59800
 Alpha virt. eigenvalues --    0.60516   0.60598   0.60808   0.61228   0.61449
 Alpha virt. eigenvalues --    0.61689   0.62167   0.62740   0.63348   0.63619
 Alpha virt. eigenvalues --    0.64057   0.64614   0.64945   0.65312   0.65829
 Alpha virt. eigenvalues --    0.66272   0.66696   0.67236   0.67709   0.68016
 Alpha virt. eigenvalues --    0.68209   0.69179   0.69340   0.70294   0.70522
 Alpha virt. eigenvalues --    0.70758   0.71479   0.72354   0.72708   0.73072
 Alpha virt. eigenvalues --    0.73883   0.74247   0.74518   0.74739   0.75986
 Alpha virt. eigenvalues --    0.76376   0.77647   0.78175   0.79475   0.80098
 Alpha virt. eigenvalues --    0.80663   0.82758   0.83748   0.84138   0.84220
 Alpha virt. eigenvalues --    0.84657   0.85388   0.86202   0.86594   0.87234
 Alpha virt. eigenvalues --    0.87568   0.88430   0.88928   0.89687   0.89865
 Alpha virt. eigenvalues --    0.90296   0.90539   0.91240   0.91887   0.92675
 Alpha virt. eigenvalues --    0.93864   0.94509   0.94861   0.95767   0.96705
 Alpha virt. eigenvalues --    0.97077   0.97668   0.98422   0.99077   1.00146
 Alpha virt. eigenvalues --    1.00336   1.00975   1.01115   1.01373   1.01518
 Alpha virt. eigenvalues --    1.02022   1.02618   1.03144   1.03607   1.04226
 Alpha virt. eigenvalues --    1.04491   1.05789   1.06006   1.06511   1.06861
 Alpha virt. eigenvalues --    1.07657   1.07748   1.07831   1.09356   1.09802
 Alpha virt. eigenvalues --    1.10052   1.11732   1.11911   1.12321   1.13350
 Alpha virt. eigenvalues --    1.14569   1.14993   1.17518   1.18169   1.18623
 Alpha virt. eigenvalues --    1.18910   1.19640   1.20238   1.20786   1.22018
 Alpha virt. eigenvalues --    1.22245   1.23572   1.24621   1.26166   1.27506
 Alpha virt. eigenvalues --    1.27763   1.29602   1.30868   1.31875   1.32463
 Alpha virt. eigenvalues --    1.32819   1.33647   1.34298   1.34680   1.35643
 Alpha virt. eigenvalues --    1.36605   1.37665   1.38711   1.39167   1.41266
 Alpha virt. eigenvalues --    1.42332   1.43251   1.43737   1.44132   1.45112
 Alpha virt. eigenvalues --    1.46054   1.46586   1.47805   1.48264   1.48990
 Alpha virt. eigenvalues --    1.50427   1.51300   1.51814   1.52491   1.53735
 Alpha virt. eigenvalues --    1.54298   1.55408   1.55484   1.56187   1.57040
 Alpha virt. eigenvalues --    1.57775   1.57939   1.58138   1.58558   1.58992
 Alpha virt. eigenvalues --    1.59670   1.59915   1.60126   1.61101   1.61529
 Alpha virt. eigenvalues --    1.61866   1.62161   1.62903   1.63944   1.64129
 Alpha virt. eigenvalues --    1.64488   1.64838   1.65690   1.66097   1.66492
 Alpha virt. eigenvalues --    1.66607   1.67217   1.67848   1.68328   1.68692
 Alpha virt. eigenvalues --    1.69274   1.70325   1.70665   1.71335   1.71737
 Alpha virt. eigenvalues --    1.72340   1.72431   1.73314   1.73913   1.74241
 Alpha virt. eigenvalues --    1.74642   1.75994   1.76093   1.76254   1.77241
 Alpha virt. eigenvalues --    1.77370   1.78402   1.78998   1.79507   1.80047
 Alpha virt. eigenvalues --    1.81087   1.81567   1.81728   1.82265   1.83032
 Alpha virt. eigenvalues --    1.83901   1.84290   1.84591   1.85291   1.86017
 Alpha virt. eigenvalues --    1.86195   1.87059   1.87430   1.88223   1.88962
 Alpha virt. eigenvalues --    1.89959   1.90226   1.91216   1.91892   1.93077
 Alpha virt. eigenvalues --    1.93578   1.93878   1.94614   1.95388   1.96283
 Alpha virt. eigenvalues --    1.96883   1.98279   1.99121   1.99922   2.00963
 Alpha virt. eigenvalues --    2.01060   2.01374   2.01717   2.02252   2.02702
 Alpha virt. eigenvalues --    2.03898   2.04437   2.05229   2.06549   2.06826
 Alpha virt. eigenvalues --    2.08109   2.08701   2.11092   2.11404   2.12868
 Alpha virt. eigenvalues --    2.13090   2.13809   2.14432   2.15434   2.16739
 Alpha virt. eigenvalues --    2.17823   2.18925   2.20219   2.22321   2.22340
 Alpha virt. eigenvalues --    2.22865   2.23497   2.24326   2.27327   2.28787
 Alpha virt. eigenvalues --    2.30551   2.32602   2.32995   2.33988   2.36185
 Alpha virt. eigenvalues --    2.37107   2.37557   2.39016   2.39243   2.40178
 Alpha virt. eigenvalues --    2.40577   2.42370   2.43403   2.44067   2.44547
 Alpha virt. eigenvalues --    2.45238   2.47442   2.47862   2.48315   2.49041
 Alpha virt. eigenvalues --    2.49646   2.49860   2.50375   2.51532   2.52482
 Alpha virt. eigenvalues --    2.54258   2.56454   2.57173   2.57333   2.58762
 Alpha virt. eigenvalues --    2.60769   2.61563   2.62016   2.64234   2.66101
 Alpha virt. eigenvalues --    2.66499   2.67899   2.70481   2.71736   2.72166
 Alpha virt. eigenvalues --    2.73567   2.75311   2.75722   2.77680   2.78812
 Alpha virt. eigenvalues --    2.79747   2.81703   2.82156   2.84182   2.89748
 Alpha virt. eigenvalues --    2.90715   2.95794   2.98960   3.00282   3.02648
 Alpha virt. eigenvalues --    3.05268   3.08964   3.09433   3.11822   3.12913
 Alpha virt. eigenvalues --    3.16011   3.20953   3.43726   3.49458   3.59847
 Alpha virt. eigenvalues --    3.61304
          Condensed to atoms (all electrons):
 Mulliken atomic charges:
              1
     1  C    0.104022
     2  N   -0.164465
     3  C    0.148920
     4  N   -0.222182
     5  C    0.082719
     6  C    0.031838
     7  C    0.020929
     8  C    0.062625
     9  C    0.119901
    10  C    0.065399
    11  C    0.068331
    12  C    0.000761
    13  N   -0.285433
    14  C    0.192699
    15  C   -0.054232
    16  C    0.072284
    17  C   -0.080409
    18  S    0.125734
    19  C   -0.131042
    20  C    0.116898
    21  O   -0.258876
    22  C    0.174745
    23  N   -0.231707
    24  N   -0.062352
    25  N   -0.182531
    26  C   -0.003324
    27  C    0.061679
    28  C    0.049024
    29  C    0.049348
    30  C    0.059087
    31  C    0.205924
    32  H    0.042175
    33  H    0.041215
    34  H    0.033457
    35  H   -0.008802
    36  H   -0.023463
    37  H   -0.043949
    38  H   -0.039373
    39  H   -0.058265
    40  H   -0.065854
    41  H    0.026194
    42  H    0.046849
    43  H   -0.017480
    44  H    0.006758
    45  H   -0.003253
    46  H    0.031476
    47  H    0.054173
    48  H   -0.036989
    49  H   -0.040954
    50  H   -0.038523
    51  H   -0.041709
 Sum of Mulliken atomic charges =   0.00000
 Mulliken charges with hydrogens summed into heavy atoms:
              1
     1  C    0.220869
     2  N   -0.164465
     3  C    0.140118
     4  N   -0.222182
     5  C    0.082719
     6  C    0.008374
     7  C    0.020929
     8  C    0.018676
     9  C    0.080528
    10  C    0.065399
    11  C    0.010066
    12  C   -0.065092
    13  N   -0.285433
    14  C    0.265741
    15  C   -0.054232
    16  C    0.054804
    17  C   -0.073651
    18  S    0.125734
    19  C   -0.134295
    20  C    0.116898
    21  O   -0.258876
    22  C    0.260393
    23  N   -0.231707
    24  N   -0.062352
    25  N   -0.182531
    26  C   -0.003324
    27  C    0.024690
    28  C    0.008070
    29  C    0.010825
    30  C    0.017379
    31  C    0.205924
 Sum of Mulliken charges with hydrogens summed into heavy atoms =   0.00000
 Electronic spatial extent (au):  <R**2>=          20058.6033
 Charge=              0.0000 electrons
 Dipole moment (field-independent basis, Debye):
    X=             -6.9725    Y=              4.6452    Z=              3.6327  Tot=              9.1318
 Quadrupole moment (field-independent basis, Debye-Ang):
   XX=           -137.3596   YY=           -182.9949   ZZ=           -182.4229
   XY=              5.5982   XZ=             -0.2314   YZ=             -4.5951
 Traceless Quadrupole moment (field-independent basis, Debye-Ang):
   XX=             30.2329   YY=            -15.4024   ZZ=            -14.8304
   XY=              5.5982   XZ=             -0.2314   YZ=             -4.5951
 Octapole moment (field-independent basis, Debye-Ang**2):
  XXX=           -678.9339  YYY=            -19.3964  ZZZ=             33.3220  XYY=             16.9874
  XXY=            -42.8508  XXZ=            150.1746  XZZ=            -16.7698  YZZ=             31.4433
  YYZ=             18.8595  XYZ=            -34.7416
 Hexadecapole moment (field-independent basis, Debye-Ang**3):
 XXXX=         -14128.3444 YYYY=          -6783.8800 ZZZZ=          -1298.3837 XXXY=            525.4919
 XXXZ=           -448.0533 YYYX=            -50.8728 YYYZ=             12.2618 ZZZX=             67.6556
 ZZZY=            -41.8341 XXYY=          -4058.0473 XXZZ=          -3526.4388 YYZZ=          -1227.4221
 XXYZ=           -155.8982 YYXZ=             71.0232 ZZXY=             79.3851
 N-N= 2.910592153120D+03 E-N=-9.772385969412D+03  KE= 1.682127276608D+03
 No NMR shielding tensors so no spin-rotation constants.
 Leave Link  601 at Sat Sep  3 18:37:11 2022, MaxMem=  209715200 cpu:       3.8
 (Enter /opt/gaussian/l701.exe)
 Compute integral first derivatives.
 ... and contract with generalized density number  0.
 Leave Link  701 at Sat Sep  3 18:37:11 2022, MaxMem=  209715200 cpu:       3.3
 (Enter /opt/gaussian/l702.exe)
 L702 exits ... SP integral derivatives will be done elsewhere.
 Leave Link  702 at Sat Sep  3 18:37:11 2022, MaxMem=  209715200 cpu:       0.2
 (Enter /opt/gaussian/l703.exe)
 Compute integral first derivatives, UseDBF=F ICtDFT=           0.
 Integral derivatives from FoFDir, PRISM(SPDF).
 Calling FoFJK, ICntrl=      2127 FMM=F ISym2X=0 I1Cent= 0 IOpClX= 0 NMat=1 NMatS=1 NMatT=0.
 FoFCou: FMM=F IPFlag=           0 FMFlag=      100000 FMFlg1=         800
         NFxFlg=           0 DoJE=F BraDBF=F KetDBF=F FulRan=T
         Omega=  0.000000  0.000000  1.000000  0.000000  0.000000 ICntrl=    2127 IOpCl=  0
         NMat0=    1 NMatS0=    1 NMatT0=    0 NMatD0=    1 NMtDS0=    0 NMtDT0=    0
         I1Cent=           0 NGrid=           0.
 Symmetry not used in FoFCou.
 Leave Link  703 at Sat Sep  3 18:40:57 2022, MaxMem=  209715200 cpu:    1798.8
 (Enter /opt/gaussian/l716.exe)
 Dipole        =-2.74318422D+00 1.82755361D+00 1.42922156D+00
 ***** Axes restored to original set *****
 -------------------------------------------------------------------
 Center     Atomic                   Forces (Hartrees/Bohr)
 Number     Number              X              Y              Z
 -------------------------------------------------------------------
      1        6           0.010676918   -0.001471884   -0.004430965
      2        7          -0.007019421    0.005673009    0.006787068
      3        6           0.006207330    0.008955563    0.005485577
      4        7           0.018160965   -0.004733592   -0.008882349
      5        6           0.006223992   -0.011165121   -0.011229832
      6        6          -0.011068048   -0.001592124    0.001519007
      7        6          -0.009283331   -0.002460348    0.000984955
      8        6           0.003454473    0.003037713    0.000791822
      9        6          -0.002845117   -0.000402469    0.002095436
     10        6           0.009768155    0.001726673   -0.001376069
     11        6          -0.002733876   -0.001481618   -0.000518957
     12        6           0.002984298   -0.000345531   -0.000923332
     13        7          -0.005446363    0.007539782   -0.003310847
     14        6           0.005326007   -0.002274332    0.012471684
     15        6          -0.012850468   -0.011789157    0.013069318
     16        6          -0.003037224   -0.007617845   -0.019388688
     17        6           0.019857669    0.019272377   -0.018348005
     18       16          -0.016167383   -0.019463705    0.000351117
     19        6           0.016242377    0.023777304    0.017274106
     20        6          -0.001636986   -0.014658081    0.008430279
     21        8          -0.000186788    0.001092792   -0.001105141
     22        6          -0.002324806   -0.006362707    0.000289537
     23        7          -0.000514185   -0.000092401   -0.000162367
     24        7          -0.009227860    0.014689047   -0.004760848
     25        7           0.014051875   -0.017501010   -0.004375790
     26        6           0.003302480    0.000084548   -0.015667472
     27        6          -0.001653902    0.002625004   -0.001417363
     28        6          -0.004851030    0.005047680    0.004714816
     29        6           0.005106394   -0.004950007   -0.003878226
     30        6          -0.000239931    0.001838431   -0.005032530
     31        6          -0.007405467    0.007073655    0.008825342
     32        1          -0.000068716   -0.000945050    0.013699308
     33        1          -0.005061237    0.012454334   -0.002775366
     34        1          -0.007933546   -0.009116194   -0.005021192
     35        1          -0.012012911   -0.011421731   -0.005761240
     36        1          -0.001567087    0.011972067    0.010369459
     37        1          -0.005595995   -0.011952844   -0.006252191
     38        1           0.009097901   -0.008104944   -0.007487025
     39        1           0.004766546    0.011693080    0.006143786
     40        1          -0.008586726    0.008234446    0.007207014
     41        1           0.006069897   -0.001930972   -0.011210917
     42        1          -0.011999417    0.004414746   -0.003374340
     43        1          -0.008808928   -0.008978250    0.008191255
     44        1           0.001572141    0.005613988    0.015183506
     45        1           0.005105603    0.002006435   -0.014797559
     46        1           0.002994601    0.008223077   -0.012090517
     47        1           0.004050671    0.007187205    0.009936840
     48        1           0.008205960   -0.008238397   -0.008514098
     49        1           0.006996400   -0.010835362    0.006308295
     50        1          -0.001201186   -0.002674902    0.013968498
     51        1          -0.008894717    0.008327624    0.007995202
 -------------------------------------------------------------------
 Cartesian Forces:  Max     0.023777304 RMS     0.008707511
 Leave Link  716 at Sat Sep  3 18:40:57 2022, MaxMem=  209715200 cpu:       0.2
 (Enter /opt/gaussian/l103.exe)

 GradGradGradGradGradGradGradGradGradGradGradGradGradGradGradGradGradGrad
 Berny optimization.
 Internal  Forces:  Max     0.021792528 RMS     0.005857154
 Search for a local minimum.
 Step number   1 out of a maximum of  287
 All quantities printed in internal units (Hartrees-Bohrs-Radians)
 RMS Force = .58572D-02 SwitMx=.10000D-02 MixMth= 1
 Mixed Optimization -- RFO/linear search
 Second derivative matrix not updated -- first step.
 ITU=  0
     Eigenvalues ---    0.00475   0.00615   0.00748   0.01032   0.01154
     Eigenvalues ---    0.01165   0.01207   0.01222   0.01232   0.01287
     Eigenvalues ---    0.01616   0.01630   0.01657   0.01830   0.01862
     Eigenvalues ---    0.01885   0.01935   0.02052   0.02083   0.02113
     Eigenvalues ---    0.02124   0.02158   0.02161   0.02177   0.02193
     Eigenvalues ---    0.02200   0.02224   0.02232   0.02233   0.02242
     Eigenvalues ---    0.02259   0.02261   0.02261   0.02266   0.02274
     Eigenvalues ---    0.02284   0.02291   0.02313   0.02350   0.02369
     Eigenvalues ---    0.02394   0.02525   0.04618   0.05120   0.06420
     Eigenvalues ---    0.06535   0.07446   0.07666   0.10001   0.10372
     Eigenvalues ---    0.13254   0.13526   0.15983   0.15997   0.15998
     Eigenvalues ---    0.15998   0.15999   0.15999   0.16000   0.16000
     Eigenvalues ---    0.16000   0.16000   0.16000   0.16000   0.16000
     Eigenvalues ---    0.16000   0.16000   0.16000   0.21993   0.22000
     Eigenvalues ---    0.22000   0.22008   0.22427   0.22591   0.22964
     Eigenvalues ---    0.23375   0.23505   0.23995   0.24017   0.24533
     Eigenvalues ---    0.24894   0.24923   0.24974   0.24979   0.24985
     Eigenvalues ---    0.24989   0.24996   0.24998   0.25000   0.25000
     Eigenvalues ---    0.25000   0.25000   0.26740   0.27022   0.30175
     Eigenvalues ---    0.31209   0.35521   0.35583   0.35614   0.35837
     Eigenvalues ---    0.35839   0.36046   0.36051   0.36278   0.36649
     Eigenvalues ---    0.36858   0.36878   0.36950   0.36957   0.37064
     Eigenvalues ---    0.37147   0.37193   0.37239   0.37254   0.37368
     Eigenvalues ---    0.37531   0.37675   0.37823   0.37874   0.38264
     Eigenvalues ---    0.39501   0.39505   0.40049   0.43039   0.43103
[...]
 .00000002,0.00000220,-0.00000083,-0.00000096,-0.00000291,0.00000128,-0
 .00000911,0.00000263,-0.00000554,-0.00000500,-0.00000234,0.00000130,0.
 00000256,0.00000016,-0.00000009,-0.00000010,0.00000135,0.00000202,-0.0
 0000051,0.00009303,-0.00007585,-0.00000760,-0.00001645,0.00001689,-0.0
 0002490,-0.12903730,0.13850478,-0.00000516,0.00000161,0.00000166,0.000
 00855,0.00000299,-0.00000079,0.00000058,-0.00000018,-0.00000022,0.0000
 0362,0.00000031,-0.00000070,-0.00000214,-0.00000212,-0.00000031,-0.000
 00352,-0.00000137,0.00000050,-0.00000400,-0.00000095,0.00000040,0.0000
 0061,-0.00000253,-0.00000126,-0.00000043,0.00000387,0.00000001,-0.0000
 1194,-0.00000487,0.00000270,0.00000216,0.00000031,0.00000109,0.0000015
 7,0.00000131,0.00000098,0.00002729,-0.00001512,0.00000249,-0.00000098,
 0.00000968,-0.00000488,-0.00000096,-0.00000478,-0.00000024,0.00000050,
 -0.00000398,-0.00000228,0.00000493,0.00000249,-0.00000073,-0.00000245,
 -0.00000191,-0.00000009,0.00000221,0.00000114,0.00000327,-0.00000184,0
 .00003771,-0.00002054,0.00000686,-0.00003095,0.00001851,-0.00002703,0.
 00017725,-0.00029292,-0.00060797,0.00062937,-0.00004416,-0.00009911,0.
 00003437,0.00023147,0.00041064,-0.00180565,0.00092923,-0.01033367,0.00
 862784,0.01219779,0.09551517,-0.07582437,-0.12526746,0.02025262,-0.018
 09907,-0.00806099,0.00085510,0.00284492,-0.00444960,-0.00040954,0.0003
 6112,-0.00061786,-0.00061284,0.00276425,-0.00103931,0.00000054,-0.0000
 0057,-0.00000077,0.00000072,-0.00000081,0.00000002,0.00000048,0.000000
 36,0.00000010,0.00000052,0.00000012,-0.00000002,-0.00000054,0.00000020
 ,0.00000004,-0.00000090,0.00000008,0.00000036,-0.00000156,-0.00000127,
 -0.00000066,-0.00000059,0.00000045,-0.00000041,0.00000077,-0.00000061,
 -0.00000066,-0.00000220,0.00000100,0.00000243,-0.00000079,-0.00000122,
 0.00000144,-0.00000271,0.00000130,-0.00000008,-0.00000055,0.00000178,0
 .00000008,-0.00000048,0.00000124,0.00000012,-0.00006026,0.00008024,0.0
 0001021,0.00002249,-0.00001756,-0.00000516,-0.10469750,0.08192615,0.12
 589520,0.00000616,-0.00000189,-0.00000278,-0.00001282,-0.00000845,-0.0
 0000022,-0.00000655,0.00000326,0.00000235,-0.00000216,-0.00000381,0.00
 000184,0.00000476,0.00000517,0.00000110,0.00000586,0.00000123,-0.00000
 031,0.00000424,0.00000120,0.00000003,0.00000070,0.00000392,0.00000227,
 -0.00000752,-0.00000628,0.00000333,0.00004845,0.00002012,-0.00000743,-
 0.00000941,-0.00000210,-0.00000209,-0.00000216,-0.00000403,-0.00000247
 ,-0.00008596,0.00002559,-0.00000653,-0.00000191,-0.00000791,0.00000925
 ,0.00000085,0.00000751,0.00000017,-0.00000310,0.00001047,0.00000068,-0
 .00001135,-0.00000172,-0.00000325,0.00000417,0.00000016,-0.00000016,-0
 .00000784,-0.00000038,-0.00000153,0.00010711,-0.00006495,0.00001870,-0
 .00003232,0.00003826,-0.00004538,0.00006222,-0.00007284,-0.00001455,-0
 .00004716,0.00000046,0.00002712,-0.00062078,-0.00084135,-0.00024577,0.
 00093671,0.00060744,0.00016895,0.00448478,0.00304446,0.00255605,0.0054
 6627,-0.00398336,0.00399775,-0.11782829,0.10938757,-0.06988527,-0.0070
 5158,0.01338861,-0.01237816,0.00047032,0.00388031,0.00346212,-0.000321
 14,-0.00047610,0.00074205,-0.00000062,0.00000110,0.00000097,-0.0000008
 5,0.00000091,0.00000042,-0.00000098,-0.00000048,-0.00000025,-0.0000016
 8,0.00000015,-0.00000037,0.00000098,-0.00000025,-0.00000108,-0.0000017
 4,-0.00000007,-0.00000142,0.00000441,0.00000527,0.00000183,0.00000257,
 -0.00000293,-0.00000025,-0.00000187,0.00000094,0.00000087,0.00000150,-
 0.00000167,0.00000373,-0.00000190,0.00000332,-0.00000004,0.00000892,-0
 .00000344,-0.00000054,0.00000286,-0.00000313,-0.00000086,0.00000188,-0
 .00000242,0.00000091,-0.00001260,-0.00000555,-0.00001824,0.00000162,-0
 .00003497,0.00005783,-0.00212465,-0.00262999,-0.00108996,0.11790470,-0
 .00001272,0.00000429,0.00000446,0.00002261,0.00000915,-0.00000150,0.00
 000321,-0.00000098,-0.00000090,0.00000813,0.00000010,-0.00000151,-0.00
 000550,-0.00000551,-0.00000129,-0.00000958,-0.00000359,0.00000084,-0.0
 0000830,-0.00000352,-0.00000050,0.00000044,-0.00000578,-0.00000187,0.0
 0000521,0.00001179,0.00000025,-0.00005504,-0.00002575,0.00000955,0.000
 01021,0.00000467,0.00000234,0.00000613,0.00000394,0.00000271,0.0001264
 0,-0.00009321,0.00001014,0.00001227,0.00003403,-0.00000927,0.00000043,
 -0.00001380,0.00000847,-0.00000192,-0.00001165,-0.00000304,0.00001083,
 0.00000793,-0.00000317,-0.00000980,-0.00001023,-0.00000226,0.00001207,
 0.00000664,0.00000305,-0.00013033,0.00022138,-0.00008478,0.00010937,-0
 .00011227,0.00012529,-0.00002786,0.00003880,-0.00002836,-0.00000694,0.
 00002878,-0.00016884,-0.00082521,-0.00061698,0.00008679,0.00087601,0.0
 0058293,0.00012418,0.00289178,0.00454545,0.00122630,0.00221899,0.00051
 553,-0.00024706,0.10948027,-0.18267107,0.10313849,0.00688341,-0.008673
 61,0.01080163,0.00403803,0.00143661,-0.00192780,-0.00036590,0.00004896
 ,-0.00071903,0.00000142,-0.00000139,-0.00000208,0.00000187,-0.00000211
 ,-0.00000004,0.00000127,0.00000085,0.00000009,0.00000133,0.00000050,-0
 .00000007,-0.00000107,0.00000036,0.00000049,-0.00000107,0.00000062,0.0
 0000056,-0.00000452,-0.00000454,-0.00000612,-0.00000195,0.00000120,-0.
 00000030,0.00000341,-0.00000176,-0.00000160,-0.00000453,-0.00000072,-0
 .00000599,0.00000173,-0.00000905,-0.00000210,-0.00000651,0.00000411,0.
 00000340,0.00000017,0.00000140,0.00000020,-0.00000074,0.00000344,-0.00
 000117,-0.00000146,-0.00000511,0.00000308,0.00002198,-0.00000555,0.000
 03176,-0.00274064,-0.00177086,-0.00060500,-0.12103146,0.18780521,0.000
 00646,-0.00000204,-0.00000215,-0.00001201,-0.00000611,0.00000015,-0.00
 000344,0.00000184,0.00000130,-0.00000352,-0.00000171,0.00000066,0.0000
 0350,0.00000388,0.00000075,0.00000522,0.00000145,-0.00000049,0.0000040
 4,0.00000116,-0.00000048,-0.00000043,0.00000298,0.00000279,-0.00000403
 ,-0.00000661,0.00000149,0.00003429,0.00002020,-0.00000762,-0.00000904,
 -0.00000257,-0.00000069,-0.00000266,-0.00000248,-0.00000058,-0.0000814
 2,-0.00000264,0.00000582,0.00000216,-0.00001009,-0.00000629,-0.0000016
 1,0.00000511,-0.00000680,0.00000330,0.00000698,-0.00000280,-0.00000308
 ,-0.00000043,0.00000480,0.00000276,0.00000109,0.00000224,-0.00001211,-
 0.00000310,0.00000038,0.00012398,0.00005344,-0.00003860,-0.00004281,-0
 .00002280,0.00005807,0.00007916,-0.00012658,-0.00000218,-0.00012542,-0
 .00001133,0.00048238,-0.00019845,0.00011575,-0.00099000,-0.00092858,0.
 00129261,0.00041425,0.00341322,0.00023374,-0.00496634,-0.01692400,0.02
 230610,-0.01124452,-0.06984628,0.10288327,-0.12970098,0.00878271,-0.01
 182117,0.01004347,0.00289270,-0.00126347,-0.00069083,0.00030865,-0.000
 22456,-0.00084026,-0.00000064,0.00000079,0.00000096,-0.00000086,0.0000
 0110,0.00000014,-0.00000076,-0.00000054,-0.00000006,-0.00000110,-0.000
 00010,0.00000009,0.00000078,-0.00000033,-0.00000042,-0.00000052,-0.000
 00018,-0.00000060,0.00000403,0.00000387,0.00000054,0.00000142,-0.00000
 117,-0.00000083,-0.00000190,0.00000083,0.00000093,0.00000230,-0.000004
 56,0.00001021,-0.00000255,0.00000380,0.00000327,0.00000038,-0.00000086
 ,-0.00000099,0.00000080,-0.00000038,0.00000041,0.00000176,-0.00000396,
 0.00000153,0.00000148,-0.00000799,-0.00001717,-0.00001749,0.00002620,0
 .00001939,-0.00068020,-0.00104307,0.00105979,0.07363917,-0.11160260,0.
 13532653,-0.00000625,0.00000206,0.00000075,0.00000814,0.,-0.00000133,-
 0.00000353,0.00000167,0.00000102,0.00000601,-0.00000262,0.00000227,-0.
 00000133,-0.00000035,-0.00000018,-0.00000306,-0.00000180,0.00000150,-0
 .00000627,-0.00000092,0.00000084,0.00000109,-0.00000227,0.00000200,-0.
 00000282,-0.00000275,0.00000209,0.00001370,0.00000474,-0.00000002,-0.0
 0000183,0.00000080,0.00000317,0.00000050,-0.00000010,0.00000203,-0.000
 00215,-0.00002259,0.00001160,0.00000434,0.00001371,-0.00000675,-0.0000
 0125,-0.00000535,-0.00000144,0.00000288,0.00000077,-0.00000570,0.00000
 486,0.00000680,-0.00000022,-0.00000433,-0.00000732,0.00000169,-0.00000
 437,0.00000147,0.00000694,0.00004611,0.00005210,-0.00004333,-0.0000443
 9,-0.00005330,0.00005573,0.00009929,-0.00003199,-0.00001062,0.00138169
 ,0.00027696,-0.00056252,-0.00093769,-0.00024559,-0.00041049,0.00015917
 ,-0.00027583,0.00020621,-0.00094988,0.00053570,-0.00048602,0.00007231,
 0.00492590,0.00233439,0.00071097,-0.00417639,0.02040859,-0.05302125,0.
 00375180,0.04361672,0.00550262,0.00292058,-0.01632786,0.00211416,0.006
 04176,-0.00090106,0.00000053,-0.00000021,-0.00000074,0.00000088,-0.000
 00119,0.00000035,0.00000030,0.00000050,-0.00000013,-0.00000009,0.00000
 048,-0.00000076,-0.00000058,0.00000065,-0.00000127,-0.00000270,0.00000
 023,-0.00000231,0.00000097,0.00000261,-0.00000467,0.00000053,-0.000000
 12,-0.00000219,-0.00000016,0.,-0.00000117,-0.00000125,-0.00000407,0.00
 000442,-0.00000067,-0.00000110,-0.00000019,-0.00000372,0.00000190,-0.0
 0000173,0.00000215,0.00000207,0.00000013,0.00000094,-0.00000088,0.0000
 0078,-0.00002643,0.00000142,-0.00000357,-0.00001095,-0.00000304,-0.000
 00123,0.00001224,-0.00009453,0.00099587,-0.00109066,-0.00197175,-0.000
 87892,0.04769115,-0.00000256,0.00000113,0.00000141,0.00000502,0.000000
 97,-0.00000097,-0.00000117,0.00000092,0.00000059,0.00000211,-0.0000025
 5,-0.00000082,0.00000023,0.00000003,0.00000008,-0.00000205,-0.00000098
 ,-0.00000044,0.00000002,-0.00000200,-0.00000069,-0.00000028,-0.0000007
 5,-0.00000138,-0.00000016,0.00000627,0.00000081,-0.00001447,-0.0000124
 5,0.00000814,0.00000285,0.00000442,-0.00000171,0.00000452,0.00000019,-
 0.00000263,0.00006226,-0.00002686,0.00000349,0.00000504,0.00002362,0.0
 0001120,0.00000575,-0.00000298,0.00001223,-0.00000848,-0.00000071,0.00
 000061,-0.00000778,0.00000338,-0.00000705,-0.00000656,-0.00001031,-0.0
 0000317,0.00001040,0.00000923,-0.00000770,-0.00011797,0.00003154,-0.00
 001346,0.00007975,-0.00003630,-0.00004022,-0.00005540,0.00015255,0.000
 08423,0.00004919,0.00106539,0.00113260,-0.00030287,-0.00103854,0.00004
 705,-0.00021134,0.00025610,-0.00017169,0.00028219,-0.00089998,0.000136
 03,0.00483069,0.00050764,-0.00084841,0.00260252,0.00555638,-0.01780506
 ,0.00360071,-0.05398467,0.04418312,-0.00367389,0.00036741,0.02203202,0
 .00602762,0.00044945,0.00259605,0.00000055,-0.00000011,-0.00000073,0.0
 0000048,-0.00000035,0.00000019,0.00000013,-0.00000005,-0.00000010,-0.0
 0000028,0.00000029,0.00000003,0.00000046,-0.00000031,0.00000035,-0.000
 00114,0.00000028,0.00000005,-0.00000171,-0.00000089,-0.00000129,0.0000
 0079,-0.00000292,0.00000181,0.00000236,-0.00000090,0.00000015,-0.00000
 096,-0.00000078,-0.00000998,0.00000031,-0.00000691,-0.00000435,0.00000
 759,0.00000030,0.00000836,0.00000621,-0.00000852,-0.00000119,-0.000000
 03,0.00000156,-0.00000184,0.00000804,-0.00003513,0.00001391,0.00000499
 ,0.00000778,0.00000096,0.00018079,0.00019985,-0.00082062,-0.00207576,-
 0.00091561,-0.00027050,-0.00864434,0.04997530,0.00000700,-0.00000239,-
 0.00000428,-0.00001583,-0.00001026,0.00000019,-0.00000767,0.00000310,0
 .00000256,-0.00000213,-0.00000333,0.00000436,0.00000465,0.00000591,0.0
 0000099,0.00000727,0.00000179,0.00000076,0.00000230,0.00000256,0.00000
 076,0.00000042,0.00000387,0.00000576,-0.00000799,-0.00001546,0.0000031
 2,0.00007193,0.00003681,-0.00001364,-0.00001462,-0.00000543,0.00000064
 ,-0.00000570,-0.00000422,0.00000042,-0.00015129,0.00004166,0.00000623,
 -0.00000354,-0.00002367,-0.00000529,-0.00000285,0.00000918,-0.00001183
 ,0.00000583,0.00001178,-0.00000299,-0.00000331,-0.00000187,0.00000582,
 0.00000717,0.00000546,0.00000349,-0.00002056,-0.00000780,0.00000497,0.
 00022813,-0.00005444,0.00000291,-0.00014398,0.00001773,0.00000848,0.00
 016667,-0.00020054,-0.00004443,0.00056250,-0.00000293,-0.00052493,-0.0
 0059966,0.00030646,-0.00015268,0.00014752,-0.00019278,0.00002317,-0.00
 013471,-0.00022284,0.00063199,0.00275843,-0.00142081,0.00071377,-0.000
 37006,0.00462555,-0.01061711,0.04292557,0.04439977,-0.32444844,0.00413
 644,0.00010677,-0.01057683,-0.00074822,0.00293345,0.00094742,-0.000000
 99,0.00000138,0.00000154,-0.00000103,0.00000083,0.00000044,-0.00000110
 ,-0.00000029,-0.00000037,-0.00000168,0.00000013,-0.00000093,0.00000057
 ,0.00000024,-0.00000197,-0.00000202,-0.00000027,-0.00000349,0.00000658
 ,0.00000809,-0.00000063,0.00000237,-0.00000106,-0.00000262,-0.00000404
 ,0.00000186,0.00000044,0.00000224,-0.00000426,0.00001537,-0.00000263,0
 .00000913,0.00000373,0.00000115,-0.00000234,-0.00000616,-0.00000100,0.
 00000274,0.00000046,0.00000265,-0.00000509,0.00000273,-0.00002899,0.00
 001513,-0.00002048,-0.00002322,0.00000790,0.00002177,-0.00001542,0.000
 22238,-0.00056760,-0.00051360,-0.00070168,0.00069314,-0.04738864,-0.04
 912205,0.34328612,-0.00001511,0.00000552,0.00000521,0.00002750,0.00001
 099,-0.00000192,0.00000329,-0.00000117,-0.00000137,0.00000959,-0.00000
 208,-0.00000082,-0.00000583,-0.00000623,-0.00000246,-0.00001191,-0.000
 00390,0.00000161,-0.00001137,-0.00000398,-0.00000029,0.00000043,-0.000
 01317,0.00000045,0.00000181,0.00001580,0.00000034,-0.00007410,-0.00002
 606,0.00000744,0.00001078,0.00001665,0.00000374,0.00001004,-0.00000003
 ,0.00000706,0.00016193,-0.00030648,0.00005445,0.00004199,0.00013655,-0
 .00002596,0.00001003,-0.00002078,0.00003413,-0.00000601,0.00003120,-0.
 00002022,-0.00002345,0.00002274,-0.00001819,-0.00003474,-0.00005195,-0
 .00000239,-0.00000276,0.00001654,-0.00000676,0.00003601,0.00106774,-0.
 00078737,-0.00055414,-0.00034551,0.00024414,-0.00026092,-0.00010430,0.
 00019456,-0.00104424,-0.00117249,-0.00082741,-0.00008371,0.00006957,0.
 00036257,0.00001294,0.00013817,0.00011069,0.00366584,0.00145077,0.0005
 7557,-0.00018364,-0.00038380,-0.00033578,0.00344351,0.00465538,-0.0013
 7554,-0.00650562,0.00654139,0.00940691,-0.18356152,0.11954176,0.100949
 30,0.00012460,0.00237069,0.00023341,0.00000188,-0.00000145,-0.00000258
 ,0.00000238,-0.00000247,0.00000019,0.00000145,0.00000072,-0.00000003,0
 .00000129,0.00000060,-0.00000024,-0.00000077,0.00000051,0.00000013,-0.
 00000236,0.00000059,-0.00000066,-0.00000544,-0.00000413,-0.00001478,0.
 00000156,-0.00000134,-0.00000278,0.00000531,-0.00000182,-0.00000205,-0
 .00001149,-0.00001538,0.00000392,-0.00000465,-0.00002107,-0.00000572,0
 .00000333,0.00001726,0.00001150,0.00001914,-0.00001725,-0.00000638,0.0
 0000417,-0.00000273,0.00000118,0.00000505,-0.00009410,-0.00001338,0.00
 005024,-0.00029653,0.00023033,-0.00069224,-0.00059530,-0.00013215,-0.0
 0024244,0.00047585,0.00046957,-0.00170991,-0.00265439,-0.00083094,0.18
 739227,-0.00001127,0.00000407,0.00000205,0.00001789,0.00000336,-0.0000
 0192,-0.00000304,0.00000074,0.00000048,0.00000901,-0.00000468,0.000003
 12,-0.00000311,-0.00000278,-0.00000229,-0.00000655,-0.00000274,0.00000
 227,-0.00000746,-0.00000922,-0.00000461,-0.00000753,-0.00001322,0.0000
 0845,0.00000388,0.00001555,0.00000851,-0.00003040,0.00000607,0.0000184
 8,-0.00000747,0.00001747,0.00000523,0.00001708,0.00000086,0.00000440,0
 .00011703,-0.00049195,0.00006807,0.00006453,0.00010392,-0.00004359,0.0
 0000715,-0.00001342,0.00006041,-0.00001674,0.00006367,0.00000558,-0.00
 006280,-0.00001732,-0.00003315,-0.00000787,-0.00002057,-0.00002643,-0.
 00000334,0.00001711,-0.00001828,0.00037749,0.00130667,-0.00028132,0.00
 009827,-0.00082185,0.00093960,-0.00014070,-0.00021381,-0.00019425,-0.0
 0118015,-0.00101989,-0.00072448,-0.00004729,0.00026375,-0.00018374,-0.
 00013191,0.00015572,0.00043164,0.00221612,0.00291538,0.00182471,-0.000
 51024,-0.00031155,0.00025056,0.00483185,0.00181551,0.00438713,0.013931
 41,-0.00745836,-0.01267485,0.11737594,-0.12811528,-0.07014341,-0.00361
 507,0.00543370,0.00276858,0.00000124,-0.00000046,-0.00000151,0.0000017
 6,-0.00000210,0.00000051,0.00000075,0.00000070,-0.00000033,0.00000028,
 0.00000077,-0.00000112,-0.00000048,0.00000095,-0.00000154,-0.00000481,
 0.00000025,-0.00000327,-0.00000326,-0.00000126,-0.00002309,0.00000544,
 -0.00000724,-0.00000300,0.00000290,-0.00000075,-0.00000174,-0.00000702
 ,-0.00002140,0.00001599,-0.00001030,-0.00002380,0.00000193,0.00005079,
 -0.00001443,0.00000501,0.00001192,-0.00001376,-0.00000667,0.00000765,-
 0.00000517,0.00000183,-0.00008911,-0.00003735,-0.00009630,0.00001692,-
 0.00028363,0.00023007,-0.00065593,-0.00063207,-0.00026796,0.00082988,-
 0.00035404,-0.00052229,-0.00299629,-0.00163039,-0.00077584,-0.13043711
 ,0.12941831,-0.00003477,0.00001270,0.00001386,0.00006894,0.00003673,-0
 .00000165,0.00002172,-0.00000886,-0.00000797,0.00001689,0.00000338,-0.
 00000454,-0.00001786,-0.00001986,-0.00000706,-0.00003060,-0.00000968,0
 .00000178,-0.00001184,-0.00001791,-0.00000830,-0.00001018,-0.00002625,
 0.00000017,0.00004676,0.00005947,0.00000276,-0.00030556,-0.00008438,0.
 00004078,0.00003445,0.00002416,0.00000590,0.00003362,0.00001897,0.0000
 1501,0.00048302,-0.00075646,0.00010672,0.00009602,0.00021241,-0.000137
 12,-0.00000920,-0.00004221,0.00003900,-0.00000843,-0.00004899,-0.00001
 864,0.00003478,0.00002440,0.00000664,-0.00004336,-0.00004364,-0.000010
 07,0.00002534,0.00001514,-0.00002303,-0.00044076,0.00241747,-0.0012529
 0,0.00001124,-0.00102045,0.00141561,0.00028418,-0.00054414,-0.00037621
 ,-0.00103071,-0.00081659,0.00320652,0.00108179,-0.00078107,-0.00102675
 ,0.00089844,-0.00032684,-0.00209981,-0.00041203,0.00332571,-0.00315691
 ,-0.00057762,0.00063367,-0.00109336,-0.00059185,0.00339316,-0.00020137
 ,-0.01082943,0.00837611,0.01104685,0.09990324,-0.07084003,-0.12307756,
 0.02105445,-0.01769093,-0.00901405,0.00000455,-0.00000443,-0.00000583,
 0.00000508,-0.00000552,-0.00000059,0.00000406,0.00000186,0.00000019,0.
 00000512,0.00000090,0.00000010,-0.00000274,0.00000093,0.00000279,0.000
 00281,0.00000241,0.00000373,-0.00001796,-0.00002545,-0.00003846,-0.000
 00817,0.00000325,-0.00000082,0.00001424,-0.00000609,-0.00000384,-0.000
 02532,-0.00002396,0.00001903,-0.00000377,-0.00004611,0.00000743,-0.000
 02109,0.00001432,0.00003746,0.00000180,-0.00001109,0.00000028,0.000001
 97,0.00000278,-0.00000152,-0.00005606,0.00014830,0.00004147,0.00005953
 ,0.00037806,0.00007295,-0.00012355,-0.00030607,0.00001984,-0.00047702,
 0.00054587,0.00038616,-0.00061399,-0.00113745,0.00061313,-0.10849024,0
 .07499234,0.12446222\\0.00000423,-0.00000120,-0.00000200,0.00000059,-0
 .00000233,0.00000338,-0.00000149,-0.00000268,-0.00000423,-0.00000296,-
 0.00000032,0.00000050,0.00000603,0.00000476,0.00000151,-0.00000037,0.0
 0000050,0.00000099,-0.00000426,-0.00000510,-0.00000106,0.00000023,0.00
 000224,0.00000233,-0.00000105,0.00000182,0.00000238,0.00000069,-0.0000
 0014,-0.00000341,-0.00000295,-0.00000221,0.00000176,0.00000593,0.00000
 269,-0.00000061,0.00000485,-0.00000550,0.00000723,-0.00000098,0.000007
 29,0.00000143,-0.00000261,-0.00000309,-0.00000214,0.00000070,0.0000029
 9,0.00000177,0.00000044,-0.00000228,-0.00000192,-0.00000640,-0.0000042
 0,-0.00000129,0.00000220,-0.00000315,0.00000270,-0.00000676,0.00000015
 ,0.00000077,-0.00000347,0.00000090,-0.00000364,-0.00000303,-0.00001097
 ,0.00000180,-0.00000448,0.00000819,0.00000503,0.00001241,0.00000822,0.
 00000673,-0.00000343,-0.00001280,-0.00000974,-0.00000017,0.00000476,0.
 00000030,0.00000124,0.00000150,-0.00000054,-0.00000107,0.00000213,-0.0
 0000125,0.00000160,0.00000076,-0.00000182,0.00000422,0.00000211,0.0000
 0046,-0.00000392,-0.00000527,-0.00000355,0.00000053,0.00000098,0.00000
 194,-0.00000118,0.00000076,-0.00000151,-0.00000101,-0.00000233,0.00000
 137,-0.00000286,-0.00000194,0.00000017,0.00000016,0.00000186,0.0000006
 9,-0.00000009,-0.00000166,-0.00000100,0.00000238,-0.00000114,-0.000001
 05,0.00000139,0.00000261,0.00000083,-0.00000152,0.00000083,0.00000126,
 0.00000057,0.00000118,-0.00000263,-0.00000154,-0.00000064,0.00000030,-
 0.00000194,-0.00000364,-0.00000247,0.00000349,0.00000414,0.00000160,0.
 00000351,0.00000465,0.00000081,0.00000205,0.00000359,-0.00000245,0.000
 00015,0.00000405,-0.00000067,0.00000089,-0.00000069,-0.00000232,0.0000
 0052,-0.00000140,0.00000026,-0.00000005,-0.00000122,0.00000100,-0.0000
 0142,0.00000024,0.00000003\\\@


 THE PROBLEM WITH THE LADDER OF SUCCESS IS YOU CAN'T
 CLIMB IT WHILE YOU'RE TWIDDLING YOUR THUMBS.
 Job cpu time:  0 days 17 hours 36 minutes 31.0 seconds.
 File lengths (MBytes):  RWF=   1661 Int=      0 D2E=      0 Chk=     24 Scr=      1
 Normal termination of Gaussian 09 at Sun Sep  4 00:55:24 2022.
