 Entering Gaussian System, Link 0=g09
 Input=Mol25.gjf
 Output=Mol25.log
 Initial command:
 /opt/gaussian/l1.exe /home/scr/lqcapf-6/Gau-223383.inp -scrdir=/home/scr/lqcapf-6/
 Entering Link 1 = /opt/gaussian/l1.exe PID=    223385.
  
 Copyright (c) 1988,1990,1992,1993,1995,1998,2003,2009,2011,
            Gaussian, Inc.  All Rights Reserved.
  
 This is part of the Gaussian(R) 09 program.  It is based on
 the Gaussian(R) 03 system (copyright 2003, Gaussian, Inc.),
 the Gaussian(R) 98 system (copyright 1998, Gaussian, Inc.),
 the Gaussian(R) 94 system (copyright 1995, Gaussian, Inc.),
 the Gaussian 92(TM) system (copyright 1992, Gaussian, Inc.),
 the Gaussian 90(TM) system (copyright 1990, Gaussian, Inc.),
 the Gaussian 88(TM) system (copyright 1988, Gaussian, Inc.),
 the Gaussian 86(TM) system (copyright 1986, Carnegie Mellon
 University), and the Gaussian 82(TM) system (copyright 1983,
 Carnegie Mellon University). Gaussian is a federally registered
 trademark of Gaussian, Inc.
  
 This software contains proprietary and confidential information,
 including trade secrets, belonging to Gaussian, Inc.
  
 This software is provided under written license and may be
 used, copied, transmitted, or stored only in accord with that
 written license.
  
 The following legend is applicable only to US Government
 contracts under FAR:
  
                    RESTRICTED RIGHTS LEGEND
  
 Use, reproduction and disclosure by the US Government is
 subject to restrictions as set forth in subparagraphs (a)
 and (c) of the Commercial Computer Software - Restricted
 Rights clause in FAR 52.227-19.
  
 Gaussian, Inc.
 340 Quinnipiac St., Bldg. 40, Wallingford CT 06492
  
  
 ---------------------------------------------------------------
 Warning -- This program may not be used in any manner that
 competes with the business of Gaussian, Inc. or will provide
 assistance to any competitor of Gaussian, Inc.  The licensee
 of this program is prohibited from giving any competitor of
 Gaussian, Inc. access to this program.  By using this program,
 the user acknowledges that Gaussian, Inc. is engaged in the
 business of creating and licensing software in the field of
 computational chemistry and represents and warrants to the
 licensee that it is not a competitor of Gaussian, Inc. and that
 it will not use this program in any manner prohibited above.
 ---------------------------------------------------------------
  

 Cite this work as:
 Gaussian 09, Revision C.01,
 M. J. Frisch, G. W. Trucks, H. B. Schlegel, G. E. Scuseria, 
 M. A. Robb, J. R. Cheeseman, G. Scalmani, V. Barone, B. Mennucci, 
 G. A. Petersson, H. Nakatsuji, M. Caricato, X. Li, H. P. Hratchian, 
 A. F. Izmaylov, J. Bloino, G. Zheng, J. L. Sonnenberg, M. Hada, 
 M. Ehara, K. Toyota, R. Fukuda, J. Hasegawa, M. Ishida, T. Nakajima, 
 Y. Honda, O. Kitao, H. Nakai, T. Vreven, J. A. Montgomery, Jr., 
 J. E. Peralta, F. Ogliaro, M. Bearpark, J. J. Heyd, E. Brothers, 
 K. N. Kudin, V. N. Staroverov, T. Keith, R. Kobayashi, J. Normand, 
 K. Raghavachari, A. Rendell, J. C. Burant, S. S. Iyengar, J. Tomasi, 
 M. Cossi, N. Rega, J. M. Millam, M. Klene, J. E. Knox, J. B. Cross, 
 V. Bakken, C. Adamo, J. Jaramillo, R. Gomperts, R. E. Stratmann, 
 O. Yazyev, A. J. Austin, R. Cammi, C. Pomelli, J. W. Ochterski, 
 R. L. Martin, K. Morokuma, V. G. Zakrzewski, G. A. Voth, 
 P. Salvador, J. J. Dannenberg, S. Dapprich, A. D. Daniels, 
 O. Farkas, J. B. Foresman, J. V. Ortiz, J. Cioslowski, 
 and D. J. Fox, Gaussian, Inc., Wallingford CT, 2010.
 
 ******************************************
 Gaussian 09:  EM64L-G09RevC.01 23-Sep-2011
                 4-Sep-2022 
 ******************************************
 %nprocshared=8
 Will use up to    8 processors via shared memory.
 %mem=1600MB
 -------------------------
 #p opt freq b3lyp/cc-pvdz
 -------------------------
 1/14=-1,18=20,19=15,26=3,38=1/1,3;
 2/9=110,12=2,17=6,18=5,40=1/2;
 3/5=16,11=2,16=1,25=1,30=1,71=1,74=-5/1,2,3;
 4//1;
 5/5=2,38=5/2;
 6/7=2,8=2,9=2,10=2,28=1/1;
 7//1,2,3,16;
 1/14=-1,18=20,19=15/3(2);
 2/9=110/2;
 99//99;
 2/9=110/2;
 3/5=16,11=2,16=1,25=1,30=1,71=1,74=-5/1,2,3;
 4/5=5,16=3/1;
 5/5=2,38=5/2;
 7//1,2,3,16;
 1/14=-1,18=20,19=15/3(-5);
 2/9=110/2;
 6/7=2,8=2,9=2,10=2,19=2,28=1/1;
 99/9=1/99;
 Leave Link    1 at Sun Sep  4 22:09:28 2022, MaxMem=  209715200 cpu:       0.2
 (Enter /opt/gaussian/l101.exe)
 ---------
 Mol25.log
 ---------
 Charge =  0 Multiplicity = 1
 Symbolic Z-Matrix:
 O                     1.22707  -1.25358  -0.31922 
 C                     1.35245  -0.08659  -0.662 
 C                     2.73273   0.47393  -0.98278 
 N                     3.76048  -0.51938  -0.90595 
 N                     4.3453   -0.96224  -2.05614 
 N                     5.22161  -1.83455  -1.77729 
 C                     5.25227  -2.01634  -0.40413 
 C                     6.04361  -2.85307   0.38218 
 C                     5.84926  -2.80839   1.74053 
 C                     4.87983  -1.9516    2.30893 
 C                     4.09319  -1.12766   1.54063 
 C                     4.30232  -1.17378   0.15968 
 N                     0.29141   0.76989  -0.7695 
 C                     0.42914   2.19576  -1.11513 
 C                     0.64028   3.13514   0.07625 
 C                     0.97306   4.57289  -0.37615 
 C                     0.61886   5.483     0.82526 
 C                    -0.22921   4.6106    1.78881 
 C                    -0.57539   3.33737   0.99713 
 C                    -1.03339   0.25242  -0.5627 
 C                    -1.94119   0.25175  -1.61158 
 C                    -3.23016  -0.21991  -1.42303 
 C                    -3.63687  -0.71411  -0.18572 
 C                    -2.70938  -0.72398   0.85558 
 C                    -1.42348  -0.24629   0.67138 
 C                    -5.01629  -1.22328   0.01672 
 C                    -6.12943  -0.54574  -0.4765 
 C                    -7.39843  -1.0593   -0.26166 
 C                    -7.52668  -2.24153   0.44821 
 N                    -6.46946  -2.89774   0.92207 
 C                    -5.25122  -2.40831   0.7123 
 H                     2.7565    0.84848  -1.99471 
 H                     2.96569   1.29497  -0.31692 
 H                     6.76858  -3.49897  -0.07041 
 H                     6.43248  -3.43382   2.38702 
 H                     4.75126  -1.95408   3.37402 
 H                     3.34325  -0.50249   1.98071 
 H                     1.24146   2.31607  -1.8187 
 H                    -0.46876   2.49035  -1.63963 
 H                     1.46381   2.76038   0.68099 
 H                     2.00675   4.6778   -0.68537 
 H                     0.35765   4.83033  -1.23456 
 H                     1.5134    5.84398   1.31823 
 H                     0.06936   6.3567    0.49716 
 H                     0.35129   4.35019   2.66773 
 H                    -1.11483   5.12663   2.1379 
 H                    -1.46481   3.49774   0.39294 
 H                    -0.7712    2.48969   1.63923 
 H                    -1.63647   0.59834  -2.58008 
 H                    -3.91025  -0.23371  -2.25259 
 H                    -2.9979   -1.09053   1.82133 
 H                    -0.72036  -0.27384   1.47831 
 H                    -6.00432   0.37924  -1.00538 
 H                    -8.26735  -0.55072  -0.6286 
 H                    -8.48546  -2.67529   0.64378 
 H                    -4.43698  -2.98846   1.09579 
 
 NAtoms=     56 NQM=        0 NQMF=       0 NMMI=     56 NMMIF=      0
                NMic=       0 NMicF=      0.
                    Isotopes and Nuclear Properties:
 (Nuclear quadrupole moments (NQMom) in fm**2, nuclear magnetic moments (NMagM)
  in nuclear magnetons)

  Atom         1           2           3           4           5           6           7           8           9          10
 IAtWgt=          16          12          12          14          14          14          12          12          12          12
 AtmWgt=  15.9949146  12.0000000  12.0000000  14.0030740  14.0030740  14.0030740  12.0000000  12.0000000  12.0000000  12.0000000
 NucSpn=           0           0           0           2           2           2           0           0           0           0
 AtZEff=   0.0000000   0.0000000   0.0000000   0.0000000   0.0000000   0.0000000   0.0000000   0.0000000   0.0000000   0.0000000
 NQMom=    0.0000000   0.0000000   0.0000000   2.0440000   2.0440000   2.0440000   0.0000000   0.0000000   0.0000000   0.0000000
 NMagM=    0.0000000   0.0000000   0.0000000   0.4037610   0.4037610   0.4037610   0.0000000   0.0000000   0.0000000   0.0000000

  Atom        11          12          13          14          15          16          17          18          19          20
 IAtWgt=          12          12          14          12          12          12          12          12          12          12
 AtmWgt=  12.0000000  12.0000000  14.0030740  12.0000000  12.0000000  12.0000000  12.0000000  12.0000000  12.0000000  12.0000000
 NucSpn=           0           0           2           0           0           0           0           0           0           0
 AtZEff=   0.0000000   0.0000000   0.0000000   0.0000000   0.0000000   0.0000000   0.0000000   0.0000000   0.0000000   0.0000000
 NQMom=    0.0000000   0.0000000   2.0440000   0.0000000   0.0000000   0.0000000   0.0000000   0.0000000   0.0000000   0.0000000
 NMagM=    0.0000000   0.0000000   0.4037610   0.0000000   0.0000000   0.0000000   0.0000000   0.0000000   0.0000000   0.0000000

  Atom        21          22          23          24          25          26          27          28          29          30
 IAtWgt=          12          12          12          12          12          12          12          12          12          14
 AtmWgt=  12.0000000  12.0000000  12.0000000  12.0000000  12.0000000  12.0000000  12.0000000  12.0000000  12.0000000  14.0030740
 NucSpn=           0           0           0           0           0           0           0           0           0           2
 AtZEff=   0.0000000   0.0000000   0.0000000   0.0000000   0.0000000   0.0000000   0.0000000   0.0000000   0.0000000   0.0000000
 NQMom=    0.0000000   0.0000000   0.0000000   0.0000000   0.0000000   0.0000000   0.0000000   0.0000000   0.0000000   2.0440000
 NMagM=    0.0000000   0.0000000   0.0000000   0.0000000   0.0000000   0.0000000   0.0000000   0.0000000   0.0000000   0.4037610

  Atom        31          32          33          34          35          36          37          38          39          40
 IAtWgt=          12           1           1           1           1           1           1           1           1           1
 AtmWgt=  12.0000000   1.0078250   1.0078250   1.0078250   1.0078250   1.0078250   1.0078250   1.0078250   1.0078250   1.0078250
 NucSpn=           0           1           1           1           1           1           1           1           1           1
 AtZEff=   0.0000000   0.0000000   0.0000000   0.0000000   0.0000000   0.0000000   0.0000000   0.0000000   0.0000000   0.0000000
 NQMom=    0.0000000   0.0000000   0.0000000   0.0000000   0.0000000   0.0000000   0.0000000   0.0000000   0.0000000   0.0000000
 NMagM=    0.0000000   2.7928460   2.7928460   2.7928460   2.7928460   2.7928460   2.7928460   2.7928460   2.7928460   2.7928460

  Atom        41          42          43          44          45          46          47          48          49          50
 IAtWgt=           1           1           1           1           1           1           1           1           1           1
 AtmWgt=   1.0078250   1.0078250   1.0078250   1.0078250   1.0078250   1.0078250   1.0078250   1.0078250   1.0078250   1.0078250
 NucSpn=           1           1           1           1           1           1           1           1           1           1
 AtZEff=   0.0000000   0.0000000   0.0000000   0.0000000   0.0000000   0.0000000   0.0000000   0.0000000   0.0000000   0.0000000
 NQMom=    0.0000000   0.0000000   0.0000000   0.0000000   0.0000000   0.0000000   0.0000000   0.0000000   0.0000000   0.0000000
 NMagM=    2.7928460   2.7928460   2.7928460   2.7928460   2.7928460   2.7928460   2.7928460   2.7928460   2.7928460   2.7928460

  Atom        51          52          53          54          55          56
 IAtWgt=           1           1           1           1           1           1
 AtmWgt=   1.0078250   1.0078250   1.0078250   1.0078250   1.0078250   1.0078250
 NucSpn=           1           1           1           1           1           1
 AtZEff=   0.0000000   0.0000000   0.0000000   0.0000000   0.0000000   0.0000000
 NQMom=    0.0000000   0.0000000   0.0000000   0.0000000   0.0000000   0.0000000
 NMagM=    2.7928460   2.7928460   2.7928460   2.7928460   2.7928460   2.7928460
 Leave Link  101 at Sun Sep  4 22:09:28 2022, MaxMem=  209715200 cpu:       1.0
 (Enter /opt/gaussian/l103.exe)

 GradGradGradGradGradGradGradGradGradGradGradGradGradGradGradGradGradGrad
 Berny optimization.
 Initialization pass.
                           ----------------------------
                           !    Initial Parameters    !
                           ! (Angstroms and Degrees)  !
 --------------------------                            --------------------------
 ! Name  Definition              Value          Derivative Info.                !
 --------------------------------------------------------------------------------
 ! R1    R(1,2)                  1.2227         estimate D2E/DX2                !
 ! R2    R(2,3)                  1.5239         estimate D2E/DX2                !
 ! R3    R(2,13)                 1.3678         estimate D2E/DX2                !
 ! R4    R(3,4)                  1.4314         estimate D2E/DX2                !
 ! R5    R(3,32)                 1.0793         estimate D2E/DX2                !
 ! R6    R(3,33)                 1.0825         estimate D2E/DX2                !
 ! R7    R(4,5)                  1.3642         estimate D2E/DX2                !
 ! R8    R(4,12)                 1.3629         estimate D2E/DX2                !
 ! R9    R(5,6)                  1.2675         estimate D2E/DX2                !
 ! R10   R(6,7)                  1.3855         estimate D2E/DX2                !
 ! R11   R(7,8)                  1.3945         estimate D2E/DX2                !
 ! R12   R(7,12)                 1.3893         estimate D2E/DX2                !
 ! R13   R(8,9)                  1.3729         estimate D2E/DX2                !
 ! R14   R(8,34)                 1.0713         estimate D2E/DX2                !
 ! R15   R(9,10)                 1.4131         estimate D2E/DX2                !
 ! R16   R(9,35)                 1.072          estimate D2E/DX2                !
 ! R17   R(10,11)                1.374          estimate D2E/DX2                !
 ! R18   R(10,36)                1.0728         estimate D2E/DX2                !
 ! R19   R(11,12)                1.3975         estimate D2E/DX2                !
 ! R20   R(11,37)                1.0709         estimate D2E/DX2                !
 ! R21   R(13,14)                1.4736         estimate D2E/DX2                !
 ! R22   R(13,20)                1.4372         estimate D2E/DX2                !
 ! R23   R(14,15)                1.5318         estimate D2E/DX2                !
 ! R24   R(14,38)                1.0814         estimate D2E/DX2                !
 ! R25   R(14,39)                1.0808         estimate D2E/DX2                !
 ! R26   R(15,16)                1.5435         estimate D2E/DX2                !
 ! R27   R(15,19)                1.5384         estimate D2E/DX2                !
 ! R28   R(15,40)                1.0883         estimate D2E/DX2                !
 ! R29   R(16,17)                1.5483         estimate D2E/DX2                !
 ! R30   R(16,41)                1.084          estimate D2E/DX2                !
 ! R31   R(16,42)                1.0871         estimate D2E/DX2                !
 ! R32   R(17,18)                1.552          estimate D2E/DX2                !
 ! R33   R(17,43)                1.0833         estimate D2E/DX2                !
 ! R34   R(17,44)                1.083          estimate D2E/DX2                !
 ! R35   R(18,19)                1.5387         estimate D2E/DX2                !
 ! R36   R(18,45)                1.085          estimate D2E/DX2                !
 ! R37   R(18,46)                1.0828         estimate D2E/DX2                !
 ! R38   R(19,47)                1.0871         estimate D2E/DX2                !
 ! R39   R(19,48)                1.0813         estimate D2E/DX2                !
 ! R40   R(20,21)                1.3872         estimate D2E/DX2                !
 ! R41   R(20,25)                1.387          estimate D2E/DX2                !
 ! R42   R(21,22)                1.3854         estimate D2E/DX2                !
 ! R43   R(21,49)                1.0728         estimate D2E/DX2                !
 ! R44   R(22,23)                1.393          estimate D2E/DX2                !
 ! R45   R(22,50)                1.0728         estimate D2E/DX2                !
 ! R46   R(23,24)                1.3945         estimate D2E/DX2                !
 ! R47   R(23,26)                1.4843         estimate D2E/DX2                !
 ! R48   R(24,25)                1.3841         estimate D2E/DX2                !
 ! R49   R(24,51)                1.0725         estimate D2E/DX2                !
 ! R50   R(25,52)                1.0706         estimate D2E/DX2                !
 ! R51   R(26,27)                1.3933         estimate D2E/DX2                !
 ! R52   R(26,31)                1.394          estimate D2E/DX2                !
 ! R53   R(27,28)                1.3857         estimate D2E/DX2                !
 ! R54   R(27,53)                1.0728         estimate D2E/DX2                !
 ! R55   R(28,29)                1.3849         estimate D2E/DX2                !
 ! R56   R(28,54)                1.0716         estimate D2E/DX2                !
 ! R57   R(29,30)                1.3315         estimate D2E/DX2                !
 ! R58   R(29,55)                1.0704         estimate D2E/DX2                !
 ! R59   R(30,31)                1.3295         estimate D2E/DX2                !
 ! R60   R(31,56)                1.0708         estimate D2E/DX2                !
 ! A1    A(1,2,3)              120.1947         estimate D2E/DX2                !
 ! A2    A(1,2,13)             122.691          estimate D2E/DX2                !
 ! A3    A(3,2,13)             117.1134         estimate D2E/DX2                !
 ! A4    A(2,3,4)              112.5692         estimate D2E/DX2                !
 ! A5    A(2,3,32)             110.1793         estimate D2E/DX2                !
 ! A6    A(2,3,33)             110.1471         estimate D2E/DX2                !
 ! A7    A(4,3,32)             105.9822         estimate D2E/DX2                !
 ! A8    A(4,3,33)             109.8045         estimate D2E/DX2                !
 ! A9    A(32,3,33)            107.9857         estimate D2E/DX2                !
 ! A10   A(3,4,5)              119.1977         estimate D2E/DX2                !
 ! A11   A(3,4,12)             131.3492         estimate D2E/DX2                !
 ! A12   A(5,4,12)             109.4466         estimate D2E/DX2                !
 ! A13   A(4,5,6)              109.5301         estimate D2E/DX2                !
 ! A14   A(5,6,7)              108.8832         estimate D2E/DX2                !
 ! A15   A(6,7,8)              130.5522         estimate D2E/DX2                !
 ! A16   A(6,7,12)             107.9089         estimate D2E/DX2                !
 ! A17   A(8,7,12)             121.5386         estimate D2E/DX2                !
 ! A18   A(7,8,9)              117.2599         estimate D2E/DX2                !
 ! A19   A(7,8,34)             120.503          estimate D2E/DX2                !
 ! A20   A(9,8,34)             122.2371         estimate D2E/DX2                !
 ! A21   A(8,9,10)             120.9843         estimate D2E/DX2                !
 ! A22   A(8,9,35)             120.0433         estimate D2E/DX2                !
 ! A23   A(10,9,35)            118.9712         estimate D2E/DX2                !
 ! A24   A(9,10,11)            122.1006         estimate D2E/DX2                !
 ! A25   A(9,10,36)            118.6943         estimate D2E/DX2                !
 ! A26   A(11,10,36)           119.2028         estimate D2E/DX2                !
 ! A27   A(10,11,12)           116.5569         estimate D2E/DX2                !
 ! A28   A(10,11,37)           121.4115         estimate D2E/DX2                !
 ! A29   A(12,11,37)           122.0145         estimate D2E/DX2                !
 ! A30   A(4,12,7)             104.2251         estimate D2E/DX2                !
 ! A31   A(4,12,11)            134.2128         estimate D2E/DX2                !
 ! A32   A(7,12,11)            121.5582         estimate D2E/DX2                !
 ! A33   A(2,13,14)            123.4913         estimate D2E/DX2                !
 ! A34   A(2,13,20)            118.573          estimate D2E/DX2                !
 ! A35   A(14,13,20)           117.9228         estimate D2E/DX2                !
 ! A36   A(13,14,15)           115.0776         estimate D2E/DX2                !
 ! A37   A(13,14,38)           109.2971         estimate D2E/DX2                !
 ! A38   A(13,14,39)           107.4524         estimate D2E/DX2                !
 ! A39   A(15,14,38)           109.5279         estimate D2E/DX2                !
 ! A40   A(15,14,39)           108.9537         estimate D2E/DX2                !
 ! A41   A(38,14,39)           106.1414         estimate D2E/DX2                !
 ! A42   A(14,15,16)           111.8996         estimate D2E/DX2                !
 ! A43   A(14,15,19)           115.9287         estimate D2E/DX2                !
 ! A44   A(14,15,40)           108.9848         estimate D2E/DX2                !
 ! A45   A(16,15,19)           102.9065         estimate D2E/DX2                !
 ! A46   A(16,15,40)           108.6918         estimate D2E/DX2                !
 ! A47   A(19,15,40)           108.0959         estimate D2E/DX2                !
 ! A48   A(15,16,17)           105.7108         estimate D2E/DX2                !
 ! A49   A(15,16,41)           112.2921         estimate D2E/DX2                !
 ! A50   A(15,16,42)           109.2661         estimate D2E/DX2                !
 ! A51   A(17,16,41)           112.495          estimate D2E/DX2                !
 ! A52   A(17,16,42)           110.1211         estimate D2E/DX2                !
 ! A53   A(41,16,42)           106.9562         estimate D2E/DX2                !
 ! A54   A(16,17,18)           106.0419         estimate D2E/DX2                !
 ! A55   A(16,17,43)           111.1053         estimate D2E/DX2                !
 ! A56   A(16,17,44)           110.8059         estimate D2E/DX2                !
 ! A57   A(18,17,43)           110.8552         estimate D2E/DX2                !
 ! A58   A(18,17,44)           111.3645         estimate D2E/DX2                !
 ! A59   A(43,17,44)           106.7389         estimate D2E/DX2                !
 ! A60   A(17,18,19)           105.5828         estimate D2E/DX2                !
 ! A61   A(17,18,45)           110.2103         estimate D2E/DX2                !
 ! A62   A(17,18,46)           112.2839         estimate D2E/DX2                !
 ! A63   A(19,18,45)           109.7879         estimate D2E/DX2                !
 ! A64   A(19,18,46)           112.0985         estimate D2E/DX2                !
 ! A65   A(45,18,46)           106.9061         estimate D2E/DX2                !
 ! A66   A(15,19,18)           103.8254         estimate D2E/DX2                !
 ! A67   A(15,19,47)           109.4639         estimate D2E/DX2                !
 ! A68   A(15,19,48)           113.2971         estimate D2E/DX2                !
 ! A69   A(18,19,47)           110.3615         estimate D2E/DX2                !
 ! A70   A(18,19,48)           112.5753         estimate D2E/DX2                !
 ! A71   A(47,19,48)           107.3088         estimate D2E/DX2                !
 ! A72   A(13,20,21)           119.6438         estimate D2E/DX2                !
 ! A73   A(13,20,25)           121.1124         estimate D2E/DX2                !
 ! A74   A(21,20,25)           119.2437         estimate D2E/DX2                !
 ! A75   A(20,21,22)           120.4053         estimate D2E/DX2                !
 ! A76   A(20,21,49)           119.7727         estimate D2E/DX2                !
 ! A77   A(22,21,49)           119.808          estimate D2E/DX2                !
 ! A78   A(21,22,23)           120.8826         estimate D2E/DX2                !
 ! A79   A(21,22,50)           119.271          estimate D2E/DX2                !
 ! A80   A(23,22,50)           119.8133         estimate D2E/DX2                !
 ! A81   A(22,23,24)           118.136          estimate D2E/DX2                !
 ! A82   A(22,23,26)           120.9424         estimate D2E/DX2                !
 ! A83   A(24,23,26)           120.9206         estimate D2E/DX2                !
 ! A84   A(23,24,25)           121.0715         estimate D2E/DX2                !
 ! A85   A(23,24,51)           119.7281         estimate D2E/DX2                !
 ! A86   A(25,24,51)           119.1913         estimate D2E/DX2                !
 ! A87   A(20,25,24)           120.2516         estimate D2E/DX2                !
 ! A88   A(20,25,52)           119.6785         estimate D2E/DX2                !
 ! A89   A(24,25,52)           120.0635         estimate D2E/DX2                !
 ! A90   A(23,26,27)           121.8282         estimate D2E/DX2                !
 ! A91   A(23,26,31)           121.0838         estimate D2E/DX2                !
 ! A92   A(27,26,31)           117.0879         estimate D2E/DX2                !
 ! A93   A(26,27,28)           119.769          estimate D2E/DX2                !
 ! A94   A(26,27,53)           120.0395         estimate D2E/DX2                !
 ! A95   A(28,27,53)           120.1825         estimate D2E/DX2                !
 ! A96   A(27,28,29)           118.7267         estimate D2E/DX2                !
 ! A97   A(27,28,54)           120.9026         estimate D2E/DX2                !
 ! A98   A(29,28,54)           120.3687         estimate D2E/DX2                !
 ! A99   A(28,29,30)           121.978          estimate D2E/DX2                !
 ! A100  A(28,29,55)           121.5029         estimate D2E/DX2                !
 ! A101  A(30,29,55)           116.5191         estimate D2E/DX2                !
 ! A102  A(29,30,31)           119.3387         estimate D2E/DX2                !
 ! A103  A(26,31,30)           123.0983         estimate D2E/DX2                !
 ! A104  A(26,31,56)           120.7379         estimate D2E/DX2                !
 ! A105  A(30,31,56)           116.1549         estimate D2E/DX2                !
 ! D1    D(1,2,3,4)              3.35           estimate D2E/DX2                !
 ! D2    D(1,2,3,32)           121.4119         estimate D2E/DX2                !
 ! D3    D(1,2,3,33)          -119.5593         estimate D2E/DX2                !
 ! D4    D(13,2,3,4)          -176.9961         estimate D2E/DX2                !
 ! D5    D(13,2,3,32)          -58.9342         estimate D2E/DX2                !
 ! D6    D(13,2,3,33)           60.0946         estimate D2E/DX2                !
 ! D7    D(1,2,13,14)          176.8224         estimate D2E/DX2                !
 ! D8    D(1,2,13,20)           -4.5084         estimate D2E/DX2                !
 ! D9    D(3,2,13,14)           -2.8222         estimate D2E/DX2                !
 ! D10   D(3,2,13,20)          175.847          estimate D2E/DX2                !
 ! D11   D(2,3,4,5)            108.7517         estimate D2E/DX2                !
 ! D12   D(2,3,4,12)           -70.2141         estimate D2E/DX2                !
 ! D13   D(32,3,4,5)           -11.7542         estimate D2E/DX2                !
 ! D14   D(32,3,4,12)          169.28           estimate D2E/DX2                !
 ! D15   D(33,3,4,5)          -128.1472         estimate D2E/DX2                !
 ! D16   D(33,3,4,12)           52.887          estimate D2E/DX2                !
 ! D17   D(3,4,5,6)           -179.8792         estimate D2E/DX2                !
 ! D18   D(12,4,5,6)            -0.7025         estimate D2E/DX2                !
 ! D19   D(3,4,12,7)           179.835          estimate D2E/DX2                !
 ! D20   D(3,4,12,11)           -0.9088         estimate D2E/DX2                !
 ! D21   D(5,4,12,7)             0.7924         estimate D2E/DX2                !
 ! D22   D(5,4,12,11)         -179.9513         estimate D2E/DX2                !
 ! D23   D(4,5,6,7)              0.2874         estimate D2E/DX2                !
 ! D24   D(5,6,7,8)           -179.5995         estimate D2E/DX2                !
 ! D25   D(5,6,7,12)             0.2169         estimate D2E/DX2                !
 ! D26   D(6,7,8,9)            179.5997         estimate D2E/DX2                !
 ! D27   D(6,7,8,34)            -0.4419         estimate D2E/DX2                !
 ! D28   D(12,7,8,9)            -0.1953         estimate D2E/DX2                !
 ! D29   D(12,7,8,34)          179.7631         estimate D2E/DX2                !
 ! D30   D(6,7,12,4)            -0.6159         estimate D2E/DX2                !
 ! D31   D(6,7,12,11)         -179.9903         estimate D2E/DX2                !
 ! D32   D(8,7,12,4)           179.2205         estimate D2E/DX2                !
 ! D33   D(8,7,12,11)           -0.154          estimate D2E/DX2                !
 ! D34   D(7,8,9,10)             0.3234         estimate D2E/DX2                !
 ! D35   D(7,8,9,35)           179.9192         estimate D2E/DX2                !
 ! D36   D(34,8,9,10)         -179.6342         estimate D2E/DX2                !
 ! D37   D(34,8,9,35)           -0.0384         estimate D2E/DX2                !
 ! D38   D(8,9,10,11)           -0.1118         estimate D2E/DX2                !
 ! D39   D(8,9,10,36)          179.3361         estimate D2E/DX2                !
 ! D40   D(35,9,10,11)        -179.7118         estimate D2E/DX2                !
 ! D41   D(35,9,10,36)          -0.2639         estimate D2E/DX2                !
 ! D42   D(9,10,11,12)          -0.2323         estimate D2E/DX2                !
 ! D43   D(9,10,11,37)         178.292          estimate D2E/DX2                !
 ! D44   D(36,10,11,12)       -179.6775         estimate D2E/DX2                !
 ! D45   D(36,10,11,37)         -1.1532         estimate D2E/DX2                !
 ! D46   D(10,11,12,4)        -178.7926         estimate D2E/DX2                !
 ! D47   D(10,11,12,7)           0.3613         estimate D2E/DX2                !
 ! D48   D(37,11,12,4)           2.6927         estimate D2E/DX2                !
 ! D49   D(37,11,12,7)        -178.1533         estimate D2E/DX2                !
 ! D50   D(2,13,14,15)         -88.6395         estimate D2E/DX2                !
 ! D51   D(2,13,14,38)          35.0626         estimate D2E/DX2                !
 ! D52   D(2,13,14,39)         149.8246         estimate D2E/DX2                !
 ! D53   D(20,13,14,15)         92.6832         estimate D2E/DX2                !
 ! D54   D(20,13,14,38)       -143.6147         estimate D2E/DX2                !
 ! D55   D(20,13,14,39)        -28.8527         estimate D2E/DX2                !
 ! D56   D(2,13,20,21)        -115.6347         estimate D2E/DX2                !
 ! D57   D(2,13,20,25)          64.471          estimate D2E/DX2                !
 ! D58   D(14,13,20,21)         63.1092         estimate D2E/DX2                !
 ! D59   D(14,13,20,25)       -116.7851         estimate D2E/DX2                !
 ! D60   D(13,14,15,16)        171.9471         estimate D2E/DX2                !
 ! D61   D(13,14,15,19)        -70.4643         estimate D2E/DX2                !
 ! D62   D(13,14,15,40)         51.7108         estimate D2E/DX2                !
 ! D63   D(38,14,15,16)         48.3673         estimate D2E/DX2                !
 ! D64   D(38,14,15,19)        165.9559         estimate D2E/DX2                !
 ! D65   D(38,14,15,40)        -71.8691         estimate D2E/DX2                !
 ! D66   D(39,14,15,16)        -67.3346         estimate D2E/DX2                !
 ! D67   D(39,14,15,19)         50.2541         estimate D2E/DX2                !
 ! D68   D(39,14,15,40)        172.4291         estimate D2E/DX2                !
 ! D69   D(14,15,16,17)        158.5791         estimate D2E/DX2                !
 ! D70   D(14,15,16,41)        -78.4048         estimate D2E/DX2                !
 ! D71   D(14,15,16,42)         40.0975         estimate D2E/DX2                !
 ! D72   D(19,15,16,17)         33.4382         estimate D2E/DX2                !
 ! D73   D(19,15,16,41)        156.4543         estimate D2E/DX2                !
 ! D74   D(19,15,16,42)        -85.0434         estimate D2E/DX2                !
 ! D75   D(40,15,16,17)        -81.0137         estimate D2E/DX2                !
 ! D76   D(40,15,16,41)         42.0025         estimate D2E/DX2                !
 ! D77   D(40,15,16,42)        160.5047         estimate D2E/DX2                !
 ! D78   D(14,15,19,18)       -162.776          estimate D2E/DX2                !
 ! D79   D(14,15,19,47)        -44.9353         estimate D2E/DX2                !
 ! D80   D(14,15,19,48)         74.7839         estimate D2E/DX2                !
 ! D81   D(16,15,19,18)        -40.3039         estimate D2E/DX2                !
 ! D82   D(16,15,19,47)         77.5368         estimate D2E/DX2                !
 ! D83   D(16,15,19,48)       -162.7441         estimate D2E/DX2                !
 ! D84   D(40,15,19,18)         74.5794         estimate D2E/DX2                !
 ! D85   D(40,15,19,47)       -167.5799         estimate D2E/DX2                !
 ! D86   D(40,15,19,48)        -47.8608         estimate D2E/DX2                !
 ! D87   D(15,16,17,18)        -13.8696         estimate D2E/DX2                !
 ! D88   D(15,16,17,43)        106.6644         estimate D2E/DX2                !
 ! D89   D(15,16,17,44)       -134.8513         estimate D2E/DX2                !
 ! D90   D(41,16,17,18)       -136.7568         estimate D2E/DX2                !
 ! D91   D(41,16,17,43)        -16.2228         estimate D2E/DX2                !
 ! D92   D(41,16,17,44)        102.2615         estimate D2E/DX2                !
 ! D93   D(42,16,17,18)        104.0411         estimate D2E/DX2                !
 ! D94   D(42,16,17,43)       -135.4249         estimate D2E/DX2                !
 ! D95   D(42,16,17,44)        -16.9405         estimate D2E/DX2                !
 ! D96   D(16,17,18,19)        -11.1065         estimate D2E/DX2                !
 ! D97   D(16,17,18,45)        107.395          estimate D2E/DX2                !
 ! D98   D(16,17,18,46)       -133.543          estimate D2E/DX2                !
 ! D99   D(43,17,18,19)       -131.8026         estimate D2E/DX2                !
 ! D100  D(43,17,18,45)        -13.301          estimate D2E/DX2                !
 ! D101  D(43,17,18,46)        105.7609         estimate D2E/DX2                !
 ! D102  D(44,17,18,19)        109.5138         estimate D2E/DX2                !
 ! D103  D(44,17,18,45)       -131.9846         estimate D2E/DX2                !
 ! D104  D(44,17,18,46)        -12.9227         estimate D2E/DX2                !
 ! D105  D(17,18,19,15)         31.941          estimate D2E/DX2                !
 ! D106  D(17,18,19,47)        -85.2759         estimate D2E/DX2                !
 ! D107  D(17,18,19,48)        154.8573         estimate D2E/DX2                !
 ! D108  D(45,18,19,15)        -86.8421         estimate D2E/DX2                !
 ! D109  D(45,18,19,47)        155.9411         estimate D2E/DX2                !
 ! D110  D(45,18,19,48)         36.0742         estimate D2E/DX2                !
 ! D111  D(46,18,19,15)        154.4962         estimate D2E/DX2                !
 ! D112  D(46,18,19,47)         37.2793         estimate D2E/DX2                !
 ! D113  D(46,18,19,48)        -82.5875         estimate D2E/DX2                !
 ! D114  D(13,20,21,22)       -178.7755         estimate D2E/DX2                !
 ! D115  D(13,20,21,49)          2.5881         estimate D2E/DX2                !
 ! D116  D(25,20,21,22)          1.1208         estimate D2E/DX2                !
 ! D117  D(25,20,21,49)       -177.5156         estimate D2E/DX2                !
 ! D118  D(13,20,25,24)        179.14           estimate D2E/DX2                !
 ! D119  D(13,20,25,52)         -1.7713         estimate D2E/DX2                !
 ! D120  D(21,20,25,24)         -0.7548         estimate D2E/DX2                !
 ! D121  D(21,20,25,52)        178.334          estimate D2E/DX2                !
 ! D122  D(20,21,22,23)         -0.6582         estimate D2E/DX2                !
 ! D123  D(20,21,22,50)       -178.5607         estimate D2E/DX2                !
 ! D124  D(49,21,22,23)        177.9777         estimate D2E/DX2                !
 ! D125  D(49,21,22,50)          0.0752         estimate D2E/DX2                !
 ! D126  D(21,22,23,24)         -0.1763         estimate D2E/DX2                !
 ! D127  D(21,22,23,26)       -179.8259         estimate D2E/DX2                !
 ! D128  D(50,22,23,24)        177.7149         estimate D2E/DX2                !
 ! D129  D(50,22,23,26)         -1.9348         estimate D2E/DX2                !
 ! D130  D(22,23,24,25)          0.5444         estimate D2E/DX2                !
 ! D131  D(22,23,24,51)        179.4395         estimate D2E/DX2                !
 ! D132  D(26,23,24,25)       -179.8059         estimate D2E/DX2                !
 ! D133  D(26,23,24,51)         -0.9108         estimate D2E/DX2                !
 ! D134  D(22,23,26,27)        -43.9271         estimate D2E/DX2                !
 ! D135  D(22,23,26,31)        136.0135         estimate D2E/DX2                !
 ! D136  D(24,23,26,27)        136.433          estimate D2E/DX2                !
 ! D137  D(24,23,26,31)        -43.6263         estimate D2E/DX2                !
 ! D138  D(23,24,25,20)         -0.0803         estimate D2E/DX2                !
 ! D139  D(23,24,25,52)       -179.1655         estimate D2E/DX2                !
 ! D140  D(51,24,25,20)       -178.9812         estimate D2E/DX2                !
 ! D141  D(51,24,25,52)          1.9335         estimate D2E/DX2                !
 ! D142  D(23,26,27,28)       -179.9443         estimate D2E/DX2                !
 ! D143  D(23,26,27,53)         -1.0338         estimate D2E/DX2                !
 ! D144  D(31,26,27,28)          0.1128         estimate D2E/DX2                !
 ! D145  D(31,26,27,53)        179.0233         estimate D2E/DX2                !
 ! D146  D(23,26,31,30)        179.6897         estimate D2E/DX2                !
 ! D147  D(23,26,31,56)         -1.4442         estimate D2E/DX2                !
 ! D148  D(27,26,31,30)         -0.3669         estimate D2E/DX2                !
 ! D149  D(27,26,31,56)        178.4992         estimate D2E/DX2                !
 ! D150  D(26,27,28,29)          0.2052         estimate D2E/DX2                !
 ! D151  D(26,27,28,54)        179.6915         estimate D2E/DX2                !
 ! D152  D(53,27,28,29)       -178.7037         estimate D2E/DX2                !
 ! D153  D(53,27,28,54)          0.7826         estimate D2E/DX2                !
 ! D154  D(27,28,29,30)         -0.3089         estimate D2E/DX2                !
 ! D155  D(27,28,29,55)        179.7111         estimate D2E/DX2                !
 ! D156  D(54,28,29,30)       -179.7981         estimate D2E/DX2                !
 ! D157  D(54,28,29,55)          0.2219         estimate D2E/DX2                !
 ! D158  D(28,29,30,31)          0.0704         estimate D2E/DX2                !
 ! D159  D(55,29,30,31)       -179.9486         estimate D2E/DX2                !
 ! D160  D(29,30,31,26)          0.2788         estimate D2E/DX2                !
 ! D161  D(29,30,31,56)       -178.6354         estimate D2E/DX2                !
 --------------------------------------------------------------------------------
 Trust Radius=3.00D-01 FncErr=1.00D-07 GrdErr=1.00D-06
 Number of steps in this run=    336 maximum allowed number of steps=    336.
 GradGradGradGradGradGradGradGradGradGradGradGradGradGradGradGradGradGrad

 Leave Link  103 at Sun Sep  4 22:09:28 2022, MaxMem=  209715200 cpu:       0.1
 (Enter /opt/gaussian/l202.exe)
 Stoichiometry    C25H25N5O
 Framework group  C1[X(C25H25N5O)]
 Deg. of freedom   162
 Full point group                 C1      NOp   1
 Largest Abelian subgroup         C1      NOp   1
 Largest concise Abelian subgroup C1      NOp   1
                         Standard orientation:                         
 ---------------------------------------------------------------------
 Center     Atomic      Atomic             Coordinates (Angstroms)
 Number     Number       Type             X           Y           Z
 ---------------------------------------------------------------------
      1          8           0        1.227070   -1.253580   -0.319220
      2          6           0        1.352450   -0.086590   -0.662000
      3          6           0        2.732730    0.473930   -0.982780
      4          7           0        3.760480   -0.519380   -0.905950
      5          7           0        4.345300   -0.962240   -2.056140
      6          7           0        5.221610   -1.834550   -1.777290
      7          6           0        5.252270   -2.016340   -0.404130
      8          6           0        6.043610   -2.853070    0.382180
      9          6           0        5.849260   -2.808390    1.740530
     10          6           0        4.879830   -1.951600    2.308930
     11          6           0        4.093190   -1.127660    1.540630
     12          6           0        4.302320   -1.173780    0.159680
     13          7           0        0.291410    0.769890   -0.769500
     14          6           0        0.429140    2.195760   -1.115130
     15          6           0        0.640280    3.135140    0.076250
     16          6           0        0.973060    4.572890   -0.376150
     17          6           0        0.618860    5.483000    0.825260
     18          6           0       -0.229210    4.610600    1.788810
     19          6           0       -0.575390    3.337370    0.997130
     20          6           0       -1.033390    0.252420   -0.562700
     21          6           0       -1.941190    0.251750   -1.611580
     22          6           0       -3.230160   -0.219910   -1.423030
     23          6           0       -3.636870   -0.714110   -0.185720
     24          6           0       -2.709380   -0.723980    0.855580
     25          6           0       -1.423480   -0.246290    0.671380
     26          6           0       -5.016290   -1.223280    0.016720
     27          6           0       -6.129430   -0.545740   -0.476500
     28          6           0       -7.398430   -1.059301   -0.261660
     29          6           0       -7.526680   -2.241531    0.448210
     30          7           0       -6.469460   -2.897741    0.922070
     31          6           0       -5.251220   -2.408310    0.712300
     32          1           0        2.756500    0.848480   -1.994710
     33          1           0        2.965690    1.294970   -0.316920
     34          1           0        6.768580   -3.498970   -0.070410
     35          1           0        6.432480   -3.433820    2.387020
     36          1           0        4.751260   -1.954080    3.374020
     37          1           0        3.343250   -0.502490    1.980710
     38          1           0        1.241460    2.316070   -1.818700
     39          1           0       -0.468760    2.490350   -1.639630
     40          1           0        1.463810    2.760380    0.680990
     41          1           0        2.006750    4.677800   -0.685370
     42          1           0        0.357650    4.830330   -1.234560
     43          1           0        1.513400    5.843980    1.318230
     44          1           0        0.069360    6.356700    0.497160
     45          1           0        0.351290    4.350190    2.667730
     46          1           0       -1.114830    5.126630    2.137900
     47          1           0       -1.464810    3.497740    0.392940
     48          1           0       -0.771200    2.489690    1.639230
     49          1           0       -1.636470    0.598340   -2.580080
     50          1           0       -3.910250   -0.233710   -2.252590
     51          1           0       -2.997900   -1.090530    1.821330
     52          1           0       -0.720360   -0.273840    1.478310
     53          1           0       -6.004320    0.379240   -1.005380
     54          1           0       -8.267350   -0.550721   -0.628600
     55          1           0       -8.485460   -2.675291    0.643780
     56          1           0       -4.436980   -2.988460    1.095790
 ---------------------------------------------------------------------
 Rotational constants (GHZ):      0.1898672      0.0696609      0.0569091
 Leave Link  202 at Sun Sep  4 22:09:28 2022, MaxMem=  209715200 cpu:       0.0
 (Enter /opt/gaussian/l301.exe)
 Standard basis: CC-pVDZ (5D, 7F)
 Ernie: Thresh=  0.10000D-02 Tol=  0.10000D-05 Strict=F.
 Ernie:  62 primitive shells out of 807 were deleted.
 There are   559 symmetry adapted basis functions of A   symmetry.
 Integral buffers will be    131072 words long.
 Raffenetti 2 integral format.
 Two-electron integral symmetry is turned on.
   559 basis functions,  1198 primitive gaussians,   590 cartesian basis functions
   109 alpha electrons      109 beta electrons
       nuclear repulsion energy      2814.0894409058 Hartrees.
 IExCor=  402 DFT=T Ex+Corr=B3LYP ExCW=0 ScaHFX=  0.200000
 ScaDFX=  0.800000  0.720000  1.000000  0.810000 ScalE2=  1.000000  1.000000
 IRadAn=      0 IRanWt=     -1 IRanGd=            0 ICorTp=0
 NAtoms=   56 NActive=   56 NUniq=   56 SFac= 1.00D+00 NAtFMM=   60 NAOKFM=F Big=F
 Leave Link  301 at Sun Sep  4 22:09:28 2022, MaxMem=  209715200 cpu:       0.3
 (Enter /opt/gaussian/l302.exe)
 NPDir=0 NMtPBC=     1 NCelOv=     1 NCel=       1 NClECP=     1 NCelD=      1
         NCelK=      1 NCelE2=     1 NClLst=     1 CellRange=     0.0.
 One-electron integrals computed using PRISM.
 NBasis=   559 RedAO= T  NBF=   559
 NBsUse=   559 1.00D-06 NBFU=   559
 Precomputing XC quadrature grid using
 IXCGrd= 2 IRadAn=           0 IRanWt=          -1 IRanGd=           0 AccXCQ= 0.00D+00.
 NRdTot=    3619 NPtTot=      462678 NUsed=      488752 NTot=      488784
 NSgBfM=   570   572   572   573   573 NAtAll=    56    56.
 Leave Link  302 at Sun Sep  4 22:09:29 2022, MaxMem=  209715200 cpu:       8.5
 (Enter /opt/gaussian/l303.exe)
 DipDrv:  MaxL=1.
 Leave Link  303 at Sun Sep  4 22:09:29 2022, MaxMem=  209715200 cpu:       1.2
 (Enter /opt/gaussian/l401.exe)
 Harris functional with IExCor=  402 diagonalized for initial guess.
 ExpMin= 1.22D-01 ExpMax= 1.17D+04 ExpMxC= 4.01D+02 IAcc=1 IRadAn=         1 AccDes= 0.00D+00
 HarFok:  IExCor=  402 AccDes= 0.00D+00 IRadAn=         1 IDoV= 1
 ScaDFX=  1.000000  1.000000  1.000000  1.000000
 FoFCou: FMM=F IPFlag=           0 FMFlag=      100000 FMFlg1=           0
         NFxFlg=           0 DoJE=T BraDBF=F KetDBF=T FulRan=T
         Omega=  0.000000  0.000000  1.000000  0.000000  0.000000 ICntrl=     500 IOpCl=  0
         NMat0=    1 NMatS0=    1 NMatT0=    0 NMatD0=    1 NMtDS0=    0 NMtDT0=    0
         I1Cent=           4 NGrid=           0.
 Petite list used in FoFCou.
 Harris En= -1316.62202397253    
 Initial guess orbital symmetries:
       Occupied  (A) (A) (A) (A) (A) (A) (A) (A) (A) (A) (A) (A)
                 (A) (A) (A) (A) (A) (A) (A) (A) (A) (A) (A) (A)
                 (A) (A) (A) (A) (A) (A) (A) (A) (A) (A) (A) (A)
                 (A) (A) (A) (A) (A) (A) (A) (A) (A) (A) (A) (A)
                 (A) (A) (A) (A) (A) (A) (A) (A) (A) (A) (A) (A)
                 (A) (A) (A) (A) (A) (A) (A) (A) (A) (A) (A) (A)
                 (A) (A) (A) (A) (A) (A) (A) (A) (A) (A) (A) (A)
                 (A) (A) (A) (A) (A) (A) (A) (A) (A) (A) (A) (A)
                 (A) (A) (A) (A) (A) (A) (A) (A) (A) (A) (A) (A)
                 (A)
       Virtual   (A) (A) (A) (A) (A) (A) (A) (A) (A) (A) (A) (A)
                 (A) (A) (A) (A) (A) (A) (A) (A) (A) (A) (A) (A)
                 (A) (A) (A) (A) (A) (A) (A) (A) (A) (A) (A) (A)
                 (A) (A) (A) (A) (A) (A) (A) (A) (A) (A) (A) (A)
                 (A) (A) (A) (A) (A) (A) (A) (A) (A) (A) (A) (A)
                 (A) (A) (A) (A) (A) (A) (A) (A) (A) (A) (A) (A)
                 (A) (A) (A) (A) (A) (A) (A) (A) (A) (A) (A) (A)
                 (A) (A) (A) (A) (A) (A) (A) (A) (A) (A) (A) (A)
                 (A) (A) (A) (A) (A) (A) (A) (A) (A) (A) (A) (A)
                 (A) (A) (A) (A) (A) (A) (A) (A) (A) (A) (A) (A)
                 (A) (A) (A) (A) (A) (A) (A) (A) (A) (A) (A) (A)
                 (A) (A) (A) (A) (A) (A) (A) (A) (A) (A) (A) (A)
                 (A) (A) (A) (A) (A) (A) (A) (A) (A) (A) (A) (A)
                 (A) (A) (A) (A) (A) (A) (A) (A) (A) (A) (A) (A)
                 (A) (A) (A) (A) (A) (A) (A) (A) (A) (A) (A) (A)
                 (A) (A) (A) (A) (A) (A) (A) (A) (A) (A) (A) (A)
                 (A) (A) (A) (A) (A) (A) (A) (A) (A) (A) (A) (A)
                 (A) (A) (A) (A) (A) (A) (A) (A) (A) (A) (A) (A)
                 (A) (A) (A) (A) (A) (A) (A) (A) (A) (A) (A) (A)
                 (A) (A) (A) (A) (A) (A) (A) (A) (A) (A) (A) (A)
                 (A) (A) (A) (A) (A) (A) (A) (A) (A) (A) (A) (A)
                 (A) (A) (A) (A) (A) (A) (A) (A) (A) (A) (A) (A)
                 (A) (A) (A) (A) (A) (A) (A) (A) (A) (A) (A) (A)
                 (A) (A) (A) (A) (A) (A) (A) (A) (A) (A) (A) (A)
                 (A) (A) (A) (A) (A) (A) (A) (A) (A) (A) (A) (A)
                 (A) (A) (A) (A) (A) (A) (A) (A) (A) (A) (A) (A)
                 (A) (A) (A) (A) (A) (A) (A) (A) (A) (A) (A) (A)
                 (A) (A) (A) (A) (A) (A) (A) (A) (A) (A) (A) (A)
                 (A) (A) (A) (A) (A) (A) (A) (A) (A) (A) (A) (A)
                 (A) (A) (A) (A) (A) (A) (A) (A) (A) (A) (A) (A)
                 (A) (A) (A) (A) (A) (A) (A) (A) (A) (A) (A) (A)
                 (A) (A) (A) (A) (A) (A) (A) (A) (A) (A) (A) (A)
                 (A) (A) (A) (A) (A) (A) (A) (A) (A) (A) (A) (A)
                 (A) (A) (A) (A) (A) (A) (A) (A) (A) (A) (A) (A)
                 (A) (A) (A) (A) (A) (A) (A) (A) (A) (A) (A) (A)
                 (A) (A) (A) (A) (A) (A) (A) (A) (A) (A) (A) (A)
                 (A) (A) (A) (A) (A) (A) (A) (A) (A) (A) (A) (A)
                 (A) (A) (A) (A) (A) (A)
 The electronic state of the initial guess is 1-A.
 Leave Link  401 at Sun Sep  4 22:09:31 2022, MaxMem=  209715200 cpu:      15.3
 (Enter /opt/gaussian/l502.exe)
 Closed shell SCF:
 Requested convergence on RMS density matrix=1.00D-08 within 128 cycles.
 Requested convergence on MAX density matrix=1.00D-06.
 Requested convergence on             energy=1.00D-06.
 No special actions if energy rises.
 Using DIIS extrapolation, IDIIS=  1040.
 Integral symmetry usage will be decided dynamically.
       488235 words used for storage of precomputed grid.
 IEnd=     1559873 IEndB=     1559873 NGot=   209715200 MDV=   208520658
 LenX=   208520658 LenY=   208171968
 Fock matrices will be formed incrementally for  20 cycles.
 Integral accuracy reduced to 1.0D-05 until final iterations.

 Cycle   1  Pass 0  IDiag  1:
 FoFCou: FMM=F IPFlag=           0 FMFlag=      100000 FMFlg1=           0
         NFxFlg=           0 DoJE=F BraDBF=F KetDBF=F FulRan=T
         Omega=  0.000000  0.000000  1.000000  0.000000  0.000000 ICntrl=       0 IOpCl=  0
         NMat0=    1 NMatS0=    1 NMatT0=    0 NMatD0=    1 NMtDS0=    0 NMtDT0=    0
         I1Cent=           0 NGrid=           0.
 Symmetry not used in FoFCou.
 E= -1316.10773205362    
 DIIS: error= 2.93D-02 at cycle   1 NSaved=   1.
 NSaved= 1 IEnMin= 1 EnMin= -1316.10773205362     IErMin= 1 ErrMin= 2.93D-02
 ErrMax= 2.93D-02 EMaxC= 1.00D-01 BMatC= 5.70D-01 BMatP= 5.70D-01
 IDIUse=3 WtCom= 7.07D-01 WtEn= 2.93D-01
 Coeff-Com:  0.100D+01
 Coeff-En:   0.100D+01
 Coeff:      0.100D+01
 Gap=     0.252 Goal=   None    Shift=    0.000
 GapD=    0.252 DampG=1.000 DampE=0.500 DampFc=0.5000 IDamp=-1.
 Damping current iteration by 5.00D-01
 RMSDP=3.90D-03 MaxDP=2.25D-01              OVMax= 2.87D-01

 Cycle   2  Pass 0  IDiag  1:
 RMSU=  1.36D-03    CP:  9.77D-01
 E= -1316.28731552144     Delta-E=       -0.179583467820 Rises=F Damp=T
 DIIS: error= 1.05D-02 at cycle   2 NSaved=   2.
 NSaved= 2 IEnMin= 2 EnMin= -1316.28731552144     IErMin= 2 ErrMin= 1.05D-02
 ErrMax= 1.05D-02 EMaxC= 1.00D-01 BMatC= 1.06D-01 BMatP= 5.70D-01
 IDIUse=3 WtCom= 8.95D-01 WtEn= 1.05D-01
 Coeff-Com:  0.224D+00 0.776D+00
 Coeff-En:   0.324D+00 0.676D+00
 Coeff:      0.234D+00 0.766D+00
 Gap=     0.243 Goal=   None    Shift=    0.000
 RMSDP=1.34D-03 MaxDP=8.46D-02 DE=-1.80D-01 OVMax= 3.23D-01

 Cycle   3  Pass 0  IDiag  1:
 RMSU=  8.94D-04    CP:  9.62D-01  8.02D-01
 E= -1316.63885586544     Delta-E=       -0.351540344005 Rises=F Damp=F
 DIIS: error= 1.37D-02 at cycle   3 NSaved=   3.
 NSaved= 3 IEnMin= 3 EnMin= -1316.63885586544     IErMin= 2 ErrMin= 1.05D-02
 ErrMax= 1.37D-02 EMaxC= 1.00D-01 BMatC= 1.11D-01 BMatP= 1.06D-01
 IDIUse=3 WtCom= 8.63D-01 WtEn= 1.37D-01
 Coeff-Com:  0.559D-01 0.496D+00 0.449D+00
 Coeff-En:   0.000D+00 0.000D+00 0.100D+01
 Coeff:      0.482D-01 0.427D+00 0.524D+00
 Gap=     0.197 Goal=   None    Shift=    0.000
 RMSDP=8.30D-04 MaxDP=7.67D-02 DE=-3.52D-01 OVMax= 1.13D-01

 Cycle   4  Pass 0  IDiag  1:
 RMSU=  3.72D-04    CP:  9.66D-01  9.24D-01  5.28D-01
 E= -1316.71777383067     Delta-E=       -0.078917965222 Rises=F Damp=F
 DIIS: error= 5.81D-03 at cycle   4 NSaved=   4.
 NSaved= 4 IEnMin= 4 EnMin= -1316.71777383067     IErMin= 4 ErrMin= 5.81D-03
 ErrMax= 5.81D-03 EMaxC= 1.00D-01 BMatC= 2.62D-02 BMatP= 1.06D-01
 IDIUse=3 WtCom= 9.42D-01 WtEn= 5.81D-02
 Coeff-Com:  0.165D-01 0.131D+00 0.337D+00 0.515D+00
 Coeff-En:   0.000D+00 0.000D+00 0.224D+00 0.776D+00
 Coeff:      0.155D-01 0.124D+00 0.330D+00 0.530D+00
 Gap=     0.188 Goal=   None    Shift=    0.000
 RMSDP=3.22D-04 MaxDP=2.71D-02 DE=-7.89D-02 OVMax= 3.37D-02

 Cycle   5  Pass 0  IDiag  1:
 RMSU=  1.15D-04    CP:  9.65D-01  8.69D-01  6.57D-01  6.22D-01
 E= -1316.73925635370     Delta-E=       -0.021482523037 Rises=F Damp=F
 DIIS: error= 1.07D-03 at cycle   5 NSaved=   5.
 NSaved= 5 IEnMin= 5 EnMin= -1316.73925635370     IErMin= 5 ErrMin= 1.07D-03
 ErrMax= 1.07D-03 EMaxC= 1.00D-01 BMatC= 1.29D-03 BMatP= 2.62D-02
 IDIUse=3 WtCom= 9.89D-01 WtEn= 1.07D-02
 Coeff-Com:  0.358D-02 0.214D-01 0.137D+00 0.302D+00 0.536D+00
 Coeff-En:   0.000D+00 0.000D+00 0.000D+00 0.000D+00 0.100D+01
 Coeff:      0.354D-02 0.211D-01 0.135D+00 0.299D+00 0.541D+00
 Gap=     0.187 Goal=   None    Shift=    0.000
 RMSDP=9.79D-05 MaxDP=4.50D-03 DE=-2.15D-02 OVMax= 1.37D-02

 Cycle   6  Pass 0  IDiag  1:
 RMSU=  3.64D-05    CP:  9.65D-01  8.76D-01  6.59D-01  6.67D-01  5.15D-01
 E= -1316.74041555711     Delta-E=       -0.001159203402 Rises=F Damp=F
 DIIS: error= 5.09D-04 at cycle   6 NSaved=   6.
 NSaved= 6 IEnMin= 6 EnMin= -1316.74041555711     IErMin= 6 ErrMin= 5.09D-04
 ErrMax= 5.09D-04 EMaxC= 1.00D-01 BMatC= 1.90D-04 BMatP= 1.29D-03
 IDIUse=3 WtCom= 9.95D-01 WtEn= 5.09D-03
 Coeff-Com:  0.326D-03-0.320D-02 0.394D-01 0.112D+00 0.332D+00 0.520D+00
 Coeff-En:   0.000D+00 0.000D+00 0.000D+00 0.000D+00 0.132D+00 0.868D+00
 Coeff:      0.324D-03-0.318D-02 0.392D-01 0.111D+00 0.331D+00 0.522D+00
 Gap=     0.187 Goal=   None    Shift=    0.000
 RMSDP=3.25D-05 MaxDP=1.68D-03 DE=-1.16D-03 OVMax= 5.12D-03

 Cycle   7  Pass 0  IDiag  1:
 RMSU=  1.24D-05    CP:  9.65D-01  8.76D-01  6.61D-01  6.66D-01  6.10D-01
                    CP:  5.65D-01
 E= -1316.74061060431     Delta-E=       -0.000195047206 Rises=F Damp=F
 DIIS: error= 1.86D-04 at cycle   7 NSaved=   7.
 NSaved= 7 IEnMin= 7 EnMin= -1316.74061060431     IErMin= 7 ErrMin= 1.86D-04
 ErrMax= 1.86D-04 EMaxC= 1.00D-01 BMatC= 2.02D-05 BMatP= 1.90D-04
 IDIUse=3 WtCom= 9.98D-01 WtEn= 1.86D-03
 Coeff-Com:  0.139D-04-0.396D-02 0.105D-01 0.364D-01 0.148D+00 0.318D+00
 Coeff-Com:  0.491D+00
 Coeff-En:   0.000D+00 0.000D+00 0.000D+00 0.000D+00 0.000D+00 0.371D-01
 Coeff-En:   0.963D+00
 Coeff:      0.139D-04-0.395D-02 0.105D-01 0.364D-01 0.148D+00 0.317D+00
 Coeff:      0.492D+00
 Gap=     0.187 Goal=   None    Shift=    0.000
 RMSDP=9.48D-06 MaxDP=4.34D-04 DE=-1.95D-04 OVMax= 1.06D-03

 Initial convergence to 1.0D-05 achieved.  Increase integral accuracy.
 Cycle   8  Pass 1  IDiag  1:
 E= -1316.74071288695     Delta-E=       -0.000102282641 Rises=F Damp=F
 DIIS: error= 1.57D-04 at cycle   1 NSaved=   1.
 NSaved= 1 IEnMin= 1 EnMin= -1316.74071288695     IErMin= 1 ErrMin= 1.57D-04
 ErrMax= 1.57D-04 EMaxC= 1.00D-01 BMatC= 9.70D-06 BMatP= 9.70D-06
 IDIUse=3 WtCom= 9.98D-01 WtEn= 1.57D-03
 Coeff-Com:  0.100D+01
 Coeff-En:   0.100D+01
 Coeff:      0.100D+01
 Gap=     0.187 Goal=   None    Shift=    0.000
 RMSDP=9.48D-06 MaxDP=4.34D-04 DE=-1.02D-04 OVMax= 8.21D-04

 Cycle   9  Pass 1  IDiag  1:
 RMSU=  7.37D-05    CP:  1.00D+00
 E= -1316.74071685044     Delta-E=       -0.000003963492 Rises=F Damp=F
 DIIS: error= 1.36D-04 at cycle   2 NSaved=   2.
 NSaved= 2 IEnMin= 2 EnMin= -1316.74071685044     IErMin= 2 ErrMin= 1.36D-04
 ErrMax= 1.36D-04 EMaxC= 1.00D-01 BMatC= 4.89D-06 BMatP= 9.70D-06
 IDIUse=3 WtCom= 9.99D-01 WtEn= 1.36D-03
 Coeff-Com:  0.373D+00 0.627D+00
 Coeff-En:   0.245D+00 0.755D+00
 Coeff:      0.373D+00 0.627D+00
 Gap=     0.187 Goal=   None    Shift=    0.000
 RMSDP=8.55D-06 MaxDP=4.61D-04 DE=-3.96D-06 OVMax= 1.14D-03

 Cycle  10  Pass 1  IDiag  1:
 RMSU=  6.05D-06    CP:  1.00D+00  1.00D+00
 E= -1316.74071661408     Delta-E=        0.000000236369 Rises=F Damp=F
 DIIS: error= 1.45D-04 at cycle   3 NSaved=   3.
 NSaved= 3 IEnMin= 2 EnMin= -1316.74071685044     IErMin= 2 ErrMin= 1.36D-04
 ErrMax= 1.45D-04 EMaxC= 1.00D-01 BMatC= 5.12D-06 BMatP= 4.89D-06
 IDIUse=3 WtCom= 9.99D-01 WtEn= 1.45D-03
 Coeff-Com:  0.537D-02 0.504D+00 0.490D+00
 Coeff-En:   0.000D+00 0.508D+00 0.492D+00
 Coeff:      0.537D-02 0.504D+00 0.490D+00
 Gap=     0.187 Goal=   None    Shift=    0.000
 RMSDP=4.50D-06 MaxDP=2.54D-04 DE= 2.36D-07 OVMax= 6.19D-04

 Cycle  11  Pass 1  IDiag  1:
 RMSU=  7.68D-07    CP:  1.00D+00  1.01D+00  4.97D-01
 E= -1316.74072212927     Delta-E=       -0.000005515191 Rises=F Damp=F
 DIIS: error= 9.25D-06 at cycle   4 NSaved=   4.
 NSaved= 4 IEnMin= 4 EnMin= -1316.74072212927     IErMin= 4 ErrMin= 9.25D-06
 ErrMax= 9.25D-06 EMaxC= 1.00D-01 BMatC= 1.28D-07 BMatP= 4.89D-06
 IDIUse=1 WtCom= 1.00D+00 WtEn= 0.00D+00
 Coeff-Com: -0.371D-02 0.315D+00 0.316D+00 0.373D+00
 Coeff:     -0.371D-02 0.315D+00 0.316D+00 0.373D+00
 Gap=     0.187 Goal=   None    Shift=    0.000
 RMSDP=6.91D-07 MaxDP=4.11D-05 DE=-5.52D-06 OVMax= 8.16D-05

 Cycle  12  Pass 1  IDiag  1:
 RMSU=  2.15D-07    CP:  1.00D+00  1.01D+00  5.06D-01  4.32D-01
 E= -1316.74072224821     Delta-E=       -0.000000118943 Rises=F Damp=F
 DIIS: error= 1.41D-06 at cycle   5 NSaved=   5.
 NSaved= 5 IEnMin= 5 EnMin= -1316.74072224821     IErMin= 5 ErrMin= 1.41D-06
 ErrMax= 1.41D-06 EMaxC= 1.00D-01 BMatC= 2.92D-09 BMatP= 1.28D-07
 IDIUse=1 WtCom= 1.00D+00 WtEn= 0.00D+00
 Coeff-Com: -0.237D-02 0.159D+00 0.160D+00 0.215D+00 0.469D+00
 Coeff:     -0.237D-02 0.159D+00 0.160D+00 0.215D+00 0.469D+00
 Gap=     0.187 Goal=   None    Shift=    0.000
 RMSDP=1.20D-07 MaxDP=1.12D-05 DE=-1.19D-07 OVMax= 1.45D-05

 Cycle  13  Pass 1  IDiag  1:
 RMSU=  6.71D-08    CP:  1.00D+00  1.01D+00  5.06D-01  4.54D-01  7.70D-01
 E= -1316.74072225064     Delta-E=       -0.000000002430 Rises=F Damp=F
 DIIS: error= 8.32D-07 at cycle   6 NSaved=   6.
 NSaved= 6 IEnMin= 6 EnMin= -1316.74072225064     IErMin= 6 ErrMin= 8.32D-07
 ErrMax= 8.32D-07 EMaxC= 1.00D-01 BMatC= 3.77D-10 BMatP= 2.92D-09
 IDIUse=1 WtCom= 1.00D+00 WtEn= 0.00D+00
 Coeff-Com: -0.100D-02 0.594D-01 0.594D-01 0.886D-01 0.290D+00 0.504D+00
 Coeff:     -0.100D-02 0.594D-01 0.594D-01 0.886D-01 0.290D+00 0.504D+00
 Gap=     0.187 Goal=   None    Shift=    0.000
 RMSDP=4.23D-08 MaxDP=3.93D-06 DE=-2.43D-09 OVMax= 4.74D-06

 Cycle  14  Pass 1  IDiag  1:
 RMSU=  2.12D-08    CP:  1.00D+00  1.01D+00  5.06D-01  4.60D-01  8.10D-01
                    CP:  7.33D-01
 E= -1316.74072225089     Delta-E=       -0.000000000255 Rises=F Damp=F
 DIIS: error= 2.72D-07 at cycle   7 NSaved=   7.
 NSaved= 7 IEnMin= 7 EnMin= -1316.74072225089     IErMin= 7 ErrMin= 2.72D-07
 ErrMax= 2.72D-07 EMaxC= 1.00D-01 BMatC= 3.32D-11 BMatP= 3.77D-10
 IDIUse=1 WtCom= 1.00D+00 WtEn= 0.00D+00
 Coeff-Com: -0.211D-03 0.102D-01 0.994D-02 0.186D-01 0.859D-01 0.274D+00
 Coeff-Com:  0.602D+00
 Coeff:     -0.211D-03 0.102D-01 0.994D-02 0.186D-01 0.859D-01 0.274D+00
 Coeff:      0.602D+00
 Gap=     0.187 Goal=   None    Shift=    0.000
 RMSDP=1.39D-08 MaxDP=1.02D-06 DE=-2.55D-10 OVMax= 1.76D-06

 Cycle  15  Pass 1  IDiag  1:
 RMSU=  6.97D-09    CP:  1.00D+00  1.01D+00  5.05D-01  4.59D-01  8.16D-01
                    CP:  7.79D-01  7.15D-01
 E= -1316.74072225091     Delta-E=       -0.000000000014 Rises=F Damp=F
 DIIS: error= 9.88D-08 at cycle   8 NSaved=   8.
 NSaved= 8 IEnMin= 8 EnMin= -1316.74072225091     IErMin= 8 ErrMin= 9.88D-08
 ErrMax= 9.88D-08 EMaxC= 1.00D-01 BMatC= 6.24D-12 BMatP= 3.32D-11
 IDIUse=1 WtCom= 1.00D+00 WtEn= 0.00D+00
 Coeff-Com:  0.150D-04-0.238D-02-0.254D-02-0.137D-02 0.854D-02 0.955D-01
 Coeff-Com:  0.368D+00 0.534D+00
 Coeff:      0.150D-04-0.238D-02-0.254D-02-0.137D-02 0.854D-02 0.955D-01
 Coeff:      0.368D+00 0.534D+00
 Gap=     0.187 Goal=   None    Shift=    0.000
 RMSDP=5.44D-09 MaxDP=2.92D-07 DE=-1.36D-11 OVMax= 1.11D-06

 SCF Done:  E(RB3LYP) =  -1316.74072225     A.U. after   15 cycles
             Convg  =    0.5436D-08             -V/T =  2.0059
 KE= 1.309020570751D+03 PE=-8.686650178978D+03 EE= 3.246799445070D+03
 Leave Link  502 at Sun Sep  4 22:21:54 2022, MaxMem=  209715200 cpu:    5923.7
 (Enter /opt/gaussian/l601.exe)
 Copying SCF densities to generalized density rwf, IOpCl= 0 IROHF=0.

 **********************************************************************

            Population analysis using the SCF density.

 **********************************************************************

 Orbital symmetries:
       Occupied  (A) (A) (A) (A) (A) (A) (A) (A) (A) (A) (A) (A)
                 (A) (A) (A) (A) (A) (A) (A) (A) (A) (A) (A) (A)
                 (A) (A) (A) (A) (A) (A) (A) (A) (A) (A) (A) (A)
                 (A) (A) (A) (A) (A) (A) (A) (A) (A) (A) (A) (A)
                 (A) (A) (A) (A) (A) (A) (A) (A) (A) (A) (A) (A)
                 (A) (A) (A) (A) (A) (A) (A) (A) (A) (A) (A) (A)
                 (A) (A) (A) (A) (A) (A) (A) (A) (A) (A) (A) (A)
                 (A) (A) (A) (A) (A) (A) (A) (A) (A) (A) (A) (A)
                 (A) (A) (A) (A) (A) (A) (A) (A) (A) (A) (A) (A)
                 (A)
       Virtual   (A) (A) (A) (A) (A) (A) (A) (A) (A) (A) (A) (A)
                 (A) (A) (A) (A) (A) (A) (A) (A) (A) (A) (A) (A)
                 (A) (A) (A) (A) (A) (A) (A) (A) (A) (A) (A) (A)
                 (A) (A) (A) (A) (A) (A) (A) (A) (A) (A) (A) (A)
                 (A) (A) (A) (A) (A) (A) (A) (A) (A) (A) (A) (A)
                 (A) (A) (A) (A) (A) (A) (A) (A) (A) (A) (A) (A)
                 (A) (A) (A) (A) (A) (A) (A) (A) (A) (A) (A) (A)
                 (A) (A) (A) (A) (A) (A) (A) (A) (A) (A) (A) (A)
                 (A) (A) (A) (A) (A) (A) (A) (A) (A) (A) (A) (A)
                 (A) (A) (A) (A) (A) (A) (A) (A) (A) (A) (A) (A)
                 (A) (A) (A) (A) (A) (A) (A) (A) (A) (A) (A) (A)
                 (A) (A) (A) (A) (A) (A) (A) (A) (A) (A) (A) (A)
                 (A) (A) (A) (A) (A) (A) (A) (A) (A) (A) (A) (A)
                 (A) (A) (A) (A) (A) (A) (A) (A) (A) (A) (A) (A)
                 (A) (A) (A) (A) (A) (A) (A) (A) (A) (A) (A) (A)
                 (A) (A) (A) (A) (A) (A) (A) (A) (A) (A) (A) (A)
                 (A) (A) (A) (A) (A) (A) (A) (A) (A) (A) (A) (A)
                 (A) (A) (A) (A) (A) (A) (A) (A) (A) (A) (A) (A)
                 (A) (A) (A) (A) (A) (A) (A) (A) (A) (A) (A) (A)
                 (A) (A) (A) (A) (A) (A) (A) (A) (A) (A) (A) (A)
                 (A) (A) (A) (A) (A) (A) (A) (A) (A) (A) (A) (A)
                 (A) (A) (A) (A) (A) (A) (A) (A) (A) (A) (A) (A)
                 (A) (A) (A) (A) (A) (A) (A) (A) (A) (A) (A) (A)
                 (A) (A) (A) (A) (A) (A) (A) (A) (A) (A) (A) (A)
                 (A) (A) (A) (A) (A) (A) (A) (A) (A) (A) (A) (A)
                 (A) (A) (A) (A) (A) (A) (A) (A) (A) (A) (A) (A)
                 (A) (A) (A) (A) (A) (A) (A) (A) (A) (A) (A) (A)
                 (A) (A) (A) (A) (A) (A) (A) (A) (A) (A) (A) (A)
                 (A) (A) (A) (A) (A) (A) (A) (A) (A) (A) (A) (A)
                 (A) (A) (A) (A) (A) (A) (A) (A) (A) (A) (A) (A)
                 (A) (A) (A) (A) (A) (A) (A) (A) (A) (A) (A) (A)
                 (A) (A) (A) (A) (A) (A) (A) (A) (A) (A) (A) (A)
                 (A) (A) (A) (A) (A) (A) (A) (A) (A) (A) (A) (A)
                 (A) (A) (A) (A) (A) (A) (A) (A) (A) (A) (A) (A)
                 (A) (A) (A) (A) (A) (A) (A) (A) (A) (A) (A) (A)
                 (A) (A) (A) (A) (A) (A) (A) (A) (A) (A) (A) (A)
                 (A) (A) (A) (A) (A) (A) (A) (A) (A) (A) (A) (A)
                 (A) (A) (A) (A) (A) (A)
 The electronic state is 1-A.
 Alpha  occ. eigenvalues --  -19.11516 -14.40626 -14.38596 -14.37707 -14.34304
 Alpha  occ. eigenvalues --  -14.32573 -10.29885 -10.25171 -10.24180 -10.23840
 Alpha  occ. eigenvalues --  -10.22578 -10.22232 -10.22211 -10.21036 -10.20982
 Alpha  occ. eigenvalues --  -10.20914 -10.20559 -10.20447 -10.20301 -10.20192
 Alpha  occ. eigenvalues --  -10.20050 -10.20042 -10.19981 -10.19761 -10.19504
 Alpha  occ. eigenvalues --  -10.19393 -10.19199 -10.19070 -10.19049 -10.18954
 Alpha  occ. eigenvalues --  -10.18794  -1.09962  -1.05045  -0.95957  -0.94966
 Alpha  occ. eigenvalues --   -0.92683  -0.87853  -0.86861  -0.85548  -0.82190
 Alpha  occ. eigenvalues --   -0.79156  -0.78085  -0.77030  -0.76962  -0.76451
 Alpha  occ. eigenvalues --   -0.75216  -0.73423  -0.72650  -0.68580  -0.66136
 Alpha  occ. eigenvalues --   -0.64912  -0.64672  -0.62661  -0.62192  -0.62121
 Alpha  occ. eigenvalues --   -0.59501  -0.58788  -0.58279  -0.56997  -0.54157
 Alpha  occ. eigenvalues --   -0.53120  -0.52931  -0.52521  -0.51967  -0.50256
 Alpha  occ. eigenvalues --   -0.50150  -0.49111  -0.48884  -0.47199  -0.47023
 Alpha  occ. eigenvalues --   -0.46787  -0.46089  -0.45629  -0.45234  -0.44713
 Alpha  occ. eigenvalues --   -0.44140  -0.43980  -0.43823  -0.43116  -0.41540
 Alpha  occ. eigenvalues --   -0.41037  -0.40828  -0.40533  -0.39694  -0.39111
 Alpha  occ. eigenvalues --   -0.38325  -0.37724  -0.36748  -0.36612  -0.36288
 Alpha  occ. eigenvalues --   -0.36056  -0.35743  -0.35409  -0.35033  -0.34433
 Alpha  occ. eigenvalues --   -0.33826  -0.33196  -0.33106  -0.30949  -0.30348
 Alpha  occ. eigenvalues --   -0.28632  -0.27337  -0.26549  -0.26285  -0.25921
 Alpha  occ. eigenvalues --   -0.25408  -0.24949  -0.23799  -0.23277
 Alpha virt. eigenvalues --   -0.04574  -0.03591  -0.02842  -0.02218  -0.00063
 Alpha virt. eigenvalues --    0.00890   0.01816   0.02760   0.04158   0.04754
 Alpha virt. eigenvalues --    0.05331   0.06285   0.06726   0.07057   0.08078
 Alpha virt. eigenvalues --    0.08206   0.08886   0.08994   0.10377   0.10792
 Alpha virt. eigenvalues --    0.10978   0.11383   0.12142   0.12211   0.12698
 Alpha virt. eigenvalues --    0.12966   0.13599   0.14198   0.14460   0.14812
 Alpha virt. eigenvalues --    0.15154   0.15493   0.15977   0.16700   0.16969
 Alpha virt. eigenvalues --    0.17434   0.18206   0.18329   0.19866   0.20380
 Alpha virt. eigenvalues --    0.20875   0.21263   0.22492   0.22846   0.23110
 Alpha virt. eigenvalues --    0.23855   0.24739   0.25045   0.25636   0.27060
 Alpha virt. eigenvalues --    0.27726   0.28303   0.28546   0.28988   0.29415
 Alpha virt. eigenvalues --    0.30442   0.30754   0.31155   0.31997   0.32895
 Alpha virt. eigenvalues --    0.34015   0.34963   0.36121   0.36933   0.37583
 Alpha virt. eigenvalues --    0.38072   0.38731   0.40065   0.40767   0.41575
 Alpha virt. eigenvalues --    0.42407   0.43505   0.44221   0.44537   0.45216
 Alpha virt. eigenvalues --    0.45624   0.45842   0.46104   0.46446   0.46703
 Alpha virt. eigenvalues --    0.47102   0.47701   0.47754   0.48026   0.48426
 Alpha virt. eigenvalues --    0.49261   0.49346   0.49600   0.50024   0.50439
 Alpha virt. eigenvalues --    0.50588   0.51027   0.51629   0.51932   0.52220
 Alpha virt. eigenvalues --    0.52404   0.53009   0.53216   0.53573   0.54078
 Alpha virt. eigenvalues --    0.54817   0.54854   0.55129   0.55686   0.55948
 Alpha virt. eigenvalues --    0.56608   0.56670   0.57123   0.57892   0.58268
 Alpha virt. eigenvalues --    0.58937   0.59547   0.59719   0.59806   0.60302
 Alpha virt. eigenvalues --    0.60441   0.60859   0.61319   0.61820   0.61901
 Alpha virt. eigenvalues --    0.62449   0.63090   0.63189   0.63822   0.64386
 Alpha virt. eigenvalues --    0.64911   0.65111   0.65332   0.65711   0.66320
 Alpha virt. eigenvalues --    0.66545   0.67215   0.67245   0.67427   0.67745
 Alpha virt. eigenvalues --    0.67814   0.68548   0.68589   0.68928   0.69412
 Alpha virt. eigenvalues --    0.69716   0.69889   0.70294   0.70550   0.71394
 Alpha virt. eigenvalues --    0.71653   0.71755   0.73105   0.73314   0.73593
 Alpha virt. eigenvalues --    0.74983   0.75134   0.75910   0.76605   0.77844
 Alpha virt. eigenvalues --    0.78325   0.79241   0.80217   0.81602   0.82826
 Alpha virt. eigenvalues --    0.83167   0.83678   0.84294   0.85194   0.85319
 Alpha virt. eigenvalues --    0.86156   0.86990   0.87748   0.88059   0.88429
 Alpha virt. eigenvalues --    0.88738   0.89519   0.90170   0.91420   0.91797
 Alpha virt. eigenvalues --    0.92611   0.93015   0.93603   0.93822   0.94706
 Alpha virt. eigenvalues --    0.94774   0.96011   0.96904   0.97164   0.98821
 Alpha virt. eigenvalues --    0.99245   0.99730   1.00327   1.00856   1.01413
 Alpha virt. eigenvalues --    1.01675   1.02154   1.02622   1.03527   1.03828
 Alpha virt. eigenvalues --    1.04108   1.05171   1.05938   1.06386   1.06799
 Alpha virt. eigenvalues --    1.06997   1.08346   1.09078   1.09792   1.10115
 Alpha virt. eigenvalues --    1.11189   1.12175   1.12797   1.13564   1.13729
 Alpha virt. eigenvalues --    1.14538   1.14845   1.16399   1.17212   1.18317
 Alpha virt. eigenvalues --    1.19989   1.20189   1.20346   1.20898   1.21477
 Alpha virt. eigenvalues --    1.22113   1.23570   1.23599   1.24245   1.25206
 Alpha virt. eigenvalues --    1.26060   1.27687   1.28868   1.30365   1.30900
 Alpha virt. eigenvalues --    1.32369   1.33494   1.33656   1.33856   1.34843
 Alpha virt. eigenvalues --    1.35522   1.36701   1.37569   1.38600   1.41613
 Alpha virt. eigenvalues --    1.42037   1.43396   1.44183   1.45936   1.46419
 Alpha virt. eigenvalues --    1.46716   1.47653   1.48619   1.49041   1.49472
 Alpha virt. eigenvalues --    1.49799   1.50523   1.50645   1.51102   1.52406
 Alpha virt. eigenvalues --    1.52705   1.52994   1.53767   1.54173   1.55237
 Alpha virt. eigenvalues --    1.55488   1.56709   1.57044   1.57353   1.58332
 Alpha virt. eigenvalues --    1.58900   1.59220   1.59563   1.60197   1.60320
 Alpha virt. eigenvalues --    1.60797   1.61585   1.62098   1.62421   1.62789
 Alpha virt. eigenvalues --    1.63059   1.63928   1.64019   1.64409   1.64616
 Alpha virt. eigenvalues --    1.65114   1.65528   1.66047   1.66099   1.66801
 Alpha virt. eigenvalues --    1.67055   1.67682   1.68084   1.68465   1.69183
 Alpha virt. eigenvalues --    1.69502   1.69830   1.70522   1.70824   1.71099
 Alpha virt. eigenvalues --    1.71775   1.72101   1.72676   1.72921   1.73154
 Alpha virt. eigenvalues --    1.73847   1.74587   1.75179   1.75820   1.76169
 Alpha virt. eigenvalues --    1.76818   1.77361   1.77703   1.78022   1.78648
 Alpha virt. eigenvalues --    1.78963   1.79273   1.79928   1.80230   1.80714
 Alpha virt. eigenvalues --    1.80876   1.81890   1.82849   1.83057   1.83694
 Alpha virt. eigenvalues --    1.83976   1.84726   1.85050   1.85925   1.86101
 Alpha virt. eigenvalues --    1.86266   1.86972   1.87270   1.87525   1.88093
 Alpha virt. eigenvalues --    1.88545   1.88745   1.89463   1.89861   1.90503
 Alpha virt. eigenvalues --    1.90887   1.91792   1.93477   1.94252   1.95141
 Alpha virt. eigenvalues --    1.96409   1.96472   1.98356   1.98594   1.99649
 Alpha virt. eigenvalues --    2.00180   2.01051   2.01222   2.02183   2.02555
 Alpha virt. eigenvalues --    2.02878   2.03713   2.04870   2.05168   2.05485
 Alpha virt. eigenvalues --    2.05957   2.06864   2.07563   2.08500   2.09444
 Alpha virt. eigenvalues --    2.10593   2.11054   2.12281   2.13466   2.14494
 Alpha virt. eigenvalues --    2.15040   2.15635   2.15930   2.17193   2.18235
 Alpha virt. eigenvalues --    2.19152   2.19476   2.20509   2.21011   2.21587
 Alpha virt. eigenvalues --    2.22427   2.23909   2.24595   2.25935   2.26857
 Alpha virt. eigenvalues --    2.28262   2.29856   2.30522   2.32260   2.34915
 Alpha virt. eigenvalues --    2.36823   2.37043   2.39644   2.40905   2.41717
 Alpha virt. eigenvalues --    2.42526   2.42944   2.43370   2.43645   2.43921
 Alpha virt. eigenvalues --    2.44926   2.46398   2.47053   2.47452   2.47829
 Alpha virt. eigenvalues --    2.48270   2.49094   2.49421   2.50024   2.50533
 Alpha virt. eigenvalues --    2.51996   2.52533   2.54053   2.54835   2.55995
 Alpha virt. eigenvalues --    2.56629   2.57768   2.58684   2.61308   2.61473
 Alpha virt. eigenvalues --    2.63856   2.65153   2.66214   2.67227   2.69410
 Alpha virt. eigenvalues --    2.70644   2.70867   2.71977   2.74251   2.74915
 Alpha virt. eigenvalues --    2.76282   2.76821   2.77901   2.78262   2.80096
 Alpha virt. eigenvalues --    2.80323   2.81083   2.82590   2.83888   2.87039
 Alpha virt. eigenvalues --    2.88292   2.90362   2.94273   2.97547   2.99245
 Alpha virt. eigenvalues --    2.99899   3.00816   3.08704   3.12993   3.17235
 Alpha virt. eigenvalues --    3.42120   3.46175   3.49288   3.59849   3.60713
          Condensed to atoms (all electrons):
 Mulliken atomic charges:
              1
     1  O   -0.251774
     2  C    0.114218
     3  C    0.149994
     4  N   -0.230351
     5  N   -0.055769
     6  N   -0.180319
     7  C   -0.003545
     8  C    0.064013
     9  C    0.049210
    10  C    0.051582
    11  C    0.048082
    12  C    0.214149
    13  N   -0.279788
    14  C    0.164501
    15  C   -0.115954
    16  C    0.040068
    17  C    0.013790
    18  C    0.017200
    19  C    0.053193
    20  C    0.064759
    21  C    0.083414
    22  C    0.043192
    23  C    0.026157
    24  C    0.038189
    25  C    0.111793
    26  C   -0.063482
    27  C    0.096829
    28  C   -0.001613
    29  C    0.121516
    30  N   -0.171900
    31  C    0.121031
    32  H    0.054234
    33  H    0.039361
    34  H   -0.034065
    35  H   -0.038676
    36  H   -0.037645
    37  H   -0.046204
    38  H    0.013713
    39  H    0.007172
    40  H   -0.021966
    41  H   -0.000711
    42  H    0.001019
    43  H    0.004419
    44  H    0.004430
    45  H    0.004471
    46  H   -0.001846
    47  H    0.001194
    48  H    0.001607
    49  H   -0.043137
    50  H   -0.046058
    51  H   -0.043155
    52  H   -0.041743
    53  H   -0.042199
    54  H   -0.035564
    55  H   -0.013700
    56  H   -0.017335
 Sum of Mulliken atomic charges =   0.00000
 Mulliken charges with hydrogens summed into heavy atoms:
              1
     1  O   -0.251774
     2  C    0.114218
     3  C    0.243589
     4  N   -0.230351
     5  N   -0.055769
     6  N   -0.180319
     7  C   -0.003545
     8  C    0.029948
     9  C    0.010533
    10  C    0.013937
    11  C    0.001878
    12  C    0.214149
    13  N   -0.279788
    14  C    0.185385
    15  C   -0.137920
    16  C    0.040377
    17  C    0.022640
    18  C    0.019826
    19  C    0.055994
    20  C    0.064759
    21  C    0.040277
    22  C   -0.002866
    23  C    0.026157
    24  C   -0.004966
    25  C    0.070050
    26  C   -0.063482
    27  C    0.054629
    28  C   -0.037177
    29  C    0.107816
    30  N   -0.171900
    31  C    0.103696
 Sum of Mulliken charges with hydrogens summed into heavy atoms =   0.00000
 Electronic spatial extent (au):  <R**2>=          18428.2247
 Charge=              0.0000 electrons
 Dipole moment (field-independent basis, Debye):
    X=             -2.6405    Y=              6.6153    Z=              1.5031  Tot=              7.2797
 Quadrupole moment (field-independent basis, Debye-Ang):
   XX=           -185.5423   YY=           -183.8196   ZZ=           -179.8131
   XY=             -3.3382   XZ=             23.4288   YZ=             -7.7313
 Traceless Quadrupole moment (field-independent basis, Debye-Ang):
   XX=             -2.4840   YY=             -0.7613   ZZ=              3.2453
   XY=             -3.3382   XZ=             23.4288   YZ=             -7.7313
 Octapole moment (field-independent basis, Debye-Ang**2):
  XXX=           -146.5399  YYY=             51.0273  ZZZ=             15.8318  XYY=             60.8275
  XXY=             57.6297  XXZ=             29.0101  XZZ=            -14.0638  YZZ=             14.0799
  YYZ=              0.7277  XYZ=            -44.6937
 Hexadecapole moment (field-independent basis, Debye-Ang**3):
 XXXX=         -17042.9771 YYYY=          -6127.0981 ZZZZ=          -1601.0408 XXXY=           -378.2790
 XXXZ=            714.7162 YYYX=           -245.2890 YYYZ=             13.1008 ZZZX=            143.6124
 ZZZY=            -60.9390 XXYY=          -4137.1444 XXZZ=          -3438.8189 YYZZ=          -1303.1928
 XXYZ=           -118.3480 YYXZ=            115.6067 ZZXY=             -7.4408
 N-N= 2.814089440906D+03 E-N=-8.686650191323D+03  KE= 1.309020570751D+03
 No NMR shielding tensors so no spin-rotation constants.
 Leave Link  601 at Sun Sep  4 22:21:54 2022, MaxMem=  209715200 cpu:       4.1
 (Enter /opt/gaussian/l701.exe)
 Compute integral first derivatives.
 ... and contract with generalized density number  0.
 Leave Link  701 at Sun Sep  4 22:21:55 2022, MaxMem=  209715200 cpu:       3.4
 (Enter /opt/gaussian/l702.exe)
 L702 exits ... SP integral derivatives will be done elsewhere.
 Leave Link  702 at Sun Sep  4 22:21:55 2022, MaxMem=  209715200 cpu:       0.2
 (Enter /opt/gaussian/l703.exe)
 Compute integral first derivatives, UseDBF=F ICtDFT=           0.
 Integral derivatives from FoFDir, PRISM(SPDF).
 Calling FoFJK, ICntrl=      2127 FMM=F ISym2X=0 I1Cent= 0 IOpClX= 0 NMat=1 NMatS=1 NMatT=0.
 FoFCou: FMM=F IPFlag=           0 FMFlag=      100000 FMFlg1=         800
         NFxFlg=           0 DoJE=F BraDBF=F KetDBF=F FulRan=T
         Omega=  0.000000  0.000000  1.000000  0.000000  0.000000 ICntrl=    2127 IOpCl=  0
         NMat0=    1 NMatS0=    1 NMatT0=    0 NMatD0=    1 NMtDS0=    0 NMtDT0=    0
         I1Cent=           0 NGrid=           0.
 Symmetry not used in FoFCou.
 Leave Link  703 at Sun Sep  4 22:26:06 2022, MaxMem=  209715200 cpu:    2002.2
 (Enter /opt/gaussian/l716.exe)
 Dipole        =-1.03884619D+00 2.60265972D+00 5.91379862D-01
 ***** Axes restored to original set *****
 -------------------------------------------------------------------
 Center     Atomic                   Forces (Hartrees/Bohr)
 Number     Number              X              Y              Z
 -------------------------------------------------------------------
      1        8           0.000075415    0.001572904   -0.000771899
      2        6          -0.001077540   -0.016077481    0.006696323
      3        6          -0.000590372   -0.005327452    0.002568112
[...]
 005647,0.00000163,-0.00002732,-0.00000578,0.00000078,-0.01516191,-0.13
 385295,0.09561457,-0.00005155,0.00003567,-0.00000269,0.00010733,-0.000
 07770,0.00003549,0.00001289,-0.00001721,-0.00000167,-0.00002630,0.0000
 0843,0.00001082,0.00001720,-0.00001353,-0.00002716,-0.00001901,0.00001
 898,-0.00000358,-0.00000273,0.00000072,0.00000665,0.00000047,-0.000000
 61,-0.00000184,-0.00000242,0.00000105,0.00000122,0.00000173,-0.0000045
 5,0.00000236,0.00000013,-0.00000108,-0.00000816,0.00000908,-0.00000550
 ,0.00002157,-0.00015390,-0.00001578,0.00002395,-0.00000722,0.00006768,
 -0.00002610,0.00000310,-0.00000563,0.00001176,0.00000169,0.00000298,-0
 .00001227,-0.00000654,-0.00000148,-0.00000123,-0.00000329,0.00000570,0
 .00000895,-0.00000367,0.00000145,-0.00001262,0.00010397,0.00003284,-0.
 00002509,-0.00002788,-0.00001389,0.00001345,-0.00005291,-0.00004289,-0
 .00009556,-0.00021771,0.00110567,-0.00075848,-0.00032019,-0.00016342,0
 .00023697,-0.00003497,-0.00006334,-0.00010348,-0.00303905,-0.00360299,
 0.00157649,-0.01724466,0.01633667,-0.00938976,-0.24465948,0.11366505,-
 0.06918716,0.00519526,-0.00364533,0.00218962,0.00174763,-0.00079529,0.
 00028067,-0.00008734,-0.00095209,0.00054602,-0.00000279,0.00000123,-0.
 00000259,-0.00000903,0.00000168,0.00000051,-0.00000065,0.00000097,0.00
 000047,-0.00000070,0.00000154,-0.00000085,0.00000122,0.00000039,-0.000
 00034,0.00000168,0.00000326,0.00000466,-0.00001156,-0.00001364,0.00000
 064,0.00000254,0.00000568,-0.00000441,0.00000098,-0.00000140,-0.000001
 66,-0.00000152,-0.00000296,0.00000010,0.00000113,0.00000114,0.00000174
 ,-0.00000173,-0.00000495,-0.00000110,0.00000397,-0.00000490,0.00000109
 ,-0.00000086,-0.00000218,-0.00000102,0.00000341,-0.00000536,-0.0000051
 1,-0.00000195,0.00000619,0.00000120,0.00000175,-0.00000055,0.00001430,
 -0.00002446,-0.00001141,0.00001748,0.00001210,0.00002160,0.00001323,0.
 00001250,0.00003276,0.00000512,-0.00004164,-0.00001642,-0.00000038,0.0
 0109749,-0.00002431,0.00024459,0.25726528,0.00001254,-0.00000808,-0.00
 000005,-0.00002302,0.00001521,-0.00000422,-0.00000407,0.00000544,-0.00
 000034,0.00000690,-0.00000331,-0.00000340,-0.00000583,0.00000400,0.000
 00726,0.00000587,-0.00000567,0.00000105,0.00000068,-0.00000012,-0.0000
 0180,-0.00000017,0.00000014,0.00000080,0.00000070,-0.00000006,-0.00000
 079,-0.00000068,0.00000139,-0.00000040,-0.00000018,0.00000023,0.000002
 42,-0.00000179,0.00000115,-0.00000544,0.00003000,-0.00000776,-0.000001
 45,-0.00000273,-0.00000379,0.00000260,-0.00000153,0.00000078,0.0000007
 0,-0.00000044,-0.00000008,0.00000032,-0.00000093,-0.00000011,0.0000000
 4,-0.00000141,-0.00000078,-0.00000030,-0.00000366,0.00000070,-0.000003
 05,-0.00002434,-0.00000265,0.00001794,0.00000825,-0.00001305,0.0000170
 2,0.00003454,-0.00004333,-0.00005715,-0.00043517,0.00051295,-0.0001208
 8,-0.00009698,-0.00011247,0.00002156,0.00000912,0.00001192,-0.00007130
 ,-0.00306133,0.00185422,0.00352011,-0.01099333,0.00914685,-0.00380427,
 0.11377096,-0.12302613,0.05101391,0.02496376,-0.00612402,0.00467642,-0
 .00020755,-0.00345476,0.00626616,-0.00205554,-0.00089829,0.00027750,0.
 00000019,0.00000016,0.00000105,0.00000084,-0.00000080,-0.00000066,0.00
 000025,-0.00000030,-0.00000020,0.00000012,-0.00000046,0.00000032,-0.00
 000059,-0.00000004,-0.00000023,-0.00000010,-0.00000095,-0.00000097,0.0
 0000219,0.00000075,-0.00000094,-0.00000066,-0.00000100,0.00000168,0.00
 000224,-0.00000022,0.00000034,0.00000198,0.00000047,-0.00000020,-0.000
 00075,-0.00000027,0.00000010,0.00000173,0.00000101,0.00000032,-0.00000
 050,-0.00000089,0.00000007,0.00000187,0.00000035,0.00000091,-0.0000000
 9,-0.00000107,-0.00000152,0.00000159,-0.00000124,0.00000356,-0.0000007
 1,0.00000132,-0.00000152,-0.00000168,0.00000317,-0.00000015,0.00002635
 ,0.00001361,0.00002849,-0.00000092,0.00000811,-0.00002172,-0.00001202,
 -0.00000064,0.00000509,0.00049014,-0.00018290,-0.00215713,-0.12237336,
 0.12277532,-0.00001041,0.00000227,-0.00000238,0.00001758,-0.00000711,0
 .00000486,0.00000275,-0.00000311,0.00000191,-0.00000458,0.00000157,0.0
 0000126,0.00000119,-0.00000160,-0.00000576,-0.00000282,0.00000212,-0.0
 0000059,-0.00000042,0.00000070,0.00000091,0.00000031,-0.00000069,0.000
 00025,-0.00000019,-0.00000009,-0.00000046,-0.00000020,-0.00000065,0.00
 000057,-0.00000062,-0.00000011,-0.00000095,0.00000254,-0.00000132,0.00
 000445,-0.00001626,-0.00001304,-0.00000683,0.00000026,0.00001296,-0.00
 000019,-0.00000107,0.00000031,0.00000256,0.00000177,0.00000054,-0.0000
 0108,-0.00000136,-0.00000124,0.00000070,-0.00000274,0.00000198,0.00000
 252,0.00000095,-0.00000076,-0.00000097,0.00000595,0.00000216,0.0000115
 5,0.00000721,0.00001709,0.00000600,-0.00002001,-0.00005593,-0.00002835
 ,0.00028752,0.00002483,0.00041149,0.00013932,-0.00002536,-0.00008153,0
 .00003403,0.00002532,0.00000590,0.00106052,0.00328263,0.00645616,0.005
 45036,-0.00310558,0.00461309,-0.06922138,0.05075745,-0.06643696,-0.013
 86390,0.00409477,-0.00163303,0.00029854,0.00644211,0.00428866,0.001098
 38,0.00020394,-0.00039770,-0.00000032,0.00000058,-0.00000030,-0.000001
 92,0.00000019,-0.00000019,0.00000005,0.00000021,0.00000015,-0.00000018
 ,0.00000047,-0.00000020,0.00000021,0.00000027,-0.00000040,0.00000054,0
 .00000057,0.00000109,-0.00000131,-0.00000293,-0.00000049,-0.00000044,0
 .00000168,-0.00000050,0.00000021,-0.00000044,-0.00000122,0.00000027,-0
 .00000039,-0.00000064,-0.00000012,0.00000040,-0.00000137,-0.00000040,-
 0.00000097,-0.00000078,0.00000073,-0.00000057,0.00000032,-0.00000059,-
 0.00000046,-0.00000075,0.00000225,-0.00000283,-0.00000180,-0.00000118,
 0.00000121,0.00000105,-0.00000071,0.00000160,0.00000209,0.00000224,0.0
 0000049,0.00000275,0.00004840,0.00000819,-0.00001155,0.00000897,-0.000
 00169,-0.00001319,0.00000458,0.00000970,0.00000284,-0.00007036,-0.0021
 0164,-0.00305876,0.07455400,-0.05722618,0.05936493,-0.00004818,0.00002
 792,-0.00000150,0.00009271,-0.00005933,0.00002091,0.00001403,-0.000019
 15,0.00000108,-0.00002495,0.00001005,0.00001026,0.00001628,-0.00001214
 ,-0.00002716,-0.00001847,0.00001819,-0.00000366,-0.00000258,0.00000062
 ,0.00000643,0.00000112,-0.00000104,-0.00000174,-0.00000184,0.00000061,
 0.00000117,0.00000140,-0.00000413,0.00000252,0.00000014,-0.00000088,-0
 .00000739,0.00000850,-0.00000526,0.00002069,-0.00011748,-0.00000888,0.
 00000984,-0.00000069,0.00004518,-0.00001217,0.00000347,-0.00000296,0.0
 0000556,0.00000234,0.00000211,-0.00000652,-0.00000281,-0.00000134,-0.0
 0000048,-0.00000028,0.00000474,0.00000646,0.00000259,-0.00000027,-0.00
 000392,0.00007994,0.00002086,-0.00000597,-0.00002519,0.00000512,0.0000
 2422,-0.00007709,-0.00003993,-0.00002786,0.00019490,-0.00010600,0.0001
 5439,-0.00003505,-0.00001878,-0.00001983,0.00002750,-0.00003450,0.0000
 0796,-0.00003777,0.00012678,-0.00011655,0.00143527,-0.00033955,0.00004
 891,0.00074519,0.00127458,-0.00094660,-0.26630380,-0.10319044,0.050545
 43,-0.03071933,-0.00181997,0.00014141,-0.00079676,0.00211212,-0.001479
 08,-0.00000175,0.00000078,-0.00000295,-0.00000683,0.00000207,0.0000011
 2,-0.00000079,0.00000093,0.00000073,-0.00000098,0.00000169,-0.00000110
 ,0.00000137,0.00000024,-0.00000052,0.00000154,0.00000294,0.00000433,-0
 .00000898,-0.00000951,0.00000148,0.00000202,0.00000549,-0.00000429,-0.
 00000223,-0.00000060,-0.00000203,-0.00000301,-0.00000232,0.00000014,0.
 00000109,0.00000115,-0.00000024,-0.00000310,-0.00000443,-0.00000130,0.
 00000271,-0.00000169,0.00000045,-0.00000331,-0.00000170,-0.00000212,0.
 00000264,-0.00000270,-0.00000151,-0.00000374,0.00000522,-0.00000325,0.
 00000184,-0.00000103,0.00001059,-0.00001481,-0.00000604,0.00001301,0.0
 0001095,-0.00000206,-0.00001186,0.00002453,0.00002286,0.00004960,-0.00
 000898,-0.00000082,-0.00000513,-0.00006064,0.00013393,-0.00005130,0.00
 044801,-0.00033634,0.00029281,0.29589036,-0.00001379,0.00001721,-0.000
 00399,0.00003505,-0.00003435,0.00001360,0.00000495,-0.00000564,-0.0000
 0009,-0.00000925,0.00000363,0.00000345,0.00000522,-0.00000417,-0.00000
 997,-0.00000643,0.00000608,-0.00000137,-0.00000105,0.00000054,0.000002
 29,0.00000034,-0.00000054,-0.00000044,-0.00000078,0.00000026,0.0000000
 7,0.00000039,-0.00000137,0.00000086,-0.00000015,-0.00000012,-0.0000024
 7,0.00000336,-0.00000224,0.00000798,-0.00005385,0.00000715,-0.00000563
 ,0.00000262,0.00001694,-0.00000394,0.00000108,-0.00000052,0.00000140,0
 .00000133,0.00000084,-0.00000201,-0.00000109,-0.00000072,0.00000004,-0
 .00000112,0.00000294,0.00000237,0.00000337,-0.00000166,0.00000181,0.00
 004255,-0.00002888,0.00005413,-0.00006722,0.00005526,-0.00008181,0.000
 17638,0.00003060,0.00007314,0.00012467,-0.00018395,-0.00084124,-0.0001
 6627,-0.00002068,0.00004213,0.00002764,0.00004859,-0.00006151,0.000682
 85,-0.00062319,0.00013679,0.00071617,-0.00269095,0.00540015,-0.0247119
 3,-0.00476367,0.00539950,-0.10356954,-0.10112597,0.03041959,0.02035703
 ,0.00794586,-0.00611866,0.00412488,0.00230404,0.00462215,-0.00000037,0
 .00000048,-0.00000104,-0.00000253,0.00000063,0.00000040,-0.00000012,0.
 00000038,0.00000019,-0.00000022,0.00000062,-0.00000031,0.00000033,0.00
 000023,-0.00000034,0.00000056,0.00000075,0.00000164,-0.00000346,-0.000
 00312,0.00000019,0.00000086,0.00000230,-0.00000183,-0.00000158,-0.0000
 0030,-0.00000075,-0.00000114,-0.00000090,-0.00000021,0.00000047,0.0000
 0055,-0.00000071,-0.00000148,-0.00000180,-0.00000072,0.00000120,-0.000
 00034,0.00000027,-0.00000196,-0.00000113,-0.00000126,0.00000173,-0.000
 00146,-0.00000051,-0.00000212,0.00000299,-0.00000243,0.00000058,0.0000
 0018,0.00000376,0.00001071,-0.00000188,-0.00000075,0.00000814,0.000009
 72,-0.00006245,-0.00002394,-0.00000375,-0.00003319,-0.00000603,-0.0000
 0592,-0.00000377,-0.00129383,-0.00053412,0.00005570,0.00040255,-0.0001
 3405,-0.00157314,0.10261421,0.09940182,0.00000280,0.00000915,-0.000004
 80,0.00000962,-0.00002058,0.00001499,0.00000083,-0.00000009,-0.0000017
 0,-0.00000238,0.00000050,-0.00000022,-0.00000062,0.00000014,-0.0000026
 9,-0.00000056,0.00000040,-0.00000008,-0.00000029,0.00000036,0.00000018
 ,0.00000030,-0.00000042,0.00000049,0.00000011,0.00000009,-0.00000076,-
 0.00000028,0.,0.00000060,-0.00000050,0.00000028,-0.00000008,0.00000165
 ,-0.00000129,0.00000235,-0.00002889,0.00000528,-0.00000700,-0.00000109
 ,0.00001120,-0.00000515,-0.00000027,-0.00000049,0.00000393,0.00000110,
 0.00000019,-0.00000181,-0.00000094,-0.00000091,0.00000058,-0.00000094,
 0.00000043,0.00000060,-0.00000175,-0.00000075,-0.00000042,0.00004069,-
 0.00007577,0.00016997,-0.00018836,0.00004082,-0.00009296,0.00028691,0.
 00004413,-0.00001039,0.00030197,-0.00073562,-0.00125305,-0.00029548,-0
 .00005532,0.00000093,0.00012901,0.00012852,-0.00008075,-0.00055429,-0.
 00018099,-0.00039273,-0.00056955,0.00550631,0.00389234,0.01361529,0.00
 595840,0.00339784,0.05052509,0.03075307,-0.05618671,-0.01209044,-0.007
 24548,-0.00056029,-0.00258357,0.00483423,0.00755836,-0.00000002,0.0000
 0060,0.00000003,-0.00000176,-0.00000027,0.00000006,0.00000008,0.000000
 03,0.00000004,-0.00000021,0.00000015,0.,-0.00000019,0.00000012,-0.0000
 0054,0.00000028,-0.00000014,0.00000064,-0.00000079,-0.00000220,-0.0000
 0060,-0.00000060,-0.00000014,0.00000073,0.00000088,-0.00000005,-0.0000
 0020,0.00000079,0.00000002,-0.00000027,-0.00000033,0.00000007,-0.00000
 045,0.00000051,-0.00000019,-0.00000032,0.00000019,-0.00000060,-0.00000
 020,-0.00000009,-0.00000004,-0.00000015,0.00000098,-0.00000182,-0.0000
 0118,-0.00000019,0.00000010,0.00000142,-0.00000039,0.00000191,0.000000
 50,0.00001516,-0.00000080,-0.00000651,-0.00000307,0.00002061,0.0000154
 7,-0.00001695,-0.00000371,-0.00001054,-0.00000181,-0.00000847,-0.00000
 579,0.00071009,0.00008967,-0.00030847,-0.00013770,-0.00156276,-0.00214
 209,-0.04879486,-0.03757295,0.04551621,0.00001211,-0.00002963,0.000008
 77,-0.00004223,0.00005506,-0.00002647,-0.00000748,0.00001011,0.0000014
 1,0.00001198,-0.00000553,-0.00000348,-0.00000692,0.00000334,0.00001381
 ,0.00000738,-0.00000873,0.00000134,0.00000189,-0.00000034,-0.00000250,
 -0.00000087,0.00000033,-0.00000024,0.00000021,-0.00000149,0.00000079,-
 0.00000085,0.00000084,-0.00000183,-0.00000032,-0.00000067,0.00000293,-
 0.00000462,0.00000448,-0.00001126,0.00006860,-0.00002276,0.00000811,-0
 .00000191,-0.00001115,0.00000900,-0.00000051,0.00000066,-0.00000392,-0
 .00000197,-0.00000024,0.00000224,0.00000004,0.00000111,-0.00000067,-0.
 00000118,-0.00000111,-0.00000085,-0.00000217,0.00000433,-0.00000334,-0
 .00010242,0.00010774,-0.00010019,0.00009044,-0.00003284,0.00004366,0.0
 0011862,0.00010756,-0.00002601,0.00029185,-0.00037384,0.00021089,-0.00
 022968,-0.00054137,-0.00055756,-0.00016159,-0.00009988,0.00028330,0.00
 493545,-0.00388099,0.00171378,0.00071336,-0.00136843,0.00053457,-0.000
 27593,0.00000784,0.00009543,-0.00237209,-0.00196799,0.00082562,-0.0340
 0829,0.01058880,-0.00652412,-0.20132114,0.12104656,-0.06488805,0.00000
 070,-0.00000006,0.00000181,0.00000355,-0.00000069,-0.00000141,0.000000
 71,0.00000008,-0.00000014,0.00000111,-0.00000023,0.00000046,0.00000051
 ,0.00000042,0.00000120,-0.00000039,0.,-0.00000246,0.00000384,0.0000028
 4,0.00000022,0.00000205,-0.00000278,0.00000251,0.00000229,0.00000003,0
 .00000120,0.00000103,0.00000043,0.00000011,-0.00000016,-0.00000059,0.0
 0000113,0.00000075,0.00000119,0.00000067,-0.00000027,-0.00000048,0.000
 00068,0.00000259,0.00000082,0.00000154,-0.00000083,0.00000113,-0.00000
 032,0.00000238,-0.00000265,0.00000291,-0.00000073,-0.00000145,-0.00000
 286,0.00001232,0.00000836,-0.00000632,-0.00000806,-0.00000951,0.000021
 46,-0.00044894,-0.00080404,0.00011957,0.00002785,-0.00004492,-0.000027
 17,0.00034120,-0.00030047,0.00011501,0.00000512,0.00027563,-0.00010098
 ,-0.00068101,0.00059002,-0.00036516,0.23302271,0.00007942,-0.00001962,
 -0.00002318,-0.00012447,0.00004529,0.00000237,-0.00001895,0.00003100,0
 .00000155,0.00003393,-0.00001310,-0.00001514,-0.00002444,0.00001750,0.
 00003749,0.00002573,-0.00002663,0.00000496,0.00000346,0.00000004,-0.00
 000993,-0.00000078,0.00000012,0.00000239,0.00000250,-0.00000185,-0.000
 00234,-0.00000272,0.00000568,-0.00000343,-0.00000235,0.00000266,0.0000
 1174,-0.00001091,0.00000639,-0.00002791,0.00012832,0.00004451,-0.00006
 303,0.00000915,-0.00007235,0.00000118,-0.00000630,0.00000430,-0.000008
 14,-0.00000113,-0.00000365,0.00001055,0.00000591,0.00000133,0.00000198
 ,0.00000184,-0.00000590,-0.00001165,0.00000323,-0.00000788,0.00001920,
 -0.00008455,-0.00005776,-0.00004838,0.00009188,0.00011823,-0.00007302,
 -0.00019853,0.00009107,0.00015876,0.00089964,-0.00008450,-0.00115276,-
 0.00027517,-0.00043209,0.00081227,-0.00033924,0.00024049,-0.00032747,0
 .02143030,-0.00880072,0.00866482,-0.00247409,-0.00285982,0.00479005,-0
 .00075736,-0.00014718,-0.00022442,-0.00405652,0.00308815,0.00385966,-0
 .01187744,0.01039763,-0.00786015,0.12041061,-0.14791027,0.05805983,0.0
 0000316,-0.00000061,0.00000344,0.00001036,-0.00000278,-0.00000148,0.00
 000164,-0.00000098,-0.00000097,0.00000203,-0.00000208,0.00000171,-0.00
 000199,0.00000053,0.00000061,-0.00000236,-0.00000488,-0.00000578,0.000
 01376,0.00001776,-0.00000268,-0.00000359,-0.00000701,0.00000698,-0.000
 00077,0.00000100,0.00000287,0.00000325,0.00000374,-0.00000068,-0.00000
 135,-0.00000112,-0.00000188,0.00000317,0.00000623,0.00000106,-0.000004
 06,0.00000473,-0.00000144,0.00000116,0.00000153,0.00000128,-0.00000287
 ,0.00000440,0.00000438,0.00000337,-0.00000422,-0.00000201,-0.00000286,
 0.00000192,-0.00001796,0.00000079,-0.00002226,-0.00001980,0.00004354,0
 .00000164,-0.00014549,-0.00056052,-0.00032510,-0.00082595,-0.00002654,
 -0.00002316,0.00001969,0.00123925,-0.00070790,0.00029754,0.00012183,-0
 .00033001,-0.00077050,-0.00040661,0.00031673,0.00006509,-0.12330483,0.
 14742082,-0.00001197,-0.00002175,-0.00000308,0.00002261,0.00000567,0.0
 0000550,0.00000421,-0.00000751,0.00000122,-0.00000834,0.00000278,0.000
 00109,0.00000019,-0.00000206,-0.00001190,-0.00000450,0.00000252,-0.000
 00141,-0.00000097,0.00000133,0.00000177,0.00000136,-0.00000216,0.00000
 097,-0.00000024,-0.00000014,-0.00000211,-0.00000087,-0.00000104,0.0000
 0263,-0.00000189,0.00000059,-0.00000131,0.00000672,-0.00000352,0.00000
 981,-0.00006881,0.00000899,-0.00000098,0.00001119,0.00002439,0.0000037
 2,-0.00000089,0.00000218,0.00000553,0.00000208,0.00000163,-0.00000425,
 -0.00000251,-0.00000097,0.00000095,-0.00000070,0.00000186,0.00000176,-
 0.00000215,-0.00000326,-0.00000041,0.00021056,-0.00013261,0.00048255,-
 0.00058048,-0.00002608,-0.00015038,0.00067542,0.00049543,-0.00060793,-
 0.00197641,-0.00169795,-0.00150618,-0.00025906,-0.00075970,0.00022924,
 0.00049768,0.00011317,-0.00036533,-0.01018649,0.00957548,0.00148593,0.
 00060443,0.00487412,0.00369511,0.00072998,0.00020120,-0.00056093,0.001
 82400,0.00350566,0.00910151,0.00507801,-0.00715910,-0.00050788,-0.0642
 5200,0.05684240,-0.07185481,-0.00000086,0.00000187,0.00000008,-0.00000
 518,-0.00000042,-0.00000026,0.00000051,0.00000052,0.00000027,-0.000000
 47,0.00000094,-0.00000021,-0.00000041,0.00000055,-0.00000161,0.0000011
 0,0.00000024,0.00000295,-0.00000226,-0.00000238,-0.00000183,-0.0000039
 7,0.00000235,-0.00000265,0.00000113,-0.00000054,-0.00000118,0.00000066
 ,-0.00000039,-0.00000042,-0.00000017,0.00000055,-0.00000063,0.00000014
 ,-0.00000146,-0.00000102,0.00000123,-0.00000150,-0.00000037,-0.0000013
 3,-0.00000066,-0.00000071,0.00000224,-0.00000382,-0.00000228,-0.000001
 59,0.00000104,0.00000124,-0.00000054,0.00000419,0.00000361,0.00000941,
 0.00000581,-0.00000533,0.00002749,-0.00001006,0.00001137,-0.00051271,-
 0.00021756,0.00023668,-0.00001337,-0.00001509,-0.00000304,-0.00059056,
 0.00026306,-0.00049575,-0.00001310,-0.00081873,-0.00135708,0.00016136,
 0.00014589,0.00050066,0.06863115,-0.06519591,0.06166713\\0.00000073,-0
 .00000122,0.00000111,-0.00000399,0.00000022,-0.00000135,-0.00000048,-0
 .00000457,-0.00000017,-0.00000345,-0.00000062,0.00000258,0.00000293,-0
 .00000302,-0.00000255,-0.00000336,-0.00000559,-0.00000290,-0.00000088,
 -0.00000113,0.00000172,-0.00000097,-0.00000254,-0.00000029,-0.00000139
 ,-0.00000127,-0.00000095,-0.00000026,-0.00000053,-0.00000162,0.0000000
 4,-0.00000137,0.00000055,-0.00000125,-0.00000411,-0.00000220,0.0000016
 0,0.00000026,-0.00000079,0.00000093,-0.00000167,-0.00000131,-0.0000024
 1,-0.00000301,0.00000191,0.00000084,0.00000154,-0.00000312,0.00000360,
 -0.00000252,-0.00000652,0.00000370,0.00000095,-0.00000075,0.00000391,0
 .00000125,-0.00000449,-0.00000246,-0.00000105,0.00000024,-0.00000017,0
 .00000084,0.00000181,-0.00000139,0.00000002,0.00000076,0.00000208,0.00
 000121,0.00000178,0.00000087,0.00000252,0.00000242,-0.00000102,0.00000
 101,0.00000141,-0.00000296,0.00000207,0.00000306,-0.00000024,0.0000034
 2,0.00000306,-0.00000172,0.00000129,0.00000428,0.00000012,0.00000666,0
 .00000335,-0.00000069,0.00000098,0.00000552,-0.00000209,0.00000291,0.0
 0000285,-0.00000018,-0.00000212,-0.00000185,0.00000078,-0.00000049,-0.
 00000225,-0.00000172,-0.00000339,-0.00000080,-0.00000095,-0.00000192,0
 .00000029,0.00000021,-0.00000046,0.00000010,0.00000014,-0.00000019,-0.
 00000108,0.00000103,-0.00000137,-0.00000210,-0.00000065,-0.00000156,-0
 .00000016,0.00000153,0.00000005,-0.00000236,0.00000208,-0.00000143,-0.
 00000340,0.00000200,-0.00000051,-0.00000354,0.00000294,0.00000041,-0.0
 0000352,0.00000183,0.00000107,-0.00000276,0.00000236,0.00000107,-0.000
 00213,0.00000191,0.00000184,-0.00000192,0.00000139,0.00000100,-0.00000
 121,0.00000120,-0.00000039,-0.00000049,-0.00000020,-0.00000056,-0.0000
 0013,-0.00000205,0.00000048,0.00000202,-0.00000148,0.00000175,0.000002
 12,0.00000023,0.00000153,0.00000079,0.00000073,0.00000233,0.00000211,-
 0.00000119,0.00000315,0.00000415,-0.00000222,0.00000402,0.00000483,0.0
 0000014,0.00000277,0.00000390\\\@


 IF YOU WANT TO LEARN FROM THE THEORETICAL PHYSICISTS ABOUT THE
 METHODS WHICH THEY USE, I ADVISE YOU TO FOLLOW THIS PRINCIPLE VERY STRICTLY:
 DON'T LISTEN TO THEIR WORDS; PAY ATTENTION, INSTEAD, TO THEIR ACTIONS.
 -- A.EINSTEIN, 1934
 Job cpu time:  0 days 22 hours  8 minutes 52.2 seconds.
 File lengths (MBytes):  RWF=   1880 Int=      0 D2E=      0 Chk=     25 Scr=      1
 Normal termination of Gaussian 09 at Mon Sep  5 05:41:11 2022.
