 Entering Gaussian System, Link 0=g09
 Input=Mol29.gjf
 Output=Mol29.log
 Initial command:
 /opt/gaussian/l1.exe /home/scr/lqcapf-6/Gau-270212.inp -scrdir=/home/scr/lqcapf-6/
 Entering Link 1 = /opt/gaussian/l1.exe PID=    270214.
  
 Copyright (c) 1988,1990,1992,1993,1995,1998,2003,2009,2011,
            Gaussian, Inc.  All Rights Reserved.
  
 This is part of the Gaussian(R) 09 program.  It is based on
 the Gaussian(R) 03 system (copyright 2003, Gaussian, Inc.),
 the Gaussian(R) 98 system (copyright 1998, Gaussian, Inc.),
 the Gaussian(R) 94 system (copyright 1995, Gaussian, Inc.),
 the Gaussian 92(TM) system (copyright 1992, Gaussian, Inc.),
 the Gaussian 90(TM) system (copyright 1990, Gaussian, Inc.),
 the Gaussian 88(TM) system (copyright 1988, Gaussian, Inc.),
 the Gaussian 86(TM) system (copyright 1986, Carnegie Mellon
 University), and the Gaussian 82(TM) system (copyright 1983,
 Carnegie Mellon University). Gaussian is a federally registered
 trademark of Gaussian, Inc.
  
 This software contains proprietary and confidential information,
 including trade secrets, belonging to Gaussian, Inc.
  
 This software is provided under written license and may be
 used, copied, transmitted, or stored only in accord with that
 written license.
  
 The following legend is applicable only to US Government
 contracts under FAR:
  
                    RESTRICTED RIGHTS LEGEND
  
 Use, reproduction and disclosure by the US Government is
 subject to restrictions as set forth in subparagraphs (a)
 and (c) of the Commercial Computer Software - Restricted
 Rights clause in FAR 52.227-19.
  
 Gaussian, Inc.
 340 Quinnipiac St., Bldg. 40, Wallingford CT 06492
  
  
 ---------------------------------------------------------------
 Warning -- This program may not be used in any manner that
 competes with the business of Gaussian, Inc. or will provide
 assistance to any competitor of Gaussian, Inc.  The licensee
 of this program is prohibited from giving any competitor of
 Gaussian, Inc. access to this program.  By using this program,
 the user acknowledges that Gaussian, Inc. is engaged in the
 business of creating and licensing software in the field of
 computational chemistry and represents and warrants to the
 licensee that it is not a competitor of Gaussian, Inc. and that
 it will not use this program in any manner prohibited above.
 ---------------------------------------------------------------
  

 Cite this work as:
 Gaussian 09, Revision C.01,
 M. J. Frisch, G. W. Trucks, H. B. Schlegel, G. E. Scuseria, 
 M. A. Robb, J. R. Cheeseman, G. Scalmani, V. Barone, B. Mennucci, 
 G. A. Petersson, H. Nakatsuji, M. Caricato, X. Li, H. P. Hratchian, 
 A. F. Izmaylov, J. Bloino, G. Zheng, J. L. Sonnenberg, M. Hada, 
 M. Ehara, K. Toyota, R. Fukuda, J. Hasegawa, M. Ishida, T. Nakajima, 
 Y. Honda, O. Kitao, H. Nakai, T. Vreven, J. A. Montgomery, Jr., 
 J. E. Peralta, F. Ogliaro, M. Bearpark, J. J. Heyd, E. Brothers, 
 K. N. Kudin, V. N. Staroverov, T. Keith, R. Kobayashi, J. Normand, 
 K. Raghavachari, A. Rendell, J. C. Burant, S. S. Iyengar, J. Tomasi, 
 M. Cossi, N. Rega, J. M. Millam, M. Klene, J. E. Knox, J. B. Cross, 
 V. Bakken, C. Adamo, J. Jaramillo, R. Gomperts, R. E. Stratmann, 
 O. Yazyev, A. J. Austin, R. Cammi, C. Pomelli, J. W. Ochterski, 
 R. L. Martin, K. Morokuma, V. G. Zakrzewski, G. A. Voth, 
 P. Salvador, J. J. Dannenberg, S. Dapprich, A. D. Daniels, 
 O. Farkas, J. B. Foresman, J. V. Ortiz, J. Cioslowski, 
 and D. J. Fox, Gaussian, Inc., Wallingford CT, 2010.
 
 ******************************************
 Gaussian 09:  EM64L-G09RevC.01 23-Sep-2011
                 6-Sep-2022 
 ******************************************
 %nprocshared=8
 Will use up to    8 processors via shared memory.
 %mem=1600MB
 -------------------------
 #p opt freq b3lyp/cc-pvdz
 -------------------------
 1/14=-1,18=20,19=15,26=3,38=1/1,3;
 2/9=110,12=2,17=6,18=5,40=1/2;
 3/5=16,11=2,16=1,25=1,30=1,71=1,74=-5/1,2,3;
 4//1;
 5/5=2,38=5/2;
 6/7=2,8=2,9=2,10=2,28=1/1;
 7//1,2,3,16;
 1/14=-1,18=20,19=15/3(2);
 2/9=110/2;
 99//99;
 2/9=110/2;
 3/5=16,11=2,16=1,25=1,30=1,71=1,74=-5/1,2,3;
 4/5=5,16=3/1;
 5/5=2,38=5/2;
 7//1,2,3,16;
 1/14=-1,18=20,19=15/3(-5);
 2/9=110/2;
 6/7=2,8=2,9=2,10=2,19=2,28=1/1;
 99/9=1/99;
 Leave Link    1 at Tue Sep  6 02:49:20 2022, MaxMem=  209715200 cpu:       0.2
 (Enter /opt/gaussian/l101.exe)
 ---------
 Mol29.log
 ---------
 Charge =  0 Multiplicity = 1
 Symbolic Z-Matrix:
 F                     3.1845    4.74321   1.9308 
 C                     2.49678   3.88936   1.11901 
 C                     1.82344   2.83113   1.68332 
 C                     1.12164   1.95818   0.8641 
 C                     1.09667   2.14504  -0.51326 
 C                     1.79282   3.22204  -1.05733 
 C                     2.48747   4.09235  -0.24354 
 Cl                    3.37599   5.47367  -0.95417 
 C                     0.3224    1.23503  -1.45723 
 N                    -0.15593  -0.01717  -0.86984 
 C                     0.68108  -1.08095  -0.63111 
 O                     0.3174   -2.08447  -0.03981 
 C                     2.11273  -0.96293  -1.14104 
 N                     2.85546  -2.16821  -0.94455 
 N                     3.0264   -3.02731  -1.99107 
 N                     3.6726   -4.04497  -1.60106 
 C                     3.95552  -3.90774  -0.25115 
 C                     4.6419   -4.75026   0.62217 
 C                     4.76922  -4.33628   1.92537 
 C                     4.22045  -3.1076    2.35558 
 C                     3.54008  -2.27285   1.50147 
 C                     3.41955  -2.69971   0.17671 
 C                    -1.55809  -0.12532  -0.57139 
 C                    -2.21179   0.90186   0.09509 
 C                    -3.57584   0.82911   0.33244 
 C                    -4.31726  -0.27488  -0.07616 
 C                    -3.64696  -1.30295  -0.73938 
 C                    -2.28933  -1.23002  -0.99242 
 C                    -5.77617  -0.35591   0.1841 
 C                    -6.3225   -0.01229   1.41902 
 C                    -7.69131  -0.10341   1.6142 
 C                    -8.48576  -0.5409    0.56733 
 N                    -7.97353  -0.87042  -0.61668 
 C                    -6.66071  -0.78055  -0.80564 
 H                     1.85184   2.70233   2.74589 
 H                     0.59375   1.13648   1.30474 
 H                     1.7977    3.38904  -2.11673 
 H                    -0.54782   1.76045  -1.82279 
 H                     0.93133   1.02808  -2.32829 
 H                     2.11095  -0.775    -2.20441 
 H                     2.61876  -0.13893  -0.65655 
 H                     5.04703  -5.67947   0.27584 
 H                     5.28769  -4.95004   2.63499 
 H                     4.33594  -2.82368   3.38362 
 H                     3.11394  -1.35123   1.84322 
 H                    -1.66973   1.76497   0.42671 
 H                    -4.06347   1.64694   0.82675 
 H                    -4.18662  -2.17629  -1.04936 
 H                    -1.79767  -2.04003  -1.48802 
 H                    -5.68277   0.30266   2.22054 
 H                    -8.13049   0.14987   2.55821 
 H                    -9.54714  -0.63182   0.67087 
 H                    -6.30598  -1.04078  -1.78205 
 
 NAtoms=     53 NQM=        0 NQMF=       0 NMMI=     53 NMMIF=      0
                NMic=       0 NMicF=      0.
                    Isotopes and Nuclear Properties:
 (Nuclear quadrupole moments (NQMom) in fm**2, nuclear magnetic moments (NMagM)
  in nuclear magnetons)

  Atom         1           2           3           4           5           6           7           8           9          10
 IAtWgt=          19          12          12          12          12          12          12          35          12          14
 AtmWgt=  18.9984033  12.0000000  12.0000000  12.0000000  12.0000000  12.0000000  12.0000000  34.9688527  12.0000000  14.0030740
 NucSpn=           1           0           0           0           0           0           0           3           0           2
 AtZEff=   0.0000000   0.0000000   0.0000000   0.0000000   0.0000000   0.0000000   0.0000000   0.0000000   0.0000000   0.0000000
 NQMom=    0.0000000   0.0000000   0.0000000   0.0000000   0.0000000   0.0000000   0.0000000  -8.1650000   0.0000000   2.0440000
 NMagM=    2.6288670   0.0000000   0.0000000   0.0000000   0.0000000   0.0000000   0.0000000   0.8218740   0.0000000   0.4037610

  Atom        11          12          13          14          15          16          17          18          19          20
 IAtWgt=          12          16          12          14          14          14          12          12          12          12
 AtmWgt=  12.0000000  15.9949146  12.0000000  14.0030740  14.0030740  14.0030740  12.0000000  12.0000000  12.0000000  12.0000000
 NucSpn=           0           0           0           2           2           2           0           0           0           0
 AtZEff=   0.0000000   0.0000000   0.0000000   0.0000000   0.0000000   0.0000000   0.0000000   0.0000000   0.0000000   0.0000000
 NQMom=    0.0000000   0.0000000   0.0000000   2.0440000   2.0440000   2.0440000   0.0000000   0.0000000   0.0000000   0.0000000
 NMagM=    0.0000000   0.0000000   0.0000000   0.4037610   0.4037610   0.4037610   0.0000000   0.0000000   0.0000000   0.0000000

  Atom        21          22          23          24          25          26          27          28          29          30
 IAtWgt=          12          12          12          12          12          12          12          12          12          12
 AtmWgt=  12.0000000  12.0000000  12.0000000  12.0000000  12.0000000  12.0000000  12.0000000  12.0000000  12.0000000  12.0000000
 NucSpn=           0           0           0           0           0           0           0           0           0           0
 AtZEff=   0.0000000   0.0000000   0.0000000   0.0000000   0.0000000   0.0000000   0.0000000   0.0000000   0.0000000   0.0000000
 NQMom=    0.0000000   0.0000000   0.0000000   0.0000000   0.0000000   0.0000000   0.0000000   0.0000000   0.0000000   0.0000000
 NMagM=    0.0000000   0.0000000   0.0000000   0.0000000   0.0000000   0.0000000   0.0000000   0.0000000   0.0000000   0.0000000

  Atom        31          32          33          34          35          36          37          38          39          40
 IAtWgt=          12          12          14          12           1           1           1           1           1           1
 AtmWgt=  12.0000000  12.0000000  14.0030740  12.0000000   1.0078250   1.0078250   1.0078250   1.0078250   1.0078250   1.0078250
 NucSpn=           0           0           2           0           1           1           1           1           1           1
 AtZEff=   0.0000000   0.0000000   0.0000000   0.0000000   0.0000000   0.0000000   0.0000000   0.0000000   0.0000000   0.0000000
 NQMom=    0.0000000   0.0000000   2.0440000   0.0000000   0.0000000   0.0000000   0.0000000   0.0000000   0.0000000   0.0000000
 NMagM=    0.0000000   0.0000000   0.4037610   0.0000000   2.7928460   2.7928460   2.7928460   2.7928460   2.7928460   2.7928460

  Atom        41          42          43          44          45          46          47          48          49          50
 IAtWgt=           1           1           1           1           1           1           1           1           1           1
 AtmWgt=   1.0078250   1.0078250   1.0078250   1.0078250   1.0078250   1.0078250   1.0078250   1.0078250   1.0078250   1.0078250
 NucSpn=           1           1           1           1           1           1           1           1           1           1
 AtZEff=   0.0000000   0.0000000   0.0000000   0.0000000   0.0000000   0.0000000   0.0000000   0.0000000   0.0000000   0.0000000
 NQMom=    0.0000000   0.0000000   0.0000000   0.0000000   0.0000000   0.0000000   0.0000000   0.0000000   0.0000000   0.0000000
 NMagM=    2.7928460   2.7928460   2.7928460   2.7928460   2.7928460   2.7928460   2.7928460   2.7928460   2.7928460   2.7928460

  Atom        51          52          53
 IAtWgt=           1           1           1
 AtmWgt=   1.0078250   1.0078250   1.0078250
 NucSpn=           1           1           1
 AtZEff=   0.0000000   0.0000000   0.0000000
 NQMom=    0.0000000   0.0000000   0.0000000
 NMagM=    2.7928460   2.7928460   2.7928460
 Leave Link  101 at Tue Sep  6 02:49:20 2022, MaxMem=  209715200 cpu:       0.9
 (Enter /opt/gaussian/l103.exe)

 GradGradGradGradGradGradGradGradGradGradGradGradGradGradGradGradGradGrad
 Berny optimization.
 Initialization pass.
                           ----------------------------
                           !    Initial Parameters    !
                           ! (Angstroms and Degrees)  !
 --------------------------                            --------------------------
 ! Name  Definition              Value          Derivative Info.                !
 --------------------------------------------------------------------------------
 ! R1    R(1,2)                  1.3642         estimate D2E/DX2                !
 ! R2    R(2,3)                  1.3754         estimate D2E/DX2                !
 ! R3    R(2,7)                  1.3776         estimate D2E/DX2                !
 ! R4    R(3,4)                  1.3877         estimate D2E/DX2                !
 ! R5    R(3,35)                 1.0707         estimate D2E/DX2                !
 ! R6    R(4,5)                  1.3902         estimate D2E/DX2                !
 ! R7    R(4,36)                 1.0715         estimate D2E/DX2                !
 ! R8    R(5,6)                  1.393          estimate D2E/DX2                !
 ! R9    R(5,9)                  1.5227         estimate D2E/DX2                !
 ! R10   R(6,7)                  1.3792         estimate D2E/DX2                !
 ! R11   R(6,37)                 1.0725         estimate D2E/DX2                !
 ! R12   R(7,8)                  1.7896         estimate D2E/DX2                !
 ! R13   R(9,10)                 1.4635         estimate D2E/DX2                !
 ! R14   R(9,38)                 1.0803         estimate D2E/DX2                !
 ! R15   R(9,39)                 1.0828         estimate D2E/DX2                !
 ! R16   R(10,11)                1.3745         estimate D2E/DX2                !
 ! R17   R(10,23)                1.4376         estimate D2E/DX2                !
 ! R18   R(11,12)                1.2202         estimate D2E/DX2                !
 ! R19   R(11,13)                1.5243         estimate D2E/DX2                !
 ! R20   R(13,14)                1.4293         estimate D2E/DX2                !
 ! R21   R(13,40)                1.0799         estimate D2E/DX2                !
 ! R22   R(13,41)                1.0816         estimate D2E/DX2                !
 ! R23   R(14,15)                1.3647         estimate D2E/DX2                !
 ! R24   R(14,22)                1.3631         estimate D2E/DX2                !
 ! R25   R(15,16)                1.267          estimate D2E/DX2                !
 ! R26   R(16,17)                1.386          estimate D2E/DX2                !
 ! R27   R(17,18)                1.3941         estimate D2E/DX2                !
 ! R28   R(17,22)                1.3891         estimate D2E/DX2                !
 ! R29   R(18,19)                1.3733         estimate D2E/DX2                !
 ! R30   R(18,42)                1.0712         estimate D2E/DX2                !
 ! R31   R(19,20)                1.4128         estimate D2E/DX2                !
 ! R32   R(19,43)                1.0719         estimate D2E/DX2                !
 ! R33   R(20,21)                1.3745         estimate D2E/DX2                !
 ! R34   R(20,44)                1.0728         estimate D2E/DX2                !
 ! R35   R(21,22)                1.397          estimate D2E/DX2                !
 ! R36   R(21,45)                1.0713         estimate D2E/DX2                !
 ! R37   R(23,24)                1.388          estimate D2E/DX2                !
 ! R38   R(23,28)                1.3901         estimate D2E/DX2                !
 ! R39   R(24,25)                1.3865         estimate D2E/DX2                !
 ! R40   R(24,46)                1.0718         estimate D2E/DX2                !
 ! R41   R(25,26)                1.3912         estimate D2E/DX2                !
 ! R42   R(25,47)                1.0728         estimate D2E/DX2                !
 ! R43   R(26,27)                1.395          estimate D2E/DX2                !
 ! R44   R(26,29)                1.4842         estimate D2E/DX2                !
 ! R45   R(27,28)                1.3829         estimate D2E/DX2                !
 ! R46   R(27,48)                1.0724         estimate D2E/DX2                !
 ! R47   R(28,49)                1.0693         estimate D2E/DX2                !
 ! R48   R(29,30)                1.3934         estimate D2E/DX2                !
 ! R49   R(29,34)                1.3937         estimate D2E/DX2                !
 ! R50   R(30,31)                1.3857         estimate D2E/DX2                !
 ! R51   R(30,50)                1.0728         estimate D2E/DX2                !
 ! R52   R(31,32)                1.3851         estimate D2E/DX2                !
 ! R53   R(31,51)                1.0715         estimate D2E/DX2                !
 ! R54   R(32,33)                1.3315         estimate D2E/DX2                !
 ! R55   R(32,52)                1.0703         estimate D2E/DX2                !
 ! R56   R(33,34)                1.3294         estimate D2E/DX2                !
 ! R57   R(34,53)                1.0709         estimate D2E/DX2                !
 ! A1    A(1,2,3)              118.9614         estimate D2E/DX2                !
 ! A2    A(1,2,7)              119.9829         estimate D2E/DX2                !
 ! A3    A(3,2,7)              121.0554         estimate D2E/DX2                !
 ! A4    A(2,3,4)              119.2999         estimate D2E/DX2                !
 ! A5    A(2,3,35)             119.1263         estimate D2E/DX2                !
 ! A6    A(4,3,35)             121.5736         estimate D2E/DX2                !
 ! A7    A(3,4,5)              120.6255         estimate D2E/DX2                !
 ! A8    A(3,4,36)             119.2627         estimate D2E/DX2                !
 ! A9    A(5,4,36)             120.1115         estimate D2E/DX2                !
 ! A10   A(4,5,6)              118.8094         estimate D2E/DX2                !
 ! A11   A(4,5,9)              122.8881         estimate D2E/DX2                !
 ! A12   A(6,5,9)              118.2956         estimate D2E/DX2                !
 ! A13   A(5,6,7)              120.6043         estimate D2E/DX2                !
 ! A14   A(5,6,37)             120.5609         estimate D2E/DX2                !
 ! A15   A(7,6,37)             118.8349         estimate D2E/DX2                !
 ! A16   A(2,7,6)              119.6044         estimate D2E/DX2                !
 ! A17   A(2,7,8)              120.2076         estimate D2E/DX2                !
 ! A18   A(6,7,8)              120.1876         estimate D2E/DX2                !
 ! A19   A(5,9,10)             115.386          estimate D2E/DX2                !
 ! A20   A(5,9,38)             109.191          estimate D2E/DX2                !
 ! A21   A(5,9,39)             109.0855         estimate D2E/DX2                !
 ! A22   A(10,9,38)            106.7793         estimate D2E/DX2                !
 ! A23   A(10,9,39)            110.0695         estimate D2E/DX2                !
 ! A24   A(38,9,39)            105.8884         estimate D2E/DX2                !
 ! A25   A(9,10,11)            122.2005         estimate D2E/DX2                !
 ! A26   A(9,10,23)            117.8047         estimate D2E/DX2                !
 ! A27   A(11,10,23)           119.9771         estimate D2E/DX2                !
 ! A28   A(10,11,12)           122.627          estimate D2E/DX2                !
 ! A29   A(10,11,13)           116.995          estimate D2E/DX2                !
 ! A30   A(12,11,13)           120.378          estimate D2E/DX2                !
 ! A31   A(11,13,14)           112.1337         estimate D2E/DX2                !
 ! A32   A(11,13,40)           109.959          estimate D2E/DX2                !
 ! A33   A(11,13,41)           110.3991         estimate D2E/DX2                !
 ! A34   A(14,13,40)           106.4384         estimate D2E/DX2                !
 ! A35   A(14,13,41)           109.7392         estimate D2E/DX2                !
 ! A36   A(40,13,41)           108.017          estimate D2E/DX2                !
 ! A37   A(13,14,15)           119.3736         estimate D2E/DX2                !
 ! A38   A(13,14,22)           131.0674         estimate D2E/DX2                !
 ! A39   A(15,14,22)           109.4816         estimate D2E/DX2                !
 ! A40   A(14,15,16)           109.4785         estimate D2E/DX2                !
 ! A41   A(15,16,17)           108.9277         estimate D2E/DX2                !
 ! A42   A(16,17,18)           130.5979         estimate D2E/DX2                !
 ! A43   A(16,17,22)           107.8979         estimate D2E/DX2                !
 ! A44   A(18,17,22)           121.5041         estimate D2E/DX2                !
 ! A45   A(17,18,19)           117.2529         estimate D2E/DX2                !
 ! A46   A(17,18,42)           120.5231         estimate D2E/DX2                !
 ! A47   A(19,18,42)           122.224          estimate D2E/DX2                !
 ! A48   A(18,19,20)           121.0066         estimate D2E/DX2                !
 ! A49   A(18,19,43)           120.0295         estimate D2E/DX2                !
 ! A50   A(20,19,43)           118.9634         estimate D2E/DX2                !
 ! A51   A(19,20,21)           122.0889         estimate D2E/DX2                !
 ! A52   A(19,20,44)           118.6974         estimate D2E/DX2                !
 ! A53   A(21,20,44)           119.2127         estimate D2E/DX2                !
 ! A54   A(20,21,22)           116.5126         estimate D2E/DX2                !
 ! A55   A(20,21,45)           121.407          estimate D2E/DX2                !
 ! A56   A(22,21,45)           122.0742         estimate D2E/DX2                !
 ! A57   A(14,22,17)           104.2057         estimate D2E/DX2                !
 ! A58   A(14,22,21)           134.1556         estimate D2E/DX2                !
 ! A59   A(17,22,21)           121.6343         estimate D2E/DX2                !
 ! A60   A(10,23,24)           120.2214         estimate D2E/DX2                !
 ! A61   A(10,23,28)           120.6613         estimate D2E/DX2                !
 ! A62   A(24,23,28)           119.0643         estimate D2E/DX2                !
 ! A63   A(23,24,25)           120.4453         estimate D2E/DX2                !
 ! A64   A(23,24,46)           120.4188         estimate D2E/DX2                !
 ! A65   A(25,24,46)           119.1345         estimate D2E/DX2                !
 ! A66   A(24,25,26)           121.043          estimate D2E/DX2                !
 ! A67   A(24,25,47)           119.0818         estimate D2E/DX2                !
 ! A68   A(26,25,47)           119.8692         estimate D2E/DX2                !
 ! A69   A(25,26,27)           117.9286         estimate D2E/DX2                !
 ! A70   A(25,26,29)           121.0436         estimate D2E/DX2                !
 ! A71   A(27,26,29)           121.0278         estimate D2E/DX2                !
 ! A72   A(26,27,28)           121.3206         estimate D2E/DX2                !
 ! A73   A(26,27,48)           119.7215         estimate D2E/DX2                !
 ! A74   A(28,27,48)           118.952          estimate D2E/DX2                !
 ! A75   A(23,28,27)           120.1923         estimate D2E/DX2                !
 ! A76   A(23,28,49)           120.0325         estimate D2E/DX2                !
 ! A77   A(27,28,49)           119.7506         estimate D2E/DX2                !
 ! A78   A(26,29,30)           121.8275         estimate D2E/DX2                !
 ! A79   A(26,29,34)           121.0636         estimate D2E/DX2                !
 ! A80   A(30,29,34)           117.1089         estimate D2E/DX2                !
 ! A81   A(29,30,31)           119.7315         estimate D2E/DX2                !
 ! A82   A(29,30,50)           120.0494         estimate D2E/DX2                !
 ! A83   A(31,30,50)           120.2079         estimate D2E/DX2                !
 ! A84   A(30,31,32)           118.7447         estimate D2E/DX2                !
 ! A85   A(30,31,51)           120.8925         estimate D2E/DX2                !
 ! A86   A(32,31,51)           120.3604         estimate D2E/DX2                !
 ! A87   A(31,32,33)           121.9793         estimate D2E/DX2                !
 ! A88   A(31,32,52)           121.5009         estimate D2E/DX2                !
 ! A89   A(33,32,52)           116.5198         estimate D2E/DX2                !
 ! A90   A(32,33,34)           119.3129         estimate D2E/DX2                !
 ! A91   A(29,34,33)           123.1223         estimate D2E/DX2                !
 ! A92   A(29,34,53)           120.7497         estimate D2E/DX2                !
 ! A93   A(33,34,53)           116.1209         estimate D2E/DX2                !
 ! D1    D(1,2,3,4)           -179.9969         estimate D2E/DX2                !
 ! D2    D(1,2,3,35)             0.1465         estimate D2E/DX2                !
 ! D3    D(7,2,3,4)             -0.1751         estimate D2E/DX2                !
 ! D4    D(7,2,3,35)           179.9683         estimate D2E/DX2                !
 ! D5    D(1,2,7,6)            179.8124         estimate D2E/DX2                !
 ! D6    D(1,2,7,8)              0.024          estimate D2E/DX2                !
 ! D7    D(3,2,7,6)             -0.0075         estimate D2E/DX2                !
 ! D8    D(3,2,7,8)           -179.796          estimate D2E/DX2                !
 ! D9    D(2,3,4,5)              0.066          estimate D2E/DX2                !
 ! D10   D(2,3,4,36)          -179.733          estimate D2E/DX2                !
 ! D11   D(35,3,4,5)           179.9189         estimate D2E/DX2                !
 ! D12   D(35,3,4,36)            0.1199         estimate D2E/DX2                !
 ! D13   D(3,4,5,6)              0.2197         estimate D2E/DX2                !
 ! D14   D(3,4,5,9)           -178.81           estimate D2E/DX2                !
 ! D15   D(36,4,5,6)          -179.983          estimate D2E/DX2                !
 ! D16   D(36,4,5,9)             0.9873         estimate D2E/DX2                !
 ! D17   D(4,5,6,7)             -0.4048         estimate D2E/DX2                !
 ! D18   D(4,5,6,37)           179.6108         estimate D2E/DX2                !
 ! D19   D(9,5,6,7)            178.6699         estimate D2E/DX2                !
 ! D20   D(9,5,6,37)            -1.3146         estimate D2E/DX2                !
 ! D21   D(4,5,9,10)           -12.8732         estimate D2E/DX2                !
 ! D22   D(4,5,9,38)           107.3593         estimate D2E/DX2                !
 ! D23   D(4,5,9,39)          -137.3532         estimate D2E/DX2                !
 ! D24   D(6,5,9,10)           168.0924         estimate D2E/DX2                !
 ! D25   D(6,5,9,38)           -71.6752         estimate D2E/DX2                !
 ! D26   D(6,5,9,39)            43.6124         estimate D2E/DX2                !
 ! D27   D(5,6,7,2)              0.3017         estimate D2E/DX2                !
 ! D28   D(5,6,7,8)           -179.9098         estimate D2E/DX2                !
 ! D29   D(37,6,7,2)          -179.7135         estimate D2E/DX2                !
 ! D30   D(37,6,7,8)             0.075          estimate D2E/DX2                !
 ! D31   D(5,9,10,11)          -76.1313         estimate D2E/DX2                !
 ! D32   D(5,9,10,23)          105.3998         estimate D2E/DX2                !
 ! D33   D(38,9,10,11)         162.3273         estimate D2E/DX2                !
 ! D34   D(38,9,10,23)         -16.1416         estimate D2E/DX2                !
 ! D35   D(39,9,10,11)          47.8342         estimate D2E/DX2                !
 ! D36   D(39,9,10,23)        -130.6347         estimate D2E/DX2                !
 ! D37   D(9,10,11,12)         173.6288         estimate D2E/DX2                !
 ! D38   D(9,10,11,13)          -6.3532         estimate D2E/DX2                !
 ! D39   D(23,10,11,12)         -7.9348         estimate D2E/DX2                !
 ! D40   D(23,10,11,13)        172.0833         estimate D2E/DX2                !
 ! D41   D(9,10,23,24)         -46.9938         estimate D2E/DX2                !
 ! D42   D(9,10,23,28)         130.3316         estimate D2E/DX2                !
 ! D43   D(11,10,23,24)        134.502          estimate D2E/DX2                !
 ! D44   D(11,10,23,28)        -48.1726         estimate D2E/DX2                !
 ! D45   D(10,11,13,14)       -174.7599         estimate D2E/DX2                !
 ! D46   D(10,11,13,40)        -56.5481         estimate D2E/DX2                !
 ! D47   D(10,11,13,41)         62.5386         estimate D2E/DX2                !
 ! D48   D(12,11,13,14)          5.2578         estimate D2E/DX2                !
 ! D49   D(12,11,13,40)        123.4695         estimate D2E/DX2                !
 ! D50   D(12,11,13,41)       -117.4437         estimate D2E/DX2                !
 ! D51   D(11,13,14,15)        100.0325         estimate D2E/DX2                !
 ! D52   D(11,13,14,22)        -76.4006         estimate D2E/DX2                !
 ! D53   D(40,13,14,15)        -20.2468         estimate D2E/DX2                !
 ! D54   D(40,13,14,22)        163.3201         estimate D2E/DX2                !
 ! D55   D(41,13,14,15)       -136.8932         estimate D2E/DX2                !
 ! D56   D(41,13,14,22)         46.6738         estimate D2E/DX2                !
 ! D57   D(13,14,15,16)       -178.0377         estimate D2E/DX2                !
 ! D58   D(22,14,15,16)         -0.8896         estimate D2E/DX2                !
 ! D59   D(13,14,22,17)        177.63           estimate D2E/DX2                !
 ! D60   D(13,14,22,21)         -3.1442         estimate D2E/DX2                !
 ! D61   D(15,14,22,17)          0.9268         estimate D2E/DX2                !
 ! D62   D(15,14,22,21)       -179.8474         estimate D2E/DX2                !
 ! D63   D(14,15,16,17)          0.4428         estimate D2E/DX2                !
 ! D64   D(15,16,17,18)       -179.7137         estimate D2E/DX2                !
 ! D65   D(15,16,17,22)          0.1467         estimate D2E/DX2                !
 ! D66   D(16,17,18,19)        179.7453         estimate D2E/DX2                !
 ! D67   D(16,17,18,42)         -0.2911         estimate D2E/DX2                !
 ! D68   D(22,17,18,19)         -0.0988         estimate D2E/DX2                !
 ! D69   D(22,17,18,42)        179.8648         estimate D2E/DX2                !
 ! D70   D(16,17,22,14)         -0.6583         estimate D2E/DX2                !
 ! D71   D(16,17,22,21)        179.9941         estimate D2E/DX2                !
 ! D72   D(18,17,22,14)        179.2173         estimate D2E/DX2                !
 ! D73   D(18,17,22,21)         -0.1303         estimate D2E/DX2                !
 ! D74   D(17,18,19,20)          0.1919         estimate D2E/DX2                !
 ! D75   D(17,18,19,43)        179.9346         estimate D2E/DX2                !
 ! D76   D(42,18,19,20)       -179.771          estimate D2E/DX2                !
 ! D77   D(42,18,19,43)         -0.0283         estimate D2E/DX2                !
 ! D78   D(18,19,20,21)         -0.0622         estimate D2E/DX2                !
 ! D79   D(18,19,20,44)        179.5819         estimate D2E/DX2                !
 ! D80   D(43,19,20,21)       -179.8076         estimate D2E/DX2                !
 ! D81   D(43,19,20,44)         -0.1634         estimate D2E/DX2                !
 ! D82   D(19,20,21,22)         -0.1616         estimate D2E/DX2                !
 ! D83   D(19,20,21,45)        178.9471         estimate D2E/DX2                !
 ! D84   D(44,20,21,22)       -179.804          estimate D2E/DX2                !
 ! D85   D(44,20,21,45)         -0.6953         estimate D2E/DX2                !
 ! D86   D(20,21,22,14)       -178.8632         estimate D2E/DX2                !
 ! D87   D(20,21,22,17)          0.2553         estimate D2E/DX2                !
 ! D88   D(45,21,22,14)          2.0346         estimate D2E/DX2                !
 ! D89   D(45,21,22,17)       -178.847          estimate D2E/DX2                !
 ! D90   D(10,23,24,25)        177.1057         estimate D2E/DX2                !
 ! D91   D(10,23,24,46)         -2.4497         estimate D2E/DX2                !
 ! D92   D(28,23,24,25)         -0.2622         estimate D2E/DX2                !
 ! D93   D(28,23,24,46)       -179.8176         estimate D2E/DX2                !
 ! D94   D(10,23,28,27)       -177.8102         estimate D2E/DX2                !
 ! D95   D(10,23,28,49)          3.9987         estimate D2E/DX2                !
 ! D96   D(24,23,28,27)         -0.4541         estimate D2E/DX2                !
 ! D97   D(24,23,28,49)       -178.6452         estimate D2E/DX2                !
 ! D98   D(23,24,25,26)          0.6873         estimate D2E/DX2                !
 ! D99   D(23,24,25,47)       -178.4145         estimate D2E/DX2                !
 ! D100  D(46,24,25,26)       -179.7516         estimate D2E/DX2                !
 ! D101  D(46,24,25,47)          1.1466         estimate D2E/DX2                !
 ! D102  D(24,25,26,27)         -0.3795         estimate D2E/DX2                !
 ! D103  D(24,25,26,29)        179.6821         estimate D2E/DX2                !
 ! D104  D(47,25,26,27)        178.7153         estimate D2E/DX2                !
 ! D105  D(47,25,26,29)         -1.2231         estimate D2E/DX2                !
 ! D106  D(25,26,27,28)         -0.3456         estimate D2E/DX2                !
 ! D107  D(25,26,27,48)        178.7608         estimate D2E/DX2                !
 ! D108  D(29,26,27,28)        179.5928         estimate D2E/DX2                !
 ! D109  D(29,26,27,48)         -1.3008         estimate D2E/DX2                !
 ! D110  D(25,26,29,30)        -44.5247         estimate D2E/DX2                !
 ! D111  D(25,26,29,34)        135.3953         estimate D2E/DX2                !
 ! D112  D(27,26,29,30)        135.5388         estimate D2E/DX2                !
 ! D113  D(27,26,29,34)        -44.5412         estimate D2E/DX2                !
 ! D114  D(26,27,28,23)          0.7673         estimate D2E/DX2                !
 ! D115  D(26,27,28,49)        178.9635         estimate D2E/DX2                !
 ! D116  D(48,27,28,23)       -178.3459         estimate D2E/DX2                !
 ! D117  D(48,27,28,49)         -0.1497         estimate D2E/DX2                !
 ! D118  D(26,29,30,31)        179.9542         estimate D2E/DX2                !
 ! D119  D(26,29,30,50)         -1.2599         estimate D2E/DX2                !
 ! D120  D(34,29,30,31)          0.0313         estimate D2E/DX2                !
 ! D121  D(34,29,30,50)        178.8171         estimate D2E/DX2                !
 ! D122  D(26,29,34,33)        179.8954         estimate D2E/DX2                !
 ! D123  D(26,29,34,53)         -1.1102         estimate D2E/DX2                !
 ! D124  D(30,29,34,33)         -0.181          estimate D2E/DX2                !
 ! D125  D(30,29,34,53)        178.8134         estimate D2E/DX2                !
 ! D126  D(29,30,31,32)          0.1599         estimate D2E/DX2                !
 ! D127  D(29,30,31,51)        179.5909         estimate D2E/DX2                !
 ! D128  D(50,30,31,32)       -178.6241         estimate D2E/DX2                !
 ! D129  D(50,30,31,51)          0.807          estimate D2E/DX2                !
 ! D130  D(30,31,32,33)         -0.2241         estimate D2E/DX2                !
 ! D131  D(30,31,32,52)        179.7382         estimate D2E/DX2                !
 ! D132  D(51,31,32,33)       -179.6583         estimate D2E/DX2                !
 ! D133  D(51,31,32,52)          0.304          estimate D2E/DX2                !
 ! D134  D(31,32,33,34)          0.0826         estimate D2E/DX2                !
 ! D135  D(52,32,33,34)       -179.8815         estimate D2E/DX2                !
 ! D136  D(32,33,34,29)          0.1261         estimate D2E/DX2                !
 ! D137  D(32,33,34,53)       -178.9113         estimate D2E/DX2                !
 --------------------------------------------------------------------------------
 Trust Radius=3.00D-01 FncErr=1.00D-07 GrdErr=1.00D-06
 Number of steps in this run=    297 maximum allowed number of steps=    318.
 GradGradGradGradGradGradGradGradGradGradGradGradGradGradGradGradGradGrad

 Leave Link  103 at Tue Sep  6 02:49:20 2022, MaxMem=  209715200 cpu:       0.1
 (Enter /opt/gaussian/l202.exe)
 Stoichiometry    C26H19ClFN5O
 Framework group  C1[X(C26H19ClFN5O)]
 Deg. of freedom   153
 Full point group                 C1      NOp   1
 Largest Abelian subgroup         C1      NOp   1
 Largest concise Abelian subgroup C1      NOp   1
                         Standard orientation:                         
 ---------------------------------------------------------------------
 Center     Atomic      Atomic             Coordinates (Angstroms)
 Number     Number       Type             X           Y           Z
 ---------------------------------------------------------------------
      1          9           0        3.184500    4.743211    1.930799
      2          6           0        2.496780    3.889361    1.119009
      3          6           0        1.823440    2.831131    1.683319
      4          6           0        1.121640    1.958181    0.864099
      5          6           0        1.096670    2.145041   -0.513261
      6          6           0        1.792820    3.222041   -1.057331
      7          6           0        2.487470    4.092351   -0.243541
      8         17           0        3.375990    5.473671   -0.954171
      9          6           0        0.322400    1.235031   -1.457231
     10          7           0       -0.155930   -0.017169   -0.869841
     11          6           0        0.681080   -1.080949   -0.631111
     12          8           0        0.317400   -2.084469   -0.039811
     13          6           0        2.112730   -0.962929   -1.141041
     14          7           0        2.855460   -2.168209   -0.944551
     15          7           0        3.026400   -3.027309   -1.991071
     16          7           0        3.672601   -4.044969   -1.601061
     17          6           0        3.955521   -3.907739   -0.251151
     18          6           0        4.641901   -4.750259    0.622169
     19          6           0        4.769221   -4.336279    1.925369
     20          6           0        4.220450   -3.107599    2.355579
     21          6           0        3.540080   -2.272849    1.501469
     22          6           0        3.419550   -2.699709    0.176709
     23          6           0       -1.558090   -0.125319   -0.571391
     24          6           0       -2.211790    0.901861    0.095089
     25          6           0       -3.575840    0.829110    0.332439
     26          6           0       -4.317260   -0.274880   -0.076161
     27          6           0       -3.646960   -1.302950   -0.739381
     28          6           0       -2.289330   -1.230019   -0.992421
     29          6           0       -5.776170   -0.355910    0.184099
     30          6           0       -6.322500   -0.012290    1.419019
     31          6           0       -7.691310   -0.103410    1.614199
     32          6           0       -8.485760   -0.540900    0.567329
     33          7           0       -7.973530   -0.870420   -0.616681
     34          6           0       -6.660710   -0.780550   -0.805641
     35          1           0        1.851840    2.702331    2.745889
     36          1           0        0.593750    1.136481    1.304739
     37          1           0        1.797700    3.389041   -2.116731
     38          1           0       -0.547820    1.760451   -1.822791
     39          1           0        0.931330    1.028081   -2.328291
     40          1           0        2.110950   -0.774999   -2.204411
     41          1           0        2.618760   -0.138929   -0.656551
     42          1           0        5.047031   -5.679469    0.275839
     43          1           0        5.287691   -4.950039    2.634989
     44          1           0        4.335940   -2.823679    3.383619
     45          1           0        3.113940   -1.351229    1.843219
     46          1           0       -1.669730    1.764971    0.426709
     47          1           0       -4.063470    1.646940    0.826749
     48          1           0       -4.186620   -2.176290   -1.049361
     49          1           0       -1.797670   -2.040029   -1.488021
     50          1           0       -5.682770    0.302660    2.220539
     51          1           0       -8.130490    0.149870    2.558209
     52          1           0       -9.547140   -0.631820    0.670869
     53          1           0       -6.305980   -1.040780   -1.782051
 ---------------------------------------------------------------------
 Rotational constants (GHZ):      0.1124071      0.0619913      0.0445182
 Leave Link  202 at Tue Sep  6 02:49:20 2022, MaxMem=  209715200 cpu:       0.0
 (Enter /opt/gaussian/l301.exe)
 Standard basis: CC-pVDZ (5D, 7F)
 Ernie: Thresh=  0.10000D-02 Tol=  0.10000D-05 Strict=F.
 Ernie:  76 primitive shells out of 871 were deleted.
 There are   575 symmetry adapted basis functions of A   symmetry.
 Integral buffers will be    131072 words long.
 Raffenetti 2 integral format.
 Two-electron integral symmetry is turned on.
   575 basis functions,  1293 primitive gaussians,   609 cartesian basis functions
   122 alpha electrons      122 beta electrons
       nuclear repulsion energy      3322.6331377420 Hartrees.
 IExCor=  402 DFT=T Ex+Corr=B3LYP ExCW=0 ScaHFX=  0.200000
 ScaDFX=  0.800000  0.720000  1.000000  0.810000 ScalE2=  1.000000  1.000000
 IRadAn=      0 IRanWt=     -1 IRanGd=            0 ICorTp=0
 NAtoms=   53 NActive=   53 NUniq=   53 SFac= 1.00D+00 NAtFMM=   60 NAOKFM=F Big=F
 Leave Link  301 at Tue Sep  6 02:49:20 2022, MaxMem=  209715200 cpu:       0.3
 (Enter /opt/gaussian/l302.exe)
 NPDir=0 NMtPBC=     1 NCelOv=     1 NCel=       1 NClECP=     1 NCelD=      1
         NCelK=      1 NCelE2=     1 NClLst=     1 CellRange=     0.0.
 One-electron integrals computed using PRISM.
 NBasis=   575 RedAO= T  NBF=   575
 NBsUse=   575 1.00D-06 NBFU=   575
 Precomputing XC quadrature grid using
 IXCGrd= 2 IRadAn=           0 IRanWt=          -1 IRanGd=           0 AccXCQ= 0.00D+00.
 NRdTot=    3424 NPtTot=      437710 NUsed=      462380 NTot=      462412
 NSgBfM=   580   580   580   580   580 NAtAll=    53    53.
 Leave Link  302 at Tue Sep  6 02:49:21 2022, MaxMem=  209715200 cpu:       9.2
 (Enter /opt/gaussian/l303.exe)
 DipDrv:  MaxL=1.
 Leave Link  303 at Tue Sep  6 02:49:21 2022, MaxMem=  209715200 cpu:       1.3
 (Enter /opt/gaussian/l401.exe)
 Harris functional with IExCor=  402 diagonalized for initial guess.
 ExpMin= 1.22D-01 ExpMax= 1.28D+05 ExpMxC= 1.24D+03 IAcc=2 IRadAn=         4 AccDes= 0.00D+00
 HarFok:  IExCor=  402 AccDes= 0.00D+00 IRadAn=         4 IDoV= 1
 ScaDFX=  1.000000  1.000000  1.000000  1.000000
 FoFCou: FMM=F IPFlag=           0 FMFlag=      100000 FMFlg1=           0
         NFxFlg=           0 DoJE=T BraDBF=F KetDBF=T FulRan=T
         Omega=  0.000000  0.000000  1.000000  0.000000  0.000000 ICntrl=     500 IOpCl=  0
         NMat0=    1 NMatS0=    1 NMatT0=    0 NMatD0=    1 NMtDS0=    0 NMtDT0=    0
         I1Cent=           4 NGrid=           0.
 Petite list used in FoFCou.
 Harris En= -1911.01825827287    
 Initial guess orbital symmetries:
       Occupied  (A) (A) (A) (A) (A) (A) (A) (A) (A) (A) (A) (A)
                 (A) (A) (A) (A) (A) (A) (A) (A) (A) (A) (A) (A)
                 (A) (A) (A) (A) (A) (A) (A) (A) (A) (A) (A) (A)
                 (A) (A) (A) (A) (A) (A) (A) (A) (A) (A) (A) (A)
                 (A) (A) (A) (A) (A) (A) (A) (A) (A) (A) (A) (A)
                 (A) (A) (A) (A) (A) (A) (A) (A) (A) (A) (A) (A)
                 (A) (A) (A) (A) (A) (A) (A) (A) (A) (A) (A) (A)
                 (A) (A) (A) (A) (A) (A) (A) (A) (A) (A) (A) (A)
                 (A) (A) (A) (A) (A) (A) (A) (A) (A) (A) (A) (A)
                 (A) (A) (A) (A) (A) (A) (A) (A) (A) (A) (A) (A)
                 (A) (A)
       Virtual   (A) (A) (A) (A) (A) (A) (A) (A) (A) (A) (A) (A)
                 (A) (A) (A) (A) (A) (A) (A) (A) (A) (A) (A) (A)
                 (A) (A) (A) (A) (A) (A) (A) (A) (A) (A) (A) (A)
                 (A) (A) (A) (A) (A) (A) (A) (A) (A) (A) (A) (A)
                 (A) (A) (A) (A) (A) (A) (A) (A) (A) (A) (A) (A)
                 (A) (A) (A) (A) (A) (A) (A) (A) (A) (A) (A) (A)
                 (A) (A) (A) (A) (A) (A) (A) (A) (A) (A) (A) (A)
                 (A) (A) (A) (A) (A) (A) (A) (A) (A) (A) (A) (A)
                 (A) (A) (A) (A) (A) (A) (A) (A) (A) (A) (A) (A)
                 (A) (A) (A) (A) (A) (A) (A) (A) (A) (A) (A) (A)
                 (A) (A) (A) (A) (A) (A) (A) (A) (A) (A) (A) (A)
                 (A) (A) (A) (A) (A) (A) (A) (A) (A) (A) (A) (A)
                 (A) (A) (A) (A) (A) (A) (A) (A) (A) (A) (A) (A)
                 (A) (A) (A) (A) (A) (A) (A) (A) (A) (A) (A) (A)
                 (A) (A) (A) (A) (A) (A) (A) (A) (A) (A) (A) (A)
                 (A) (A) (A) (A) (A) (A) (A) (A) (A) (A) (A) (A)
                 (A) (A) (A) (A) (A) (A) (A) (A) (A) (A) (A) (A)
                 (A) (A) (A) (A) (A) (A) (A) (A) (A) (A) (A) (A)
                 (A) (A) (A) (A) (A) (A) (A) (A) (A) (A) (A) (A)
                 (A) (A) (A) (A) (A) (A) (A) (A) (A) (A) (A) (A)
                 (A) (A) (A) (A) (A) (A) (A) (A) (A) (A) (A) (A)
                 (A) (A) (A) (A) (A) (A) (A) (A) (A) (A) (A) (A)
                 (A) (A) (A) (A) (A) (A) (A) (A) (A) (A) (A) (A)
                 (A) (A) (A) (A) (A) (A) (A) (A) (A) (A) (A) (A)
                 (A) (A) (A) (A) (A) (A) (A) (A) (A) (A) (A) (A)
                 (A) (A) (A) (A) (A) (A) (A) (A) (A) (A) (A) (A)
                 (A) (A) (A) (A) (A) (A) (A) (A) (A) (A) (A) (A)
                 (A) (A) (A) (A) (A) (A) (A) (A) (A) (A) (A) (A)
                 (A) (A) (A) (A) (A) (A) (A) (A) (A) (A) (A) (A)
                 (A) (A) (A) (A) (A) (A) (A) (A) (A) (A) (A) (A)
                 (A) (A) (A) (A) (A) (A) (A) (A) (A) (A) (A) (A)
                 (A) (A) (A) (A) (A) (A) (A) (A) (A) (A) (A) (A)
                 (A) (A) (A) (A) (A) (A) (A) (A) (A) (A) (A) (A)
                 (A) (A) (A) (A) (A) (A) (A) (A) (A) (A) (A) (A)
                 (A) (A) (A) (A) (A) (A) (A) (A) (A) (A) (A) (A)
                 (A) (A) (A) (A) (A) (A) (A) (A) (A) (A) (A) (A)
                 (A) (A) (A) (A) (A) (A) (A) (A) (A) (A) (A) (A)
                 (A) (A) (A) (A) (A) (A) (A) (A) (A)
 The electronic state of the initial guess is 1-A.
 Leave Link  401 at Tue Sep  6 02:49:25 2022, MaxMem=  209715200 cpu:      27.0
 (Enter /opt/gaussian/l502.exe)
 Closed shell SCF:
 Requested convergence on RMS density matrix=1.00D-08 within 128 cycles.
 Requested convergence on MAX density matrix=1.00D-06.
 Requested convergence on             energy=1.00D-06.
 No special actions if energy rises.
 Using DIIS extrapolation, IDIIS=  1040.
 Integral symmetry usage will be decided dynamically.
       461890 words used for storage of precomputed grid.
 IEnd=     1602149 IEndB=     1602149 NGot=   209715200 MDV=   208501182
 LenX=   208501182 LenY=   208129692
 Fock matrices will be formed incrementally for  20 cycles.
 Integral accuracy reduced to 1.0D-05 until final iterations.

 Cycle   1  Pass 0  IDiag  1:
 FoFCou: FMM=F IPFlag=           0 FMFlag=      100000 FMFlg1=           0
         NFxFlg=           0 DoJE=F BraDBF=F KetDBF=F FulRan=T
         Omega=  0.000000  0.000000  1.000000  0.000000  0.000000 ICntrl=       0 IOpCl=  0
         NMat0=    1 NMatS0=    1 NMatT0=    0 NMatD0=    1 NMtDS0=    0 NMtDT0=    0
         I1Cent=           0 NGrid=           0.
 Symmetry not used in FoFCou.
 E= -1910.68676015287    
 DIIS: error= 1.89D-02 at cycle   1 NSaved=   1.
 NSaved= 1 IEnMin= 1 EnMin= -1910.68676015287     IErMin= 1 ErrMin= 1.89D-02
 ErrMax= 1.89D-02 EMaxC= 1.00D-01 BMatC= 5.61D-01 BMatP= 5.61D-01
 IDIUse=3 WtCom= 8.11D-01 WtEn= 1.89D-01
 Coeff-Com:  0.100D+01
 Coeff-En:   0.100D+01
 Coeff:      0.100D+01
 Gap=     0.367 Goal=   None    Shift=    0.000
 GapD=    0.367 DampG=1.000 DampE=0.500 DampFc=0.5000 IDamp=-1.
 Damping current iteration by 5.00D-01
 RMSDP=3.78D-03 MaxDP=2.07D-01              OVMax= 2.88D-01

 Cycle   2  Pass 0  IDiag  1:
 RMSU=  1.32D-03    CP:  9.80D-01
 E= -1910.85946261491     Delta-E=       -0.172702462046 Rises=F Damp=T
 DIIS: error= 9.65D-03 at cycle   2 NSaved=   2.
 NSaved= 2 IEnMin= 2 EnMin= -1910.85946261491     IErMin= 2 ErrMin= 9.65D-03
 ErrMax= 9.65D-03 EMaxC= 1.00D-01 BMatC= 1.04D-01 BMatP= 5.61D-01
 IDIUse=3 WtCom= 9.03D-01 WtEn= 9.65D-02
 Coeff-Com:  0.220D+00 0.780D+00
 Coeff-En:   0.325D+00 0.675D+00
 Coeff:      0.230D+00 0.770D+00
 Gap=     0.248 Goal=   None    Shift=    0.000
 RMSDP=1.33D-03 MaxDP=7.98D-02 DE=-1.73D-01 OVMax= 3.21D-01

 Cycle   3  Pass 0  IDiag  1:
 RMSU=  9.07D-04    CP:  9.65D-01  8.44D-01
 E= -1911.19757639288     Delta-E=       -0.338113777969 Rises=F Damp=F
 DIIS: error= 1.08D-02 at cycle   3 NSaved=   3.
 NSaved= 3 IEnMin= 3 EnMin= -1911.19757639288     IErMin= 2 ErrMin= 9.65D-03
 ErrMax= 1.08D-02 EMaxC= 1.00D-01 BMatC= 1.07D-01 BMatP= 1.04D-01
 IDIUse=3 WtCom= 8.92D-01 WtEn= 1.08D-01
 Coeff-Com:  0.473D-01 0.495D+00 0.458D+00
 Coeff-En:   0.000D+00 0.000D+00 0.100D+01
 Coeff:      0.422D-01 0.442D+00 0.516D+00
 Gap=     0.188 Goal=   None    Shift=    0.000
 RMSDP=7.68D-04 MaxDP=6.66D-02 DE=-3.38D-01 OVMax= 8.15D-02

 Cycle   4  Pass 0  IDiag  1:
 RMSU=  3.66D-04    CP:  9.68D-01  9.49D-01  5.86D-01
 E= -1911.27782612753     Delta-E=       -0.080249734650 Rises=F Damp=F
 DIIS: error= 3.89D-03 at cycle   4 NSaved=   4.
 NSaved= 4 IEnMin= 4 EnMin= -1911.27782612753     IErMin= 4 ErrMin= 3.89D-03
 ErrMax= 3.89D-03 EMaxC= 1.00D-01 BMatC= 2.01D-02 BMatP= 1.04D-01
 IDIUse=3 WtCom= 9.61D-01 WtEn= 3.89D-02
 Coeff-Com:  0.970D-02 0.138D+00 0.321D+00 0.531D+00
 Coeff-En:   0.000D+00 0.000D+00 0.184D+00 0.816D+00
 Coeff:      0.932D-02 0.133D+00 0.316D+00 0.542D+00
 Gap=     0.188 Goal=   None    Shift=    0.000
 RMSDP=3.04D-04 MaxDP=2.11D-02 DE=-8.02D-02 OVMax= 3.01D-02

 Cycle   5  Pass 0  IDiag  1:
 RMSU=  1.30D-04    CP:  9.67D-01  9.06D-01  6.79D-01  6.25D-01
 E= -1911.29362777381     Delta-E=       -0.015801646279 Rises=F Damp=F
 DIIS: error= 1.21D-03 at cycle   5 NSaved=   5.
 NSaved= 5 IEnMin= 5 EnMin= -1911.29362777381     IErMin= 5 ErrMin= 1.21D-03
 ErrMax= 1.21D-03 EMaxC= 1.00D-01 BMatC= 1.93D-03 BMatP= 2.01D-02
 IDIUse=3 WtCom= 9.88D-01 WtEn= 1.21D-02
 Coeff-Com:  0.110D-02 0.291D-01 0.145D+00 0.345D+00 0.480D+00
 Coeff-En:   0.000D+00 0.000D+00 0.000D+00 0.675D-01 0.932D+00
 Coeff:      0.109D-02 0.287D-01 0.143D+00 0.342D+00 0.485D+00
 Gap=     0.186 Goal=   None    Shift=    0.000
 RMSDP=1.10D-04 MaxDP=5.07D-03 DE=-1.58D-02 OVMax= 1.41D-02

 Cycle   6  Pass 0  IDiag  1:
 RMSU=  3.76D-05    CP:  9.67D-01  9.13D-01  6.87D-01  6.83D-01  5.14D-01
 E= -1911.29554776502     Delta-E=       -0.001919991209 Rises=F Damp=F
 DIIS: error= 3.74D-04 at cycle   6 NSaved=   6.
 NSaved= 6 IEnMin= 6 EnMin= -1911.29554776502     IErMin= 6 ErrMin= 3.74D-04
 ErrMax= 3.74D-04 EMaxC= 1.00D-01 BMatC= 1.72D-04 BMatP= 1.93D-03
 IDIUse=3 WtCom= 9.96D-01 WtEn= 3.74D-03
 Coeff-Com: -0.286D-03-0.110D-02 0.411D-01 0.125D+00 0.282D+00 0.553D+00
 Coeff-En:   0.000D+00 0.000D+00 0.000D+00 0.000D+00 0.567D-01 0.943D+00
 Coeff:     -0.285D-03-0.110D-02 0.410D-01 0.124D+00 0.282D+00 0.555D+00
 Gap=     0.185 Goal=   None    Shift=    0.000
 RMSDP=3.12D-05 MaxDP=1.57D-03 DE=-1.92D-03 OVMax= 3.59D-03

 Cycle   7  Pass 0  IDiag  1:
 RMSU=  1.33D-05    CP:  9.67D-01  9.13D-01  6.88D-01  6.82D-01  5.77D-01
                    CP:  5.86D-01
 E= -1911.29572078085     Delta-E=       -0.000173015826 Rises=F Damp=F
 DIIS: error= 1.31D-04 at cycle   7 NSaved=   7.
 NSaved= 7 IEnMin= 7 EnMin= -1911.29572078085     IErMin= 7 ErrMin= 1.31D-04
 ErrMax= 1.31D-04 EMaxC= 1.00D-01 BMatC= 2.03D-05 BMatP= 1.72D-04
 IDIUse=3 WtCom= 9.99D-01 WtEn= 1.31D-03
 Coeff-Com: -0.104D-03-0.336D-02 0.113D-01 0.417D-01 0.123D+00 0.332D+00
 Coeff-Com:  0.495D+00
 Coeff-En:   0.000D+00 0.000D+00 0.000D+00 0.000D+00 0.000D+00 0.404D-01
 Coeff-En:   0.960D+00
 Coeff:     -0.104D-03-0.336D-02 0.113D-01 0.416D-01 0.123D+00 0.332D+00
 Coeff:      0.496D+00
 Gap=     0.185 Goal=   None    Shift=    0.000
 RMSDP=9.84D-06 MaxDP=7.15D-04 DE=-1.73D-04 OVMax= 9.07D-04

 Initial convergence to 1.0D-05 achieved.  Increase integral accuracy.
 Cycle   8  Pass 1  IDiag  1:
 E= -1911.29573773656     Delta-E=       -0.000016955708 Rises=F Damp=F
 DIIS: error= 1.50D-04 at cycle   1 NSaved=   1.
 NSaved= 1 IEnMin= 1 EnMin= -1911.29573773656     IErMin= 1 ErrMin= 1.50D-04
 ErrMax= 1.50D-04 EMaxC= 1.00D-01 BMatC= 1.30D-05 BMatP= 1.30D-05
 IDIUse=3 WtCom= 9.99D-01 WtEn= 1.50D-03
 Coeff-Com:  0.100D+01
 Coeff-En:   0.100D+01
 Coeff:      0.100D+01
 Gap=     0.185 Goal=   None    Shift=    0.000
 RMSDP=9.84D-06 MaxDP=7.15D-04 DE=-1.70D-05 OVMax= 7.80D-04

 Cycle   9  Pass 1  IDiag  1:
 RMSU=  8.52D-05    CP:  1.00D+00
 E= -1911.29574517596     Delta-E=       -0.000007439408 Rises=F Damp=F
 DIIS: error= 8.98D-05 at cycle   2 NSaved=   2.
 NSaved= 2 IEnMin= 2 EnMin= -1911.29574517596     IErMin= 2 ErrMin= 8.98D-05
 ErrMax= 8.98D-05 EMaxC= 1.00D-01 BMatC= 5.07D-06 BMatP= 1.30D-05
 IDIUse=1 WtCom= 1.00D+00 WtEn= 0.00D+00
 Coeff-Com:  0.326D+00 0.674D+00
 Coeff:      0.326D+00 0.674D+00
 Gap=     0.186 Goal=   None    Shift=    0.000
 RMSDP=8.86D-06 MaxDP=4.56D-04 DE=-7.44D-06 OVMax= 9.93D-04

 Cycle  10  Pass 1  IDiag  1:
 RMSU=  6.25D-06    CP:  1.00D+00  1.00D+00
 E= -1911.29574370078     Delta-E=        0.000001475180 Rises=F Damp=F
 DIIS: error= 1.14D-04 at cycle   3 NSaved=   3.
 NSaved= 3 IEnMin= 2 EnMin= -1911.29574517596     IErMin= 2 ErrMin= 8.98D-05
 ErrMax= 1.14D-04 EMaxC= 1.00D-01 BMatC= 6.34D-06 BMatP= 5.07D-06
 IDIUse=3 WtCom= 4.84D-01 WtEn= 5.16D-01
 Coeff-Com:  0.647D-02 0.526D+00 0.467D+00
 Coeff-En:   0.000D+00 0.545D+00 0.455D+00
 Coeff:      0.313D-02 0.536D+00 0.461D+00
 Gap=     0.185 Goal=   None    Shift=    0.000
 RMSDP=4.75D-06 MaxDP=2.65D-04 DE= 1.48D-06 OVMax= 5.60D-04

 Cycle  11  Pass 1  IDiag  1:
 RMSU=  1.00D-06    CP:  1.00D+00  1.01D+00  4.94D-01
 E= -1911.29575032663     Delta-E=       -0.000006625849 Rises=F Damp=F
 DIIS: error= 1.30D-05 at cycle   4 NSaved=   4.
 NSaved= 4 IEnMin= 4 EnMin= -1911.29575032663     IErMin= 4 ErrMin= 1.30D-05
 ErrMax= 1.30D-05 EMaxC= 1.00D-01 BMatC= 1.81D-07 BMatP= 5.07D-06
 IDIUse=1 WtCom= 1.00D+00 WtEn= 0.00D+00
 Coeff-Com: -0.336D-02 0.334D+00 0.297D+00 0.372D+00
 Coeff:     -0.336D-02 0.334D+00 0.297D+00 0.372D+00
 Gap=     0.185 Goal=   None    Shift=    0.000
 RMSDP=8.76D-07 MaxDP=5.32D-05 DE=-6.63D-06 OVMax= 9.28D-05

 Cycle  12  Pass 1  IDiag  1:
 RMSU=  2.35D-07    CP:  1.00D+00  1.01D+00  4.84D-01  4.32D-01
 E= -1911.29575048842     Delta-E=       -0.000000161785 Rises=F Damp=F
 DIIS: error= 1.59D-06 at cycle   5 NSaved=   5.
 NSaved= 5 IEnMin= 5 EnMin= -1911.29575048842     IErMin= 5 ErrMin= 1.59D-06
 ErrMax= 1.59D-06 EMaxC= 1.00D-01 BMatC= 4.38D-09 BMatP= 1.81D-07
 IDIUse=1 WtCom= 1.00D+00 WtEn= 0.00D+00
 Coeff-Com: -0.225D-02 0.179D+00 0.159D+00 0.222D+00 0.442D+00
 Coeff:     -0.225D-02 0.179D+00 0.159D+00 0.222D+00 0.442D+00
 Gap=     0.185 Goal=   None    Shift=    0.000
 RMSDP=1.52D-07 MaxDP=1.12D-05 DE=-1.62D-07 OVMax= 1.43D-05

 Cycle  13  Pass 1  IDiag  1:
 RMSU=  8.01D-08    CP:  1.00D+00  1.01D+00  4.84D-01  4.36D-01  6.95D-01
 E= -1911.29575049229     Delta-E=       -0.000000003870 Rises=F Damp=F
 DIIS: error= 5.07D-07 at cycle   6 NSaved=   6.
 NSaved= 6 IEnMin= 6 EnMin= -1911.29575049229     IErMin= 6 ErrMin= 5.07D-07
 ErrMax= 5.07D-07 EMaxC= 1.00D-01 BMatC= 3.69D-10 BMatP= 4.38D-09
 IDIUse=1 WtCom= 1.00D+00 WtEn= 0.00D+00
 Coeff-Com: -0.990D-03 0.725D-01 0.642D-01 0.944D-01 0.264D+00 0.506D+00
 Coeff:     -0.990D-03 0.725D-01 0.642D-01 0.944D-01 0.264D+00 0.506D+00
 Gap=     0.185 Goal=   None    Shift=    0.000
 RMSDP=4.26D-08 MaxDP=3.33D-06 DE=-3.87D-09 OVMax= 4.13D-06

 Cycle  14  Pass 1  IDiag  1:
 RMSU=  2.39D-08    CP:  1.00D+00  1.01D+00  4.84D-01  4.42D-01  7.25D-01
                    CP:  8.04D-01
 E= -1911.29575049265     Delta-E=       -0.000000000357 Rises=F Damp=F
 DIIS: error= 2.44D-07 at cycle   7 NSaved=   7.
 NSaved= 7 IEnMin= 7 EnMin= -1911.29575049265     IErMin= 7 ErrMin= 2.44D-07
 ErrMax= 2.44D-07 EMaxC= 1.00D-01 BMatC= 3.84D-11 BMatP= 3.69D-10
 IDIUse=1 WtCom= 1.00D+00 WtEn= 0.00D+00
 Coeff-Com: -0.236D-03 0.153D-01 0.135D-01 0.217D-01 0.840D-01 0.284D+00
 Coeff-Com:  0.581D+00
 Coeff:     -0.236D-03 0.153D-01 0.135D-01 0.217D-01 0.840D-01 0.284D+00
 Coeff:      0.581D+00
 Gap=     0.185 Goal=   None    Shift=    0.000
 RMSDP=1.54D-08 MaxDP=9.27D-07 DE=-3.57D-10 OVMax= 1.69D-06

 Cycle  15  Pass 1  IDiag  1:
 RMSU=  7.96D-09    CP:  1.00D+00  1.01D+00  4.84D-01  4.41D-01  7.36D-01
                    CP:  8.28D-01  7.21D-01
 E= -1911.29575049271     Delta-E=       -0.000000000061 Rises=F Damp=F
 DIIS: error= 1.07D-07 at cycle   8 NSaved=   8.
 NSaved= 8 IEnMin= 8 EnMin= -1911.29575049271     IErMin= 8 ErrMin= 1.07D-07
 ErrMax= 1.07D-07 EMaxC= 1.00D-01 BMatC= 7.42D-12 BMatP= 3.84D-11
 IDIUse=1 WtCom= 1.00D+00 WtEn= 0.00D+00
 Coeff-Com:  0.264D-04-0.318D-02-0.289D-02-0.289D-02 0.532D-02 0.886D-01
 Coeff-Com:  0.357D+00 0.558D+00
 Coeff:      0.264D-04-0.318D-02-0.289D-02-0.289D-02 0.532D-02 0.886D-01
 Coeff:      0.357D+00 0.558D+00
 Gap=     0.185 Goal=   None    Shift=    0.000
 RMSDP=6.42D-09 MaxDP=2.82D-07 DE=-6.09D-11 OVMax= 9.18D-07

 SCF Done:  E(RB3LYP) =  -1911.29575049     A.U. after   15 cycles
             Convg  =    0.6416D-08             -V/T =  2.0048
 KE= 1.902229609575D+03 PE=-1.111613017929D+04 EE= 3.979971681483D+03
 Leave Link  502 at Tue Sep  6 03:02:36 2022, MaxMem=  209715200 cpu:    6314.3
 (Enter /opt/gaussian/l601.exe)
 Copying SCF densities to generalized density rwf, IOpCl= 0 IROHF=0.

 **********************************************************************

            Population analysis using the SCF density.

 **********************************************************************

 Orbital symmetries:
       Occupied  (A) (A) (A) (A) (A) (A) (A) (A) (A) (A) (A) (A)
                 (A) (A) (A) (A) (A) (A) (A) (A) (A) (A) (A) (A)
                 (A) (A) (A) (A) (A) (A) (A) (A) (A) (A) (A) (A)
                 (A) (A) (A) (A) (A) (A) (A) (A) (A) (A) (A) (A)
                 (A) (A) (A) (A) (A) (A) (A) (A) (A) (A) (A) (A)
                 (A) (A) (A) (A) (A) (A) (A) (A) (A) (A) (A) (A)
                 (A) (A) (A) (A) (A) (A) (A) (A) (A) (A) (A) (A)
                 (A) (A) (A) (A) (A) (A) (A) (A) (A) (A) (A) (A)
                 (A) (A) (A) (A) (A) (A) (A) (A) (A) (A) (A) (A)
                 (A) (A) (A) (A) (A) (A) (A) (A) (A) (A) (A) (A)
                 (A) (A)
       Virtual   (A) (A) (A) (A) (A) (A) (A) (A) (A) (A) (A) (A)
                 (A) (A) (A) (A) (A) (A) (A) (A) (A) (A) (A) (A)
                 (A) (A) (A) (A) (A) (A) (A) (A) (A) (A) (A) (A)
                 (A) (A) (A) (A) (A) (A) (A) (A) (A) (A) (A) (A)
                 (A) (A) (A) (A) (A) (A) (A) (A) (A) (A) (A) (A)
                 (A) (A) (A) (A) (A) (A) (A) (A) (A) (A) (A) (A)
                 (A) (A) (A) (A) (A) (A) (A) (A) (A) (A) (A) (A)
                 (A) (A) (A) (A) (A) (A) (A) (A) (A) (A) (A) (A)
                 (A) (A) (A) (A) (A) (A) (A) (A) (A) (A) (A) (A)
                 (A) (A) (A) (A) (A) (A) (A) (A) (A) (A) (A) (A)
                 (A) (A) (A) (A) (A) (A) (A) (A) (A) (A) (A) (A)
                 (A) (A) (A) (A) (A) (A) (A) (A) (A) (A) (A) (A)
                 (A) (A) (A) (A) (A) (A) (A) (A) (A) (A) (A) (A)
                 (A) (A) (A) (A) (A) (A) (A) (A) (A) (A) (A) (A)
                 (A) (A) (A) (A) (A) (A) (A) (A) (A) (A) (A) (A)
                 (A) (A) (A) (A) (A) (A) (A) (A) (A) (A) (A) (A)
                 (A) (A) (A) (A) (A) (A) (A) (A) (A) (A) (A) (A)
                 (A) (A) (A) (A) (A) (A) (A) (A) (A) (A) (A) (A)
                 (A) (A) (A) (A) (A) (A) (A) (A) (A) (A) (A) (A)
                 (A) (A) (A) (A) (A) (A) (A) (A) (A) (A) (A) (A)
                 (A) (A) (A) (A) (A) (A) (A) (A) (A) (A) (A) (A)
                 (A) (A) (A) (A) (A) (A) (A) (A) (A) (A) (A) (A)
                 (A) (A) (A) (A) (A) (A) (A) (A) (A) (A) (A) (A)
                 (A) (A) (A) (A) (A) (A) (A) (A) (A) (A) (A) (A)
                 (A) (A) (A) (A) (A) (A) (A) (A) (A) (A) (A) (A)
                 (A) (A) (A) (A) (A) (A) (A) (A) (A) (A) (A) (A)
                 (A) (A) (A) (A) (A) (A) (A) (A) (A) (A) (A) (A)
                 (A) (A) (A) (A) (A) (A) (A) (A) (A) (A) (A) (A)
                 (A) (A) (A) (A) (A) (A) (A) (A) (A) (A) (A) (A)
                 (A) (A) (A) (A) (A) (A) (A) (A) (A) (A) (A) (A)
                 (A) (A) (A) (A) (A) (A) (A) (A) (A) (A) (A) (A)
                 (A) (A) (A) (A) (A) (A) (A) (A) (A) (A) (A) (A)
                 (A) (A) (A) (A) (A) (A) (A) (A) (A) (A) (A) (A)
                 (A) (A) (A) (A) (A) (A) (A) (A) (A) (A) (A) (A)
                 (A) (A) (A) (A) (A) (A) (A) (A) (A) (A) (A) (A)
                 (A) (A) (A) (A) (A) (A) (A) (A) (A) (A) (A) (A)
                 (A) (A) (A) (A) (A) (A) (A) (A) (A) (A) (A) (A)
                 (A) (A) (A) (A) (A) (A) (A) (A) (A)
 The electronic state is 1-A.
 Alpha  occ. eigenvalues -- -101.56499 -24.72836 -19.12812 -14.41095 -14.39205
 Alpha  occ. eigenvalues --  -14.39049 -14.34778 -14.32785 -10.30986 -10.30185
 Alpha  occ. eigenvalues --  -10.27790 -10.26384 -10.25816 -10.24742 -10.23600
 Alpha  occ. eigenvalues --  -10.23059 -10.23056 -10.22725 -10.22614 -10.22473
 Alpha  occ. eigenvalues --  -10.22401 -10.21292 -10.21204 -10.21101 -10.20883
 Alpha  occ. eigenvalues --  -10.20784 -10.20604 -10.20341 -10.20278 -10.20225
 Alpha  occ. eigenvalues --  -10.20224 -10.19824 -10.19607 -10.19185  -9.48222
 Alpha  occ. eigenvalues --   -7.24529  -7.23499  -7.23454  -1.24021  -1.10451
 Alpha  occ. eigenvalues --   -1.06327  -0.97528  -0.95184  -0.93261  -0.92156
 Alpha  occ. eigenvalues --   -0.88319  -0.87306  -0.86577  -0.82666  -0.81071
 Alpha  occ. eigenvalues --   -0.79456  -0.78485  -0.77605  -0.77501  -0.77052
 Alpha  occ. eigenvalues --   -0.75765  -0.74479  -0.72758  -0.66793  -0.66221
 Alpha  occ. eigenvalues --   -0.65349  -0.64985  -0.63615  -0.63051  -0.62521
 Alpha  occ. eigenvalues --   -0.62077  -0.59964  -0.57790  -0.57165  -0.55071
 Alpha  occ. eigenvalues --   -0.54375  -0.53585  -0.53283  -0.52947  -0.52130
 Alpha  occ. eigenvalues --   -0.51065  -0.50085  -0.49540  -0.48756  -0.48540
 Alpha  occ. eigenvalues --   -0.47863  -0.47299  -0.47137  -0.46822  -0.46291
 Alpha  occ. eigenvalues --   -0.45934  -0.45614  -0.45217  -0.44621  -0.44464
 Alpha  occ. eigenvalues --   -0.44156  -0.42988  -0.42241  -0.41874  -0.41149
 Alpha  occ. eigenvalues --   -0.40916  -0.40302  -0.40133  -0.39349  -0.38643
 Alpha  occ. eigenvalues --   -0.38291  -0.38061  -0.37137  -0.37060  -0.36401
 Alpha  occ. eigenvalues --   -0.36191  -0.35435  -0.33600  -0.33244  -0.31594
 Alpha  occ. eigenvalues --   -0.31247  -0.29275  -0.28808  -0.28095  -0.27661
 Alpha  occ. eigenvalues --   -0.27201  -0.26951  -0.26342  -0.25647  -0.25406
 Alpha  occ. eigenvalues --   -0.23950  -0.23730
 Alpha virt. eigenvalues --   -0.05180  -0.04838  -0.04049  -0.03749  -0.03067
 Alpha virt. eigenvalues --   -0.02602  -0.01157  -0.00670   0.00737   0.01454
 Alpha virt. eigenvalues --    0.03372   0.04001   0.05253   0.06097   0.06820
 Alpha virt. eigenvalues --    0.07064   0.07436   0.08423   0.09021   0.09373
 Alpha virt. eigenvalues --    0.10553   0.10895   0.11251   0.11656   0.12136
 Alpha virt. eigenvalues --    0.12461   0.12881   0.13267   0.13419   0.13970
 Alpha virt. eigenvalues --    0.14366   0.14735   0.15409   0.16192   0.16375
 Alpha virt. eigenvalues --    0.17050   0.17742   0.19826   0.20160   0.21070
 Alpha virt. eigenvalues --    0.21992   0.22813   0.23516   0.24277   0.24756
 Alpha virt. eigenvalues --    0.25136   0.26222   0.26696   0.27353   0.28206
 Alpha virt. eigenvalues --    0.28659   0.29616   0.30009   0.30279   0.30498
 Alpha virt. eigenvalues --    0.30906   0.31591   0.33381   0.33951   0.34626
 Alpha virt. eigenvalues --    0.36030   0.36640   0.36801   0.37690   0.39061
 Alpha virt. eigenvalues --    0.39198   0.40060   0.40774   0.42181   0.42907
 Alpha virt. eigenvalues --    0.43492   0.43680   0.44430   0.44617   0.45022
 Alpha virt. eigenvalues --    0.45470   0.45622   0.45775   0.45862   0.46565
 Alpha virt. eigenvalues --    0.46699   0.47154   0.47380   0.47740   0.47783
 Alpha virt. eigenvalues --    0.48034   0.48213   0.48706   0.48878   0.48986
 Alpha virt. eigenvalues --    0.49606   0.49995   0.50153   0.50645   0.50693
 Alpha virt. eigenvalues --    0.50888   0.51223   0.51590   0.51944   0.52388
 Alpha virt. eigenvalues --    0.52640   0.53068   0.53635   0.53831   0.54627
 Alpha virt. eigenvalues --    0.54872   0.55184   0.55294   0.55472   0.55599
 Alpha virt. eigenvalues --    0.56370   0.56609   0.57133   0.58780   0.58821
 Alpha virt. eigenvalues --    0.59577   0.59706   0.59798   0.60360   0.60537
 Alpha virt. eigenvalues --    0.60871   0.61366   0.61879   0.62067   0.62890
 Alpha virt. eigenvalues --    0.62960   0.64068   0.64802   0.64938   0.65191
 Alpha virt. eigenvalues --    0.65368   0.65788   0.66328   0.66407   0.67086
 Alpha virt. eigenvalues --    0.67172   0.67639   0.67848   0.68624   0.68919
 Alpha virt. eigenvalues --    0.69675   0.70082   0.70311   0.70556   0.70910
 Alpha virt. eigenvalues --    0.71277   0.71635   0.72131   0.72950   0.73037
 Alpha virt. eigenvalues --    0.74245   0.74480   0.75736   0.75931   0.76484
 Alpha virt. eigenvalues --    0.77998   0.78643   0.79545   0.80029   0.80681
 Alpha virt. eigenvalues --    0.82386   0.83127   0.83362   0.83799   0.84343
 Alpha virt. eigenvalues --    0.84713   0.86215   0.86875   0.87566   0.87815
 Alpha virt. eigenvalues --    0.88160   0.88672   0.88756   0.89146   0.89476
 Alpha virt. eigenvalues --    0.90035   0.90958   0.91526   0.92031   0.92541
 Alpha virt. eigenvalues --    0.93092   0.93429   0.94143   0.94536   0.95141
 Alpha virt. eigenvalues --    0.95371   0.95558   0.96817   0.97433   0.97847
 Alpha virt. eigenvalues --    0.98662   0.99072   1.00066   1.00172   1.00609
 Alpha virt. eigenvalues --    1.01338   1.01384   1.01545   1.02102   1.02823
 Alpha virt. eigenvalues --    1.03394   1.03856   1.04400   1.04787   1.05176
 Alpha virt. eigenvalues --    1.05635   1.05846   1.06430   1.06820   1.08162
 Alpha virt. eigenvalues --    1.08435   1.08989   1.09415   1.10788   1.10883
 Alpha virt. eigenvalues --    1.11515   1.11619   1.12183   1.13119   1.13997
 Alpha virt. eigenvalues --    1.14537   1.15319   1.16013   1.17084   1.18109
 Alpha virt. eigenvalues --    1.18853   1.19738   1.20415   1.21609   1.22202
 Alpha virt. eigenvalues --    1.23525   1.23601   1.24420   1.25227   1.27100
 Alpha virt. eigenvalues --    1.27578   1.29345   1.30558   1.30694   1.30995
 Alpha virt. eigenvalues --    1.31746   1.33186   1.33986   1.34791   1.35309
 Alpha virt. eigenvalues --    1.35943   1.37630   1.37947   1.38387   1.40157
 Alpha virt. eigenvalues --    1.42115   1.43850   1.44708   1.44953   1.46073
 Alpha virt. eigenvalues --    1.46698   1.47314   1.48092   1.48632   1.48712
 Alpha virt. eigenvalues --    1.49441   1.49659   1.50341   1.50907   1.51540
 Alpha virt. eigenvalues --    1.51760   1.52410   1.52720   1.53297   1.55921
 Alpha virt. eigenvalues --    1.56230   1.56824   1.57176   1.57427   1.57978
 Alpha virt. eigenvalues --    1.58891   1.59243   1.59518   1.60099   1.60886
 Alpha virt. eigenvalues --    1.61004   1.61544   1.61874   1.62204   1.63013
 Alpha virt. eigenvalues --    1.63180   1.63442   1.63926   1.64112   1.64696
 Alpha virt. eigenvalues --    1.64982   1.65206   1.65707   1.66312   1.66659
 Alpha virt. eigenvalues --    1.67231   1.67814   1.68222   1.69012   1.69792
 Alpha virt. eigenvalues --    1.70426   1.70744   1.70874   1.71626   1.72049
 Alpha virt. eigenvalues --    1.72531   1.72962   1.73543   1.73880   1.74318
 Alpha virt. eigenvalues --    1.75127   1.75491   1.76070   1.76647   1.77147
 Alpha virt. eigenvalues --    1.77918   1.78691   1.78875   1.79700   1.80134
 Alpha virt. eigenvalues --    1.80221   1.81325   1.81629   1.81741   1.83053
 Alpha virt. eigenvalues --    1.83993   1.84060   1.84466   1.84980   1.85475
 Alpha virt. eigenvalues --    1.86163   1.86597   1.86803   1.87293   1.88019
 Alpha virt. eigenvalues --    1.88248   1.88466   1.88969   1.89946   1.90400
 Alpha virt. eigenvalues --    1.90945   1.91286   1.93126   1.93793   1.94603
 Alpha virt. eigenvalues --    1.94817   1.96802   1.97815   1.98350   1.98695
 Alpha virt. eigenvalues --    1.99821   2.00273   2.00651   2.00861   2.01794
 Alpha virt. eigenvalues --    2.02447   2.02543   2.04563   2.04951   2.05186
 Alpha virt. eigenvalues --    2.06073   2.07261   2.07861   2.09636   2.11270
 Alpha virt. eigenvalues --    2.11595   2.13035   2.13445   2.14549   2.15970
 Alpha virt. eigenvalues --    2.16161   2.17818   2.17949   2.19118   2.19493
 Alpha virt. eigenvalues --    2.19946   2.20780   2.21458   2.22896   2.24207
 Alpha virt. eigenvalues --    2.25341   2.26550   2.29337   2.29987   2.31190
 Alpha virt. eigenvalues --    2.32473   2.33995   2.35331   2.36698   2.41041
 Alpha virt. eigenvalues --    2.42315   2.42835   2.43012   2.43197   2.43339
 Alpha virt. eigenvalues --    2.43820   2.45601   2.46595   2.47127   2.47627
 Alpha virt. eigenvalues --    2.48174   2.48945   2.49429   2.50679   2.51217
 Alpha virt. eigenvalues --    2.52288   2.54356   2.55543   2.56776   2.57605
 Alpha virt. eigenvalues --    2.60021   2.61049   2.63155   2.64510   2.65311
 Alpha virt. eigenvalues --    2.66531   2.69049   2.69310   2.70609   2.71380
 Alpha virt. eigenvalues --    2.72610   2.73748   2.74499   2.76618   2.77828
 Alpha virt. eigenvalues --    2.78057   2.79587   2.80224   2.82009   2.83701
 Alpha virt. eigenvalues --    2.84307   2.88281   2.89849   2.90583   2.94243
 Alpha virt. eigenvalues --    2.97160   2.98704   2.99526   3.00811   3.08168
 Alpha virt. eigenvalues --    3.12698   3.15998   3.30413   3.41188   3.45970
 Alpha virt. eigenvalues --    3.48641   3.55559   3.59183   3.59312   3.60275
 Alpha virt. eigenvalues --    3.73923   3.94813   4.16757
          Condensed to atoms (all electrons):
 Mulliken atomic charges:
              1
     1  F   -0.157827
     2  C    0.220366
     3  C    0.066385
     4  C    0.046146
     5  C   -0.103660
     6  C    0.146928
     7  C   -0.188003
     8  Cl  -0.058051
     9  C    0.182987
    10  N   -0.283775
    11  C    0.104746
    12  O   -0.240703
    13  C    0.156962
    14  N   -0.230952
    15  N   -0.055572
    16  N   -0.178647
    17  C   -0.002119
    18  C    0.064787
    19  C    0.050031
    20  C    0.052720
    21  C    0.044414
    22  C    0.212688
    23  C    0.084115
    24  C    0.047558
    25  C    0.040739
    26  C    0.023097
    27  C    0.038976
    28  C    0.103802
    29  C   -0.062058
    30  C    0.098048
    31  C   -0.001360
    32  C    0.121791
    33  N   -0.171796
    34  C    0.121218
    35  H   -0.008304
    36  H   -0.017014
    37  H   -0.036078
    38  H    0.048705
    39  H    0.038063
    40  H    0.051833
    41  H    0.046303
    42  H   -0.032507
    43  H   -0.037188
    44  H   -0.036361
    45  H   -0.045917
    46  H   -0.041954
    47  H   -0.047847
    48  H   -0.039610
    49  H   -0.027224
    50  H   -0.039628
    51  H   -0.034328
    52  H   -0.013020
    53  H   -0.021909
 Sum of Mulliken atomic charges =   0.00000
 Mulliken charges with hydrogens summed into heavy atoms:
              1
     1  F   -0.157827
     2  C    0.220366
     3  C    0.058081
     4  C    0.029132
     5  C   -0.103660
     6  C    0.110850
     7  C   -0.188003
     8  Cl  -0.058051
     9  C    0.269755
    10  N   -0.283775
    11  C    0.104746
    12  O   -0.240703
    13  C    0.255099
    14  N   -0.230952
    15  N   -0.055572
    16  N   -0.178647
    17  C   -0.002119
    18  C    0.032280
    19  C    0.012843
    20  C    0.016359
    21  C   -0.001503
    22  C    0.212688
    23  C    0.084115
    24  C    0.005604
    25  C   -0.007107
    26  C    0.023097
    27  C   -0.000633
    28  C    0.076579
    29  C   -0.062058
    30  C    0.058420
    31  C   -0.035688
    32  C    0.108770
    33  N   -0.171796
    34  C    0.099310
 Sum of Mulliken charges with hydrogens summed into heavy atoms =   0.00000
 Electronic spatial extent (au):  <R**2>=          22729.1242
 Charge=              0.0000 electrons
 Dipole moment (field-independent basis, Debye):
    X=             -1.0788    Y=              3.9225    Z=              2.4567  Tot=              4.7524
 Quadrupole moment (field-independent basis, Debye-Ang):
   XX=           -213.5703   YY=           -223.1127   ZZ=           -193.0503
   XY=             -5.7841   XZ=             -3.5581   YZ=            -11.8088
 Traceless Quadrupole moment (field-independent basis, Debye-Ang):
   XX=             -3.6592   YY=            -13.2016   ZZ=             16.8608
   XY=             -5.7841   XZ=             -3.5581   YZ=            -11.8088
 Octapole moment (field-independent basis, Debye-Ang**2):
  XXX=             75.2849  YYY=              6.0712  ZZZ=             31.8785  XYY=            -30.4334
  XXY=             24.6293  XXZ=            159.3710  XZZ=              1.0055  YZZ=             38.9129
  YYZ=             30.6665  XYZ=            -65.0224
 Hexadecapole moment (field-independent basis, Debye-Ang**3):
 XXXX=         -20180.5162 YYYY=          -9701.3057 ZZZZ=          -1806.0198 XXXY=           -272.6113
 XXXZ=           -880.7710 YYYX=            -86.7095 YYYZ=           -223.4340 ZZZX=             72.4303
 ZZZY=            -37.2058 XXYY=          -4967.0998 XXZZ=          -3487.6125 YYZZ=          -1935.2472
 XXYZ=           -230.2180 YYXZ=            182.5033 ZZXY=             84.2498
 N-N= 3.322633137742D+03 E-N=-1.111613018209D+04  KE= 1.902229609575D+03
 No NMR shielding tensors so no spin-rotation constants.
 Leave Link  601 at Tue Sep  6 03:02:37 2022, MaxMem=  209715200 cpu:       4.4
 (Enter /opt/gaussian/l701.exe)
 Compute integral first derivatives.
 ... and contract with generalized density number  0.
 Leave Link  701 at Tue Sep  6 03:02:37 2022, MaxMem=  209715200 cpu:       3.6
 (Enter /opt/gaussian/l702.exe)
 L702 exits ... SP integral derivatives will be done elsewhere.
 Leave Link  702 at Tue Sep  6 03:02:37 2022, MaxMem=  209715200 cpu:       0.2
 (Enter /opt/gaussian/l703.exe)
 Compute integral first derivatives, UseDBF=F ICtDFT=           0.
 Integral derivatives from FoFDir, PRISM(SPDF).
 Calling FoFJK, ICntrl=      2127 FMM=F ISym2X=0 I1Cent= 0 IOpClX= 0 NMat=1 NMatS=1 NMatT=0.
 FoFCou: FMM=F IPFlag=           0 FMFlag=      100000 FMFlg1=         800
         NFxFlg=           0 DoJE=F BraDBF=F KetDBF=F FulRan=T
         Omega=  0.000000  0.000000  1.000000  0.000000  0.000000 ICntrl=    2127 IOpCl=  0
         NMat0=    1 NMatS0=    1 NMatT0=    0 NMatD0=    1 NMtDS0=    0 NMtDT0=    0
         I1Cent=           0 NGrid=           0.
 Symmetry not used in FoFCou.
 Leave Link  703 at Tue Sep  6 03:07:07 2022, MaxMem=  209715200 cpu:    2155.9
 (Enter /opt/gaussian/l716.exe)
 Dipole        =-4.24424438D-01 1.54324366D+00 9.66549876D-01
 ***** Axes restored to original set *****
 -------------------------------------------------------------------
 Center     Atomic                   Forces (Hartrees/Bohr)
 Number     Number              X              Y              Z
 -------------------------------------------------------------------
      1        9          -0.007367143   -0.008992521   -0.009346126
      2        6           0.016411568    0.019701057    0.023164009
      3        6          -0.002225193   -0.002307992   -0.004737027
      4        6           0.000945543    0.002181664   -0.001570681
      5        6          -0.002940656   -0.003693507   -0.005137766
      6        6          -0.001896433   -0.002669734    0.000330094
      7        6           0.013057392    0.021365600   -0.015343348
      8       17          -0.007929757   -0.012593285    0.007228517
      9        6           0.003235372   -0.003494120    0.014151070
     10        7          -0.004807226    0.007327203   -0.003825957
     11        6          -0.004469825   -0.012937289    0.008657703
     12        8           0.000335780    0.000569755   -0.001522556
     13        6          -0.001652943   -0.004392828    0.003531003
     14        7           0.000260353    0.000002819   -0.000090710
     15        7          -0.009078323    0.012706334   -0.009597405
     16        7           0.011466200   -0.019989470    0.002453004
     17        6          -0.000116165   -0.007238744   -0.014645868
     18        6          -0.001289496    0.001881620   -0.001620106
     19        6          -0.003245380    0.007021959    0.001885193
     20        6           0.003242048   -0.006559902   -0.001829575
     21        6          -0.000888637   -0.000319115   -0.004736881
     22        6          -0.005267770    0.011012861    0.005369573
     23        6           0.009852286    0.000248576   -0.001979929
     24        6          -0.002895241   -0.000853065   -0.000505374
     25        6           0.002846815   -0.001816013   -0.000936330
     26        6          -0.010441673   -0.000840983    0.002207967
     27        6           0.002438603    0.002867649   -0.000065555
     28        6          -0.002058598    0.000663799    0.002438832
     29        6           0.013059436    0.000819887   -0.000750142
     30        6          -0.003694992   -0.000300362   -0.002442267
     31        6           0.002338769    0.000173626   -0.001059650
     32        6           0.014825602    0.000196937   -0.004628721
     33        7          -0.010929715   -0.005788815   -0.014189197
     34        6          -0.009556181    0.002233260    0.012653400
     35        1           0.000658565   -0.001422885    0.014550846
     36        1          -0.006750414   -0.011154525    0.005830712
     37        1           0.000158310    0.002276602   -0.013898601
     38        1          -0.010402957    0.006257758   -0.004617885
     39        1           0.007204433   -0.002838166   -0.010300819
     40        1           0.000792675    0.002478619   -0.013450584
     41        1           0.006376533    0.010755380    0.005361750
     42        1           0.005402399   -0.012470517   -0.004861641
     43        1           0.006957051   -0.008232903    0.009549625
     44        1           0.001463500    0.003884613    0.013615679
     45        1          -0.005635953    0.012254382    0.004543241
     46        1           0.007213010    0.011305424    0.004294614
     47        1          -0.006348478    0.010497631    0.006519140
     48        1          -0.007192772   -0.011390017   -0.004146064
     49        1           0.006819869   -0.010734732   -0.006957798
     50        1           0.008688396    0.004216906    0.010556165
     51        1          -0.005730601    0.003674347    0.013535202
     52        1          -0.017489315   -0.001501244    0.001992111
[...]
 1868,0.00001252,-0.00002222,0.00000454,-0.00002358,0.00002273,0.000010
 57,0.00000942,-0.00002300,-0.00003108,-0.00001484,0.00002448,-0.000006
 59,-0.00000211,0.00000343,0.00000713,0.00000108,-0.00000164,-0.0000008
 9,-0.00000123,0.00000239,-0.00000013,0.00000182,-0.00000320,0.00000346
 ,-0.00000072,-0.00000105,-0.00000763,0.00001180,-0.00000569,0.00002677
 ,0.00006013,0.00008958,-0.00004760,0.00016184,0.00041473,0.00024277,0.
 00051726,-0.00087062,-0.00023207,-0.00118272,0.00196720,-0.00038041,0.
 00000434,-0.00013491,0.00016530,-0.00009436,0.00007126,0.00012347,-0.0
 1641573,-0.01272736,-0.00933989,-0.10026391,-0.10007758,-0.16423229,0.
 00470158,0.00211328,0.00692552,0.00226628,-0.00306133,0.00360030,-0.00
 007970,0.00190987,-0.00121028,0.00454034,-0.00501723,-0.00061526,0.000
 00126,-0.00000130,-0.00000026,0.00001082,-0.00000768,0.00001070,0.0000
 0301,0.00000075,-0.00000014,0.00000268,-0.00000034,-0.00001902,-0.0000
 1391,-0.00000389,0.00000320,-0.00000237,-0.00000076,-0.00000408,-0.000
 00526,0.00000393,0.00000208,-0.00000086,0.00000100,0.00000043,-0.00000
 133,0.00000140,-0.00000128,-0.00000002,-0.00000060,-0.00000138,0.00000
 140,0.00000152,0.00000411,0.00004892,-0.00002429,0.00000190,0.00045939
 ,0.00080070,-0.00037552,-0.00007389,0.00012089,-0.00002224,-0.00000566
 ,0.00000769,-0.00002494,0.10683928,0.11230658,0.16683921,-0.00001272,-
 0.00001885,-0.00001919,0.00000800,0.00001110,0.00002048,0.00000113,-0.
 00000139,0.00000812,-0.00000443,-0.00000014,-0.00000707,0.00000600,0.0
 0000119,0.00001346,-0.00000239,-0.00000240,-0.00000915,0.00000688,0.00
 001162,-0.00001087,-0.00000702,-0.00001132,0.00000344,0.00000860,0.000
 06011,0.00000132,-0.00014866,0.00002065,0.00001830,0.00007004,-0.00010
 366,0.00001053,-0.00003697,0.00004625,-0.00002679,0.00001145,-0.000014
 80,0.00000752,-0.00001649,0.00001393,0.00000653,0.00000326,-0.00001379
 ,-0.00002196,-0.00000915,0.00001460,-0.00000384,-0.00000159,0.00000279
 ,0.00000394,0.00000115,-0.00000187,0.00000052,-0.00000090,0.00000115,-
 0.00000161,0.00000060,-0.00000165,0.00000255,-0.00000160,0.00000052,-0
 .00000409,0.00001048,-0.00000549,0.00001981,0.00010784,0.00000281,-0.0
 0001285,-0.00004046,-0.00001106,-0.00002625,-0.00003112,0.00010699,-0.
 00005399,0.00027970,0.00091993,0.00112544,-0.00038985,-0.00020109,0.00
 003498,-0.00005057,0.00011216,-0.00000871,-0.00505760,-0.00222115,0.00
 042009,-0.00760859,0.01498720,0.02476341,-0.10910256,0.05273108,0.0953
 9004,0.01196611,-0.00752665,-0.01377019,-0.00051792,-0.00351228,-0.002
 70711,-0.00172508,-0.00058235,-0.00042282,-0.00000309,0.00000005,-0.00
 000153,0.00000441,0.00000094,0.00001149,0.00000131,0.00000236,-0.00000
 001,0.00000183,0.00000054,-0.00000834,-0.00001254,-0.00001070,0.000003
 57,-0.00000288,0.00000014,-0.00000170,-0.00000681,0.00000389,0.0000008
 4,-0.00000026,0.00000067,0.00000021,-0.00000076,0.00000103,-0.00000075
 ,-0.00000041,0.00000005,-0.00000161,0.00000150,0.00000097,0.00000343,-
 0.00002043,-0.00001030,0.00000625,0.00003021,-0.00002864,0.00001991,0.
 00002153,0.00000800,0.00001798,-0.00003501,-0.00000644,0.00001310,0.00
 110504,0.00047899,-0.00064029,0.11062672,0.00000613,0.00000717,0.00000
 766,-0.00000543,-0.00000462,-0.00000853,0.00000119,-0.00000065,-0.0000
 0376,0.00000379,-0.00000030,0.00000215,-0.00000072,-0.00000155,-0.0000
 0356,0.00000165,0.00000056,0.00000287,-0.00000389,-0.00000665,0.000005
 14,0.00000350,0.00000491,-0.00000185,-0.00000460,-0.00001551,-0.000000
 57,0.00006491,-0.00002503,0.00000344,-0.00003222,0.00006312,-0.0000113
 1,0.00001021,-0.00003113,0.00001604,-0.00000736,0.00000988,-0.00000424
 ,0.00000913,-0.00000951,-0.00000379,-0.00000249,0.00000782,0.00001355,
 0.00000562,-0.00000911,0.00000229,0.00000101,-0.00000159,-0.00000256,-
 0.00000084,0.00000096,-0.00000042,0.00000014,-0.00000075,0.00000093,-0
 .00000062,0.00000056,-0.00000139,-0.00000008,0.00000007,0.00000284,-0.
 00000525,0.00000301,-0.00001150,-0.00003082,0.00000565,0.00000158,-0.0
 0000645,0.00000454,-0.00000641,0.00005024,-0.00003661,0.00004048,-0.00
 029506,0.00033248,-0.00001155,-0.00007220,-0.00003200,0.00008443,-0.00
 003370,0.00000482,-0.00001013,-0.00158422,0.00602996,-0.00273259,-0.00
 234022,0.00426112,0.00275319,0.05291171,-0.10297419,-0.11038506,0.0109
 6323,-0.00430616,-0.01077259,-0.00348171,0.00305291,-0.00593522,-0.001
 19362,-0.00016564,0.00053751,-0.00000073,0.00000117,0.00000011,-0.0000
 0295,0.00000141,-0.00000378,-0.00000140,-0.00000037,0.00000024,-0.0000
 0074,-0.00000048,0.00000376,0.00000396,0.00000278,-0.00000178,0.000001
 14,0.00000028,0.00000146,0.00000215,-0.00000184,-0.00000064,0.00000039
 ,-0.00000033,-0.00000031,0.00000084,-0.00000059,0.00000054,0.00000039,
 0.00000048,0.00000089,-0.00000034,-0.00000015,-0.00000190,0.00000066,0
 .00000450,-0.00000063,-0.00004829,-0.00000536,0.00001637,-0.00000752,-
 0.00000734,0.00000542,-0.00000506,0.00000373,-0.00000633,0.00078780,-0
 .00253438,0.00221979,-0.05628202,0.09930918,0.00001161,0.00001673,0.00
 001500,-0.00000819,-0.00001100,-0.00001718,0.00000022,0.00000059,-0.00
 000607,0.00000313,-0.00000136,0.00000587,-0.00000335,0.00000105,-0.000
 00970,0.00000201,0.00000249,0.00000590,-0.00000924,-0.00001487,0.00001
 216,0.00000849,0.00001371,-0.00000545,-0.00000645,-0.00004805,0.000000
 09,0.00011437,-0.00000958,-0.00002047,-0.00005756,0.00007091,-0.000002
 70,0.00002826,-0.00002905,0.00001103,-0.00000848,0.00001274,-0.0000056
 0,0.00001322,-0.00001154,-0.00000631,-0.00000371,0.00001335,0.00001676
 ,0.00000872,-0.00001274,0.00000351,0.00000086,-0.00000205,-0.00000378,
 -0.00000056,0.00000151,0.00000043,0.00000104,-0.00000058,-0.00000018,-
 0.00000034,0.00000228,-0.00000167,0.00000152,0.00000075,0.00000374,-0.
 00000758,0.00000279,-0.00001436,-0.00009166,-0.00001650,0.00002221,0.0
 0002662,-0.00002022,0.00000233,0.00002801,-0.00000145,-0.00004438,-0.0
 0025867,-0.00030081,0.00007887,0.00007331,0.00009683,-0.00008310,0.000
 04759,0.00001609,-0.00000728,0.00083938,-0.00269063,0.00429875,-0.0006
 1037,-0.00203391,-0.00010219,0.09545915,-0.11067723,-0.22215963,0.0127
 6391,-0.00533050,-0.01016871,-0.00209280,-0.00581834,0.00003838,-0.001
 46446,0.00028706,0.00051625,0.,-0.00000055,0.00000074,-0.00000402,0.00
 000080,-0.00000670,-0.00000078,-0.00000195,-0.00000042,-0.00000163,-0.
 00000066,0.00000676,0.00001017,0.00000825,-0.00000333,0.00000205,-0.00
 000034,0.00000128,0.00000509,-0.00000319,-0.00000033,0.00000003,-0.000
 00085,-0.00000031,0.00000027,-0.00000104,0.00000085,-0.00000070,-0.000
 00004,0.00000067,-0.00000166,-0.00000190,-0.00000203,0.00001051,0.0000
 0670,0.00000035,0.00002160,-0.00001890,-0.00001092,-0.00000882,0.00002
 077,-0.00000458,0.00000935,-0.00000150,0.00000220,-0.00016194,0.002390
 29,-0.00073030,-0.10416432,0.12169308,0.22952428,-0.00001666,-0.000022
 28,-0.00002064,0.00001305,0.00001482,0.00002410,-0.00000168,0.00000046
 ,0.00000897,-0.00000624,0.00000253,-0.00000727,0.00000251,0.00000027,0
 .00001169,-0.00000336,-0.00000251,-0.00000731,0.00001289,0.00002093,-0
 .00001678,-0.00001165,-0.00001809,0.00000736,0.00000887,0.00005190,-0.
 00000080,-0.00014179,0.00002690,0.00001753,0.00007996,-0.00010562,0.00
 001074,-0.00003863,0.00004726,-0.00002034,0.00001371,-0.00002093,0.000
 00872,-0.00002033,0.00001966,0.00000996,0.00000671,-0.00002055,-0.0000
 2746,-0.00001345,0.00002048,-0.00000571,-0.00000146,0.00000320,0.00000
 635,0.00000101,-0.00000201,-0.00000057,-0.00000119,0.00000137,0.000000
 21,0.00000107,-0.00000322,0.00000270,-0.00000131,-0.00000126,-0.000006
 31,0.00001105,-0.00000446,0.00002288,0.00009769,-0.00001922,-0.0000364
 2,-0.00003255,0.00002647,0.00003469,-0.00000477,-0.00001306,-0.0000248
 4,0.00012120,0.00014641,-0.00024167,-0.00008515,0.00000215,0.00003151,
 0.00002003,0.00000529,0.00000345,0.00021100,-0.00007178,-0.00034288,0.
 00018012,-0.00285071,-0.00218075,-0.01201771,0.00006414,0.00501701,-0.
 32201318,-0.03474507,0.02693559,-0.01142270,0.00535077,0.00954825,0.00
 263863,-0.00044087,0.00153426,0.00000156,-0.00000030,-0.00000059,0.000
 00699,-0.00000281,0.00000830,0.00000202,0.00000187,0.00000031,0.000002
 25,0.00000138,-0.00001073,-0.00001316,-0.00000885,0.00000443,-0.000002
 76,-0.00000003,-0.00000265,-0.00000617,0.00000439,0.00000084,-0.000000
 43,0.00000110,0.00000056,-0.00000097,0.00000152,-0.00000144,0.00000065
 ,-0.00000045,-0.00000120,0.00000185,0.00000231,0.00000326,-0.00000583,
 -0.00001032,0.00000187,0.00001686,0.00003989,-0.00000835,0.00001671,-0
 .00002458,0.00001181,-0.00000458,0.00000118,0.00000241,-0.00073024,0.0
 0008551,0.00023567,0.00041952,0.00025415,-0.00055027,0.34304640,0.0000
 0196,0.00000227,0.00000283,-0.00000127,-0.00000106,-0.00000237,0.00000
 019,0.00000063,-0.00000103,0.00000095,0.00000037,0.00000112,-0.0000026
 4,-0.00000143,-0.00000292,0.00000099,0.00000104,0.00000180,-0.00000066
 ,-0.00000137,0.00000078,0.00000069,0.00000082,-0.00000003,0.00000324,-
 0.00001558,-0.00000555,0.00005229,-0.00000983,-0.00001507,-0.00001937,
 0.00005675,-0.00001211,-0.00000663,-0.00002696,0.00001477,-0.00000463,
 0.00000510,-0.00000332,0.00000477,-0.00000504,-0.00000215,-0.00000183,
 0.00000409,0.00000707,0.00000273,-0.00000516,0.00000130,0.00000065,-0.
 00000081,-0.00000134,-0.00000047,0.00000034,-0.00000012,0.,-0.00000069
 ,0.00000050,-0.00000052,0.00000030,-0.00000048,-0.00000014,-0.00000023
 ,0.00000145,-0.00000260,0.00000174,-0.00000625,-0.00000450,0.00016865,
 0.00007468,0.00015176,-0.00011409,-0.00009936,-0.00024742,0.00000802,0
 .00009432,0.00001978,-0.00099122,0.00096087,0.00026863,-0.00003906,-0.
 00009629,-0.00018523,-0.00006350,-0.00003280,0.00054669,-0.00047765,-0
 .00013721,-0.00219648,0.00266731,-0.00555424,-0.01676226,0.00431429,0.
 00172453,-0.03498935,-0.04954044,-0.00324136,0.01989003,-0.00181900,-0
 .00197494,0.00071009,0.00576619,-0.00670373,0.00000054,0.00000058,0.00
 000037,-0.00000118,-0.00000080,-0.00000261,-0.00000063,-0.00000030,0.0
 0000022,-0.00000073,-0.00000129,0.00000218,0.00000542,0.00000394,-0.00
 000161,0.00000099,0.00000074,0.00000040,0.00000130,-0.00000147,-0.0000
 0041,0.00000039,-0.00000007,-0.00000011,0.00000052,-0.00000014,0.00000
 026,0.00000039,0.00000026,0.00000044,0.00000003,0.00000009,-0.00000100
 ,-0.00001119,-0.00000092,0.00000667,-0.00000393,0.00001731,-0.00002691
 ,0.00000619,-0.00000302,-0.00000472,0.00000538,-0.00000350,0.00000466,
 -0.00080312,-0.00022144,0.00031676,0.00073345,-0.00175206,0.00158765,0
 .03234347,0.04165889,0.00000189,0.00000286,0.00000240,-0.00000086,-0.0
 0000125,-0.00000309,-0.00000044,-0.00000031,-0.00000104,0.00000111,0.0
 0000047,0.00000121,-0.00000011,0.00000030,-0.00000247,0.00000021,0.000
 00003,0.00000154,-0.00000187,-0.00000294,0.00000289,0.00000177,0.00000
 288,-0.00000120,-0.00000331,-0.00000676,0.00000274,0.00001048,0.000006
 65,0.00000617,-0.00001023,-0.00000362,0.00000416,0.00001324,0.00000338
 ,-0.00000114,-0.00000095,0.00000189,-0.00000113,0.00000226,-0.00000179
 ,-0.00000137,-0.00000065,0.00000288,0.00000246,0.00000166,-0.00000212,
 0.00000073,0.00000003,-0.00000035,-0.00000069,-0.00000005,0.00000039,0
 .00000029,0.00000035,-0.00000005,-0.00000032,0.,0.00000068,-0.00000017
 ,0.00000056,0.00000008,0.00000052,-0.00000132,0.00000017,-0.00000214,-
 0.00002535,-0.00007798,-0.00004065,-0.00003854,0.00011292,0.00006826,0
 .00022509,-0.00010139,-0.00005797,0.00000679,0.00094563,-0.00037693,-0
 .00015940,-0.00002436,0.00007926,0.00007597,0.00007110,0.00003846,0.00
 012613,-0.00025267,-0.00078395,-0.00121828,-0.00524133,-0.00021852,-0.
 01907819,-0.00309655,0.00715502,0.02662492,-0.00297548,-0.05226311,0.0
 3003575,0.00158407,-0.01005282,0.00346339,-0.00612730,0.00065785,0.000
 00034,-0.00000012,0.00000026,-0.00000032,0.00000005,-0.00000155,-0.000
 00013,-0.00000049,-0.00000011,-0.00000008,0.,0.00000104,0.00000047,0.0
 0000056,-0.00000015,0.00000022,-0.00000042,0.00000038,0.00000103,-0.00
 000034,0.00000009,-0.00000008,-0.00000021,0.,-0.00000013,-0.00000018,0
 .00000020,-0.00000029,-0.00000015,0.00000002,-0.00000038,-0.00000055,-
 0.00000025,0.00001728,0.00000377,-0.00000837,0.00001032,0.00004682,0.0
 0000563,-0.00003210,0.00005782,-0.00000445,-0.00000556,0.00000179,-0.0
 0000421,-0.00109564,0.00006740,0.00004142,0.00012591,0.00175545,-0.000
 50043,-0.03998149,0.01343729,0.05620701,0.00001397,0.00001902,0.000017
 45,-0.00000958,-0.00001079,-0.00002040,0.00000053,-0.00000064,-0.00000
 869,0.00000694,-0.00000234,0.00000769,-0.00000409,0.00000029,-0.000013
 89,0.00000279,0.00000195,0.00000897,-0.00001091,-0.00001769,0.00001514
 ,0.00001032,0.00001612,-0.00000653,-0.00000269,-0.00005504,0.00000243,
 0.00012804,-0.00000743,-0.00003166,-0.00008394,0.00010271,-0.00001378,
 0.00004201,-0.00004649,0.00002473,-0.00001292,0.00001994,-0.00000898,0
 .00001989,-0.00001875,-0.00001052,-0.00000848,0.00002161,0.00002597,0.
 00001320,-0.00002146,0.00000588,0.00000160,-0.00000292,-0.00000605,-0.
 00000082,0.00000155,0.00000124,0.00000133,-0.00000208,-0.00000062,-0.0
 0000150,0.00000356,-0.00000238,0.00000127,0.00000085,0.00000629,-0.000
 01048,0.00000424,-0.00002253,-0.00008372,0.00015833,0.00012148,0.00016
 617,-0.00003388,-0.00004416,-0.00001029,-0.00008160,0.00012190,0.00074
 379,0.00019729,-0.00053616,-0.00053608,0.00007368,-0.00043164,-0.00028
 101,-0.00003931,0.00019339,0.00881967,-0.00873269,-0.01405035,-0.00226
 681,-0.00273327,-0.00183546,-0.00063306,0.00007540,0.00025479,-0.00398
 703,-0.00133297,0.00201196,-0.02259163,0.01605060,0.02869457,-0.078382
 91,0.03899414,0.07090030,-0.00000018,0.00000041,0.00000094,-0.00000745
 ,0.00000188,-0.00000999,-0.00000149,-0.00000191,-0.00000026,-0.0000037
 0,-0.00000334,0.00001360,0.00001611,0.00000934,-0.00000436,0.00000321,
 0.00000042,0.00000275,0.00000631,-0.00000430,-0.00000096,0.00000071,-0
 .00000100,-0.00000028,0.00000083,-0.00000113,0.00000121,-0.00000040,0.
 00000029,0.00000085,-0.00000153,-0.00000214,-0.00000318,0.00000284,0.0
 0001208,-0.00001042,0.00001153,0.00005366,-0.00002312,-0.00110580,0.00
 038263,-0.00047757,-0.00001987,0.00001109,-0.00005716,0.00048374,-0.00
 048245,-0.00096214,0.00015452,0.00036662,0.00002710,-0.00033639,0.0004
 9330,0.00090860,0.09974345,0.00000806,0.00001097,0.00001218,-0.0000060
 4,-0.00000656,-0.00001251,0.00000057,0.00000069,-0.00000304,0.00000597
 ,0.00000059,0.00000315,-0.00000380,-0.00000810,-0.00000532,0.00000270,
 0.00000182,0.00000247,-0.00000446,-0.00000731,0.00000628,0.00000357,0.
 00000525,-0.00000126,0.00000770,-0.00000346,-0.00001565,-0.00000354,0.
 00001417,-0.00003523,-0.00003958,0.00004205,-0.00001794,0.00001169,-0.
 00002008,0.00002159,-0.00000769,0.00000974,-0.00000832,0.00000902,-0.0
 0001063,-0.00000278,-0.00000300,0.00000785,0.00001411,0.00000533,-0.00
 000967,0.00000270,0.00000135,-0.00000185,-0.00000224,-0.00000109,0.000
 00104,-0.00000044,0.00000009,-0.00000109,0.00000127,-0.00000073,0.0000
 0052,-0.00000081,-0.00000010,-0.00000041,0.00000262,-0.00000508,0.0000
 0327,-0.00001223,-0.00001859,0.00048412,0.00016115,0.00049579,-0.00019
 040,-0.00022140,-0.00089103,-0.00055333,0.00001486,0.00249222,-0.00142
 377,0.00081474,0.00065881,0.00010928,0.00048513,-0.00052224,-0.0002541
 8,0.00021796,0.00508845,-0.00182395,-0.01404242,-0.00306478,0.00285775
 ,-0.00423250,-0.00076116,-0.00040657,0.00028056,-0.00237646,0.00851096
 ,-0.00294235,0.00217511,0.00019612,0.00632982,0.03904502,-0.10872606,-
 0.11317190,0.00000126,0.00000074,0.00000106,-0.00000518,0.00000089,-0.
 00000562,-0.00000232,-0.00000130,0.00000052,-0.00000043,-0.00000826,0.
 00000656,0.00000609,0.00000444,-0.00000121,-0.00000041,0.00000121,0.00
 000181,0.00000090,-0.00000175,-0.00000067,0.00000071,-0.00000027,-0.00
 000028,0.00000092,-0.00000044,0.00000063,0.00000055,0.00000039,0.00000
 095,-0.00000006,0.00000018,-0.00000187,-0.00001421,-0.00000330,-0.0000
 0233,-0.00000628,0.00003401,0.00001310,0.00061655,0.00025025,-0.000106
 93,0.00000777,0.00000095,0.00001547,0.00038931,-0.00060403,-0.00049443
 ,0.00029292,-0.00118916,0.00081491,-0.00015277,0.00041841,-0.00018861,
 -0.04343740,0.10228831,0.00001484,0.00002147,0.00002057,-0.00000967,-0
 .00001309,-0.00002268,-0.00000059,0.00000109,-0.00000842,0.00000475,0.
 00000035,0.00000745,-0.00000284,0.00000125,-0.00001602,0.00000299,0.00
 000390,0.00001041,-0.00001033,-0.00001705,0.00001408,0.00000988,0.0000
 1585,-0.00000562,-0.00000337,-0.00004848,0.00001353,0.00008681,0.00006
 864,0.00000198,-0.00007965,0.00000500,0.00000698,0.00007581,0.00000976
 ,0.00000873,-0.00000928,0.00001732,-0.00001006,0.00001645,-0.00001428,
 -0.00000697,-0.00000297,0.00001640,0.00002238,0.00001097,-0.00001466,0
 .00000432,0.00000090,-0.00000295,-0.00000452,-0.00000106,0.00000274,0.
 00000008,0.00000139,-0.00000030,0.00000039,-0.00000011,0.00000265,-0.0
 0000288,0.00000286,0.00000006,0.00000403,-0.00001135,0.00000422,-0.000
 01941,-0.00007353,-0.00010236,-0.00010945,0.00001693,0.00012755,0.0000
 8293,-0.00006756,-0.00002617,0.00016713,0.00032011,0.00129039,-0.00050
 745,-0.00030726,-0.00100387,0.00009474,0.00008451,0.00051089,0.0002120
 2,0.00980053,-0.00935528,-0.00961473,-0.00291010,-0.00415785,0.0009838
 9,-0.00037934,0.00036449,0.00005129,0.00002795,-0.00359650,0.00528389,
 0.00793451,0.00280075,-0.00190778,0.07011859,-0.11425286,-0.23351602,0
 .00000185,-0.00000022,0.00000145,-0.00000474,0.00000023,-0.00001090,-0
 .00000145,-0.00000261,-0.00000033,-0.00000021,-0.00000105,0.00001019,0
 .00001081,0.00000772,-0.00000207,0.00000246,-0.00000123,0.00000202,0.0
 0000714,-0.00000344,-0.00000044,-0.00000029,-0.00000108,-0.00000034,0.
 00000030,-0.00000149,0.00000111,-0.00000062,-0.00000026,0.00000136,-0.
 00000230,-0.00000227,-0.00000313,-0.00001771,0.00001247,-0.00001486,0.
 00005373,0.00012812,-0.00003778,-0.00022512,0.00076261,0.00012597,-0.0
 0004842,-0.00001783,0.00002991,0.00047581,-0.00028179,-0.00073720,-0.0
 0012810,0.00075120,-0.00065031,-0.00000897,-0.00031287,0.00004822,-0.0
 8477601,0.12630471,0.23999828\\0.00000429,0.00000965,0.00000790,-0.000
 00864,-0.00000898,-0.00001843,0.00000391,0.00000790,0.00000625,-0.0000
 0194,-0.00000173,-0.00000791,-0.00000382,-0.00000302,0.00000761,0.0000
 0512,0.00001101,-0.00000628,-0.00000861,-0.00001166,0.00001001,0.00000
 184,0.00000636,-0.00000473,-0.00000294,-0.00000157,-0.00000639,-0.0000
 0229,0.00000178,0.00000516,0.00000722,0.00000313,-0.00000386,-0.000002
 08,-0.00000401,0.00000240,-0.00000542,0.00000442,0.00000532,0.00000780
 ,-0.00000699,-0.00001864,-0.00000834,0.00001623,0.00002166,0.00001100,
 -0.00001495,0.00000240,-0.00000269,0.00000597,-0.00001182,0.00000231,0
 .00000142,0.00000699,0.00000284,-0.00000151,-0.00000302,-0.00000269,0.
 00000687,0.00000261,0.00000158,0.00000123,0.00000259,-0.00000104,-0.00
 000090,0.00000588,0.00000371,-0.00000249,-0.00000312,0.00000064,-0.000
 00074,0.00000028,0.00000028,-0.00000189,0.00000035,-0.00000421,-0.0000
 0226,0.00000023,-0.00000303,0.00000112,0.00000038,0.00000259,0.0000016
 3,-0.00000083,0.00000361,-0.00000051,0.00000056,0.00000045,-0.00000199
 ,-0.00000420,-0.00000015,-0.00000128,-0.00000026,-0.00000308,-0.000003
 76,-0.00000232,0.00000489,-0.00000054,0.00000181,-0.00000313,-0.000003
 83,-0.00000264,-0.00000177,0.00000050,-0.00000087,-0.00000179,-0.00000
 017,0.00000038,-0.00000194,-0.00000112,-0.00000113,-0.00000059,0.00000
 079,0.00000015,0.00000053,0.00000042,0.00000079,-0.00000019,-0.0000013
 4,-0.00000054,0.00000047,-0.00000021,0.00000034,0.00000183,0.00000073,
 0.00000227,0.00000129,0.00000199,0.00000240,0.00000062,0.00000219,0.00
 000175,-0.00000049,0.00000223,0.00000165,0.00000043,0.00000147,-0.0000
 0037,0.00000081,0.00000067,-0.00000120,0.00000251,-0.00000312,-0.00000
 038,0.00000043,-0.00000282,0.00000022,-0.00000180,-0.00000055,0.000000
 64,0.00000074,-0.00000006,0.00000022,0.00000010,-0.00000312,-0.0000020
 5,-0.00000115,-0.00000257,-0.00000019\\\@


 At the touch of love, everyone becomves a poet.
                                -- Plato
 Job cpu time:  0 days 20 hours 58 minutes 58.0 seconds.
 File lengths (MBytes):  RWF=   1984 Int=      0 D2E=      0 Chk=     27 Scr=      1
 Normal termination of Gaussian 09 at Tue Sep  6 09:30:41 2022.
