 Entering Gaussian System, Link 0=g09
 Input=Mol34.gjf
 Output=Mol34.log
 Initial command:
 /opt/gaussian/l1.exe /home/scr/lqcapf-6/Gau-309210.inp -scrdir=/home/scr/lqcapf-6/
 Entering Link 1 = /opt/gaussian/l1.exe PID=    309212.
  
 Copyright (c) 1988,1990,1992,1993,1995,1998,2003,2009,2011,
            Gaussian, Inc.  All Rights Reserved.
  
 This is part of the Gaussian(R) 09 program.  It is based on
 the Gaussian(R) 03 system (copyright 2003, Gaussian, Inc.),
 the Gaussian(R) 98 system (copyright 1998, Gaussian, Inc.),
 the Gaussian(R) 94 system (copyright 1995, Gaussian, Inc.),
 the Gaussian 92(TM) system (copyright 1992, Gaussian, Inc.),
 the Gaussian 90(TM) system (copyright 1990, Gaussian, Inc.),
 the Gaussian 88(TM) system (copyright 1988, Gaussian, Inc.),
 the Gaussian 86(TM) system (copyright 1986, Carnegie Mellon
 University), and the Gaussian 82(TM) system (copyright 1983,
 Carnegie Mellon University). Gaussian is a federally registered
 trademark of Gaussian, Inc.
  
 This software contains proprietary and confidential information,
 including trade secrets, belonging to Gaussian, Inc.
  
 This software is provided under written license and may be
 used, copied, transmitted, or stored only in accord with that
 written license.
  
 The following legend is applicable only to US Government
 contracts under FAR:
  
                    RESTRICTED RIGHTS LEGEND
  
 Use, reproduction and disclosure by the US Government is
 subject to restrictions as set forth in subparagraphs (a)
 and (c) of the Commercial Computer Software - Restricted
 Rights clause in FAR 52.227-19.
  
 Gaussian, Inc.
 340 Quinnipiac St., Bldg. 40, Wallingford CT 06492
  
  
 ---------------------------------------------------------------
 Warning -- This program may not be used in any manner that
 competes with the business of Gaussian, Inc. or will provide
 assistance to any competitor of Gaussian, Inc.  The licensee
 of this program is prohibited from giving any competitor of
 Gaussian, Inc. access to this program.  By using this program,
 the user acknowledges that Gaussian, Inc. is engaged in the
 business of creating and licensing software in the field of
 computational chemistry and represents and warrants to the
 licensee that it is not a competitor of Gaussian, Inc. and that
 it will not use this program in any manner prohibited above.
 ---------------------------------------------------------------
  

 Cite this work as:
 Gaussian 09, Revision C.01,
 M. J. Frisch, G. W. Trucks, H. B. Schlegel, G. E. Scuseria, 
 M. A. Robb, J. R. Cheeseman, G. Scalmani, V. Barone, B. Mennucci, 
 G. A. Petersson, H. Nakatsuji, M. Caricato, X. Li, H. P. Hratchian, 
 A. F. Izmaylov, J. Bloino, G. Zheng, J. L. Sonnenberg, M. Hada, 
 M. Ehara, K. Toyota, R. Fukuda, J. Hasegawa, M. Ishida, T. Nakajima, 
 Y. Honda, O. Kitao, H. Nakai, T. Vreven, J. A. Montgomery, Jr., 
 J. E. Peralta, F. Ogliaro, M. Bearpark, J. J. Heyd, E. Brothers, 
 K. N. Kudin, V. N. Staroverov, T. Keith, R. Kobayashi, J. Normand, 
 K. Raghavachari, A. Rendell, J. C. Burant, S. S. Iyengar, J. Tomasi, 
 M. Cossi, N. Rega, J. M. Millam, M. Klene, J. E. Knox, J. B. Cross, 
 V. Bakken, C. Adamo, J. Jaramillo, R. Gomperts, R. E. Stratmann, 
 O. Yazyev, A. J. Austin, R. Cammi, C. Pomelli, J. W. Ochterski, 
 R. L. Martin, K. Morokuma, V. G. Zakrzewski, G. A. Voth, 
 P. Salvador, J. J. Dannenberg, S. Dapprich, A. D. Daniels, 
 O. Farkas, J. B. Foresman, J. V. Ortiz, J. Cioslowski, 
 and D. J. Fox, Gaussian, Inc., Wallingford CT, 2010.
 
 ******************************************
 Gaussian 09:  EM64L-G09RevC.01 23-Sep-2011
                 7-Sep-2022 
 ******************************************
 %nprocshared=8
 Will use up to    8 processors via shared memory.
 %mem=1600MB
 -------------------------
 #p opt freq b3lyp/cc-pvdz
 -------------------------
 1/14=-1,18=20,19=15,26=3,38=1/1,3;
 2/9=110,12=2,17=6,18=5,40=1/2;
 3/5=16,11=2,16=1,25=1,30=1,71=1,74=-5/1,2,3;
 4//1;
 5/5=2,38=5/2;
 6/7=2,8=2,9=2,10=2,28=1/1;
 7//1,2,3,16;
 1/14=-1,18=20,19=15/3(2);
 2/9=110/2;
 99//99;
 2/9=110/2;
 3/5=16,11=2,16=1,25=1,30=1,71=1,74=-5/1,2,3;
 4/5=5,16=3/1;
 5/5=2,38=5/2;
 7//1,2,3,16;
 1/14=-1,18=20,19=15/3(-5);
 2/9=110/2;
 6/7=2,8=2,9=2,10=2,19=2,28=1/1;
 99/9=1/99;
 Leave Link    1 at Wed Sep  7 07:16:32 2022, MaxMem=  209715200 cpu:       0.2
 (Enter /opt/gaussian/l101.exe)
 ---------
 Mol34.log
 ---------
 Charge =  0 Multiplicity = 1
 Symbolic Z-Matrix:
 Cl                   -3.00446   5.96807  -0.42544 
 C                    -2.24696   4.43441   0.12646 
 C                    -2.283     4.09946   1.46775 
 N                    -1.73323   2.9721    1.89911 
 C                    -1.13424   2.14949   1.03632 
 C                    -1.0584    2.4164   -0.3232 
 C                    -1.63933   3.59781  -0.78104 
 C                    -0.36779   1.49891  -1.31842 
 N                     0.02643   0.1885   -0.80074 
 C                    -0.87131  -0.83699  -0.6204 
 O                    -0.55554  -1.90467  -0.12241 
 C                    -2.30614  -0.58895  -1.07089 
 N                    -3.12377  -1.75277  -0.93313 
 N                    -3.39926  -2.51141  -2.03375 
 N                    -4.10156  -3.50954  -1.69348 
 C                    -4.31877  -3.46132  -0.32536 
 C                    -5.02874  -4.32144   0.51135 
 C                    -5.0725   -4.00495   1.84685 
 C                    -4.41866  -2.85557   2.34453 
 C                    -3.7144   -2.00424   1.527 
 C                    -3.67939  -2.33159   0.16915 
 C                     1.4226   -0.02994  -0.53164 
 C                     2.1331    0.87101   0.2483 
 C                     3.49174   0.69501   0.46097 
 C                     4.16845  -0.39042  -0.08679 
 C                     3.44037  -1.29232  -0.86306 
 C                     2.08796  -1.11385  -1.09109 
 C                     5.62127  -0.5831    0.14801 
 C                     6.18831  -0.42605   1.41111 
 C                     7.55035  -0.6159    1.58101 
 C                     8.31698  -0.9628    0.48081 
 N                     7.78479  -1.11401  -0.7303 
 C                     6.47854  -0.92951  -0.89465 
 H                    -2.75186   4.73141   2.19063 
 H                    -0.70896   1.26142   1.45359 
 H                    -1.6174    3.85731  -1.82164 
 H                    -1.00287   1.38015  -2.1878 
 H                     0.53379   1.97755  -1.6729 
 H                    -2.73963   0.22952  -0.51213 
 H                    -2.32465  -0.3255   -2.118 
 H                    -5.51398  -5.18975   0.11371 
 H                    -5.60484  -4.6361    2.5305 
 H                    -4.47078  -2.64726   3.39552 
 H                    -3.20871  -1.1453    1.91989 
 H                     1.63933   1.71337   0.69022 
 H                     4.02601   1.41703   1.04754 
 H                     3.92962  -2.15031  -1.28079 
 H                     1.54787  -1.82879  -1.67546 
 H                     5.5687   -0.17855   2.25116 
 H                     8.00489  -0.50657   2.54516 
 H                     9.37188  -1.12405   0.56274 
 H                     6.10762  -1.04682  -1.89247 
 
 NAtoms=     52 NQM=        0 NQMF=       0 NMMI=     52 NMMIF=      0
                NMic=       0 NMicF=      0.
                    Isotopes and Nuclear Properties:
 (Nuclear quadrupole moments (NQMom) in fm**2, nuclear magnetic moments (NMagM)
  in nuclear magnetons)

  Atom         1           2           3           4           5           6           7           8           9          10
 IAtWgt=          35          12          12          14          12          12          12          12          14          12
 AtmWgt=  34.9688527  12.0000000  12.0000000  14.0030740  12.0000000  12.0000000  12.0000000  12.0000000  14.0030740  12.0000000
 NucSpn=           3           0           0           2           0           0           0           0           2           0
 AtZEff=   0.0000000   0.0000000   0.0000000   0.0000000   0.0000000   0.0000000   0.0000000   0.0000000   0.0000000   0.0000000
 NQMom=   -8.1650000   0.0000000   0.0000000   2.0440000   0.0000000   0.0000000   0.0000000   0.0000000   2.0440000   0.0000000
 NMagM=    0.8218740   0.0000000   0.0000000   0.4037610   0.0000000   0.0000000   0.0000000   0.0000000   0.4037610   0.0000000

  Atom        11          12          13          14          15          16          17          18          19          20
 IAtWgt=          16          12          14          14          14          12          12          12          12          12
 AtmWgt=  15.9949146  12.0000000  14.0030740  14.0030740  14.0030740  12.0000000  12.0000000  12.0000000  12.0000000  12.0000000
 NucSpn=           0           0           2           2           2           0           0           0           0           0
 AtZEff=   0.0000000   0.0000000   0.0000000   0.0000000   0.0000000   0.0000000   0.0000000   0.0000000   0.0000000   0.0000000
 NQMom=    0.0000000   0.0000000   2.0440000   2.0440000   2.0440000   0.0000000   0.0000000   0.0000000   0.0000000   0.0000000
 NMagM=    0.0000000   0.0000000   0.4037610   0.4037610   0.4037610   0.0000000   0.0000000   0.0000000   0.0000000   0.0000000

  Atom        21          22          23          24          25          26          27          28          29          30
 IAtWgt=          12          12          12          12          12          12          12          12          12          12
 AtmWgt=  12.0000000  12.0000000  12.0000000  12.0000000  12.0000000  12.0000000  12.0000000  12.0000000  12.0000000  12.0000000
 NucSpn=           0           0           0           0           0           0           0           0           0           0
 AtZEff=   0.0000000   0.0000000   0.0000000   0.0000000   0.0000000   0.0000000   0.0000000   0.0000000   0.0000000   0.0000000
 NQMom=    0.0000000   0.0000000   0.0000000   0.0000000   0.0000000   0.0000000   0.0000000   0.0000000   0.0000000   0.0000000
 NMagM=    0.0000000   0.0000000   0.0000000   0.0000000   0.0000000   0.0000000   0.0000000   0.0000000   0.0000000   0.0000000

  Atom        31          32          33          34          35          36          37          38          39          40
 IAtWgt=          12          14          12           1           1           1           1           1           1           1
 AtmWgt=  12.0000000  14.0030740  12.0000000   1.0078250   1.0078250   1.0078250   1.0078250   1.0078250   1.0078250   1.0078250
 NucSpn=           0           2           0           1           1           1           1           1           1           1
 AtZEff=   0.0000000   0.0000000   0.0000000   0.0000000   0.0000000   0.0000000   0.0000000   0.0000000   0.0000000   0.0000000
 NQMom=    0.0000000   2.0440000   0.0000000   0.0000000   0.0000000   0.0000000   0.0000000   0.0000000   0.0000000   0.0000000
 NMagM=    0.0000000   0.4037610   0.0000000   2.7928460   2.7928460   2.7928460   2.7928460   2.7928460   2.7928460   2.7928460

  Atom        41          42          43          44          45          46          47          48          49          50
 IAtWgt=           1           1           1           1           1           1           1           1           1           1
 AtmWgt=   1.0078250   1.0078250   1.0078250   1.0078250   1.0078250   1.0078250   1.0078250   1.0078250   1.0078250   1.0078250
 NucSpn=           1           1           1           1           1           1           1           1           1           1
 AtZEff=   0.0000000   0.0000000   0.0000000   0.0000000   0.0000000   0.0000000   0.0000000   0.0000000   0.0000000   0.0000000
 NQMom=    0.0000000   0.0000000   0.0000000   0.0000000   0.0000000   0.0000000   0.0000000   0.0000000   0.0000000   0.0000000
 NMagM=    2.7928460   2.7928460   2.7928460   2.7928460   2.7928460   2.7928460   2.7928460   2.7928460   2.7928460   2.7928460

  Atom        51          52
 IAtWgt=           1           1
 AtmWgt=   1.0078250   1.0078250
 NucSpn=           1           1
 AtZEff=   0.0000000   0.0000000
 NQMom=    0.0000000   0.0000000
 NMagM=    2.7928460   2.7928460
 Leave Link  101 at Wed Sep  7 07:16:32 2022, MaxMem=  209715200 cpu:       0.9
 (Enter /opt/gaussian/l103.exe)

 GradGradGradGradGradGradGradGradGradGradGradGradGradGradGradGradGradGrad
 Berny optimization.
 Initialization pass.
                           ----------------------------
                           !    Initial Parameters    !
                           ! (Angstroms and Degrees)  !
 --------------------------                            --------------------------
 ! Name  Definition              Value          Derivative Info.                !
 --------------------------------------------------------------------------------
 ! R1    R(1,2)                  1.7974         estimate D2E/DX2                !
 ! R2    R(2,3)                  1.3829         estimate D2E/DX2                !
 ! R3    R(2,7)                  1.3757         estimate D2E/DX2                !
 ! R4    R(3,4)                  1.3264         estimate D2E/DX2                !
 ! R5    R(3,34)                 1.0685         estimate D2E/DX2                !
 ! R6    R(4,5)                  1.3341         estimate D2E/DX2                !
 ! R7    R(5,6)                  1.3875         estimate D2E/DX2                !
 ! R8    R(5,35)                 1.0694         estimate D2E/DX2                !
 ! R9    R(6,7)                  1.3939         estimate D2E/DX2                !
 ! R10   R(6,8)                  1.5196         estimate D2E/DX2                !
 ! R11   R(7,36)                 1.0727         estimate D2E/DX2                !
 ! R12   R(8,9)                  1.4631         estimate D2E/DX2                !
 ! R13   R(8,37)                 1.0832         estimate D2E/DX2                !
 ! R14   R(8,38)                 1.0806         estimate D2E/DX2                !
 ! R15   R(9,10)                 1.3748         estimate D2E/DX2                !
 ! R16   R(9,22)                 1.4385         estimate D2E/DX2                !
 ! R17   R(10,11)                1.2197         estimate D2E/DX2                !
 ! R18   R(10,12)                1.5242         estimate D2E/DX2                !
 ! R19   R(12,13)                1.429          estimate D2E/DX2                !
 ! R20   R(12,39)                1.0817         estimate D2E/DX2                !
 ! R21   R(12,40)                1.0799         estimate D2E/DX2                !
 ! R22   R(13,14)                1.3648         estimate D2E/DX2                !
 ! R23   R(13,21)                1.3634         estimate D2E/DX2                !
 ! R24   R(14,15)                1.267          estimate D2E/DX2                !
 ! R25   R(15,16)                1.3861         estimate D2E/DX2                !
 ! R26   R(16,17)                1.3943         estimate D2E/DX2                !
 ! R27   R(16,21)                1.3891         estimate D2E/DX2                !
 ! R28   R(17,18)                1.3732         estimate D2E/DX2                !
 ! R29   R(17,41)                1.0712         estimate D2E/DX2                !
 ! R30   R(18,19)                1.4129         estimate D2E/DX2                !
 ! R31   R(18,42)                1.072          estimate D2E/DX2                !
 ! R32   R(19,20)                1.3744         estimate D2E/DX2                !
 ! R33   R(19,43)                1.0727         estimate D2E/DX2                !
 ! R34   R(20,21)                1.3972         estimate D2E/DX2                !
 ! R35   R(20,44)                1.0714         estimate D2E/DX2                !
 ! R36   R(22,23)                1.3874         estimate D2E/DX2                !
 ! R37   R(22,27)                1.3894         estimate D2E/DX2                !
 ! R38   R(23,24)                1.3864         estimate D2E/DX2                !
 ! R39   R(23,45)                1.0718         estimate D2E/DX2                !
 ! R40   R(24,25)                1.3915         estimate D2E/DX2                !
 ! R41   R(24,46)                1.0728         estimate D2E/DX2                !
 ! R42   R(25,26)                1.395          estimate D2E/DX2                !
 ! R43   R(25,28)                1.4842         estimate D2E/DX2                !
 ! R44   R(26,27)                1.3831         estimate D2E/DX2                !
 ! R45   R(26,47)                1.0724         estimate D2E/DX2                !
 ! R46   R(27,48)                1.0697         estimate D2E/DX2                !
 ! R47   R(28,29)                1.3934         estimate D2E/DX2                !
 ! R48   R(28,33)                1.3936         estimate D2E/DX2                !
 ! R49   R(29,30)                1.3857         estimate D2E/DX2                !
 ! R50   R(29,49)                1.0728         estimate D2E/DX2                !
 ! R51   R(30,31)                1.3851         estimate D2E/DX2                !
 ! R52   R(30,50)                1.0715         estimate D2E/DX2                !
 ! R53   R(31,32)                1.3315         estimate D2E/DX2                !
 ! R54   R(31,51)                1.0703         estimate D2E/DX2                !
 ! R55   R(32,33)                1.3294         estimate D2E/DX2                !
 ! R56   R(33,52)                1.071          estimate D2E/DX2                !
 ! A1    A(1,2,3)              119.5704         estimate D2E/DX2                !
 ! A2    A(1,2,7)              120.1643         estimate D2E/DX2                !
 ! A3    A(3,2,7)              120.2649         estimate D2E/DX2                !
 ! A4    A(2,3,4)              120.6958         estimate D2E/DX2                !
 ! A5    A(2,3,34)             121.6235         estimate D2E/DX2                !
 ! A6    A(4,3,34)             117.6807         estimate D2E/DX2                !
 ! A7    A(3,4,5)              119.9903         estimate D2E/DX2                !
 ! A8    A(4,5,6)              122.6549         estimate D2E/DX2                !
 ! A9    A(4,5,35)             115.992          estimate D2E/DX2                !
 ! A10   A(6,5,35)             121.3531         estimate D2E/DX2                !
 ! A11   A(5,6,7)              117.5226         estimate D2E/DX2                !
 ! A12   A(5,6,8)              123.3938         estimate D2E/DX2                !
 ! A13   A(7,6,8)              119.0804         estimate D2E/DX2                !
 ! A14   A(2,7,6)              118.8704         estimate D2E/DX2                !
 ! A15   A(2,7,36)             120.121          estimate D2E/DX2                !
 ! A16   A(6,7,36)             121.0086         estimate D2E/DX2                !
 ! A17   A(6,8,9)              115.5624         estimate D2E/DX2                !
 ! A18   A(6,8,37)             108.9894         estimate D2E/DX2                !
 ! A19   A(6,8,38)             109.0624         estimate D2E/DX2                !
 ! A20   A(9,8,37)             110.107          estimate D2E/DX2                !
 ! A21   A(9,8,38)             106.738          estimate D2E/DX2                !
 ! A22   A(37,8,38)            105.9302         estimate D2E/DX2                !
 ! A23   A(8,9,10)             122.5851         estimate D2E/DX2                !
 ! A24   A(8,9,22)             117.6262         estimate D2E/DX2                !
 ! A25   A(10,9,22)            119.7327         estimate D2E/DX2                !
 ! A26   A(9,10,11)            122.5105         estimate D2E/DX2                !
 ! A27   A(9,10,12)            117.0359         estimate D2E/DX2                !
 ! A28   A(11,10,12)           120.4535         estimate D2E/DX2                !
 ! A29   A(10,12,13)           112.1849         estimate D2E/DX2                !
 ! A30   A(10,12,39)           110.3479         estimate D2E/DX2                !
 ! A31   A(10,12,40)           110.0243         estimate D2E/DX2                !
 ! A32   A(13,12,39)           109.7039         estimate D2E/DX2                !
 ! A33   A(13,12,40)           106.4011         estimate D2E/DX2                !
 ! A34   A(39,12,40)           108.0242         estimate D2E/DX2                !
 ! A35   A(12,13,14)           119.3705         estimate D2E/DX2                !
 ! A36   A(12,13,21)           131.0639         estimate D2E/DX2                !
 ! A37   A(14,13,21)           109.4956         estimate D2E/DX2                !
 ! A38   A(13,14,15)           109.4633         estimate D2E/DX2                !
 ! A39   A(14,15,16)           108.9377         estimate D2E/DX2                !
 ! A40   A(15,16,17)           130.5918         estimate D2E/DX2                !
 ! A41   A(15,16,21)           107.9109         estimate D2E/DX2                !
 ! A42   A(17,16,21)           121.4972         estimate D2E/DX2                !
 ! A43   A(16,17,18)           117.238          estimate D2E/DX2                !
 ! A44   A(16,17,41)           120.5268         estimate D2E/DX2                !
 ! A45   A(18,17,41)           122.2352         estimate D2E/DX2                !
 ! A46   A(17,18,19)           121.0189         estimate D2E/DX2                !
 ! A47   A(17,18,42)           120.0248         estimate D2E/DX2                !
 ! A48   A(19,18,42)           118.9558         estimate D2E/DX2                !
 ! A49   A(18,19,20)           122.1056         estimate D2E/DX2                !
 ! A50   A(18,19,43)           118.7247         estimate D2E/DX2                !
 ! A51   A(20,19,43)           119.1686         estimate D2E/DX2                !
 ! A52   A(19,20,21)           116.4732         estimate D2E/DX2                !
 ! A53   A(19,20,44)           121.3527         estimate D2E/DX2                !
 ! A54   A(21,20,44)           122.1674         estimate D2E/DX2                !
 ! A55   A(13,21,16)           104.1842         estimate D2E/DX2                !
 ! A56   A(13,21,20)           134.145          estimate D2E/DX2                !
 ! A57   A(16,21,20)           121.6666         estimate D2E/DX2                !
 ! A58   A(9,22,23)            120.2373         estimate D2E/DX2                !
 ! A59   A(9,22,27)            120.5239         estimate D2E/DX2                !
 ! A60   A(23,22,27)           119.19           estimate D2E/DX2                !
 ! A61   A(22,23,24)           120.375          estimate D2E/DX2                !
 ! A62   A(22,23,45)           120.4147         estimate D2E/DX2                !
 ! A63   A(24,23,45)           119.2098         estimate D2E/DX2                !
 ! A64   A(23,24,25)           121.0133         estimate D2E/DX2                !
 ! A65   A(23,24,46)           119.1103         estimate D2E/DX2                !
 ! A66   A(25,24,46)           119.8719         estimate D2E/DX2                !
 ! A67   A(24,25,26)           118.0053         estimate D2E/DX2                !
 ! A68   A(24,25,28)           120.9997         estimate D2E/DX2                !
 ! A69   A(26,25,28)           120.995          estimate D2E/DX2                !
 ! A70   A(25,26,27)           121.2424         estimate D2E/DX2                !
 ! A71   A(25,26,47)           119.7294         estimate D2E/DX2                !
 ! A72   A(27,26,47)           119.0212         estimate D2E/DX2                !
 ! A73   A(22,27,26)           120.1678         estimate D2E/DX2                !
 ! A74   A(22,27,48)           119.9705         estimate D2E/DX2                !
 ! A75   A(26,27,48)           119.836          estimate D2E/DX2                !
 ! A76   A(25,28,29)           121.8096         estimate D2E/DX2                !
 ! A77   A(25,28,33)           121.0676         estimate D2E/DX2                !
 ! A78   A(29,28,33)           117.1228         estimate D2E/DX2                !
 ! A79   A(28,29,30)           119.7164         estimate D2E/DX2                !
 ! A80   A(28,29,49)           120.0521         estimate D2E/DX2                !
 ! A81   A(30,29,49)           120.2202         estimate D2E/DX2                !
 ! A82   A(29,30,31)           118.7487         estimate D2E/DX2                !
 ! A83   A(29,30,50)           120.8851         estimate D2E/DX2                !
 ! A84   A(31,30,50)           120.3636         estimate D2E/DX2                !
 ! A85   A(30,31,32)           121.9861         estimate D2E/DX2                !
 ! A86   A(30,31,51)           121.4969         estimate D2E/DX2                !
 ! A87   A(32,31,51)           116.517          estimate D2E/DX2                !
 ! A88   A(31,32,33)           119.3023         estimate D2E/DX2                !
 ! A89   A(28,33,32)           123.1233         estimate D2E/DX2                !
 ! A90   A(28,33,52)           120.7477         estimate D2E/DX2                !
 ! A91   A(32,33,52)           116.122          estimate D2E/DX2                !
 ! D1    D(1,2,3,4)            179.8775         estimate D2E/DX2                !
 ! D2    D(1,2,3,34)            -0.006          estimate D2E/DX2                !
 ! D3    D(7,2,3,4)              0.0882         estimate D2E/DX2                !
 ! D4    D(7,2,3,34)          -179.7953         estimate D2E/DX2                !
 ! D5    D(1,2,7,6)            179.8912         estimate D2E/DX2                !
 ! D6    D(1,2,7,36)            -0.1219         estimate D2E/DX2                !
 ! D7    D(3,2,7,6)             -0.3207         estimate D2E/DX2                !
 ! D8    D(3,2,7,36)           179.6662         estimate D2E/DX2                !
 ! D9    D(2,3,4,5)              0.1849         estimate D2E/DX2                !
 ! D10   D(34,3,4,5)          -179.9271         estimate D2E/DX2                !
 ! D11   D(3,4,5,6)             -0.223          estimate D2E/DX2                !
 ! D12   D(3,4,5,35)           179.7306         estimate D2E/DX2                !
 ! D13   D(4,5,6,7)             -0.0138         estimate D2E/DX2                !
 ! D14   D(4,5,6,8)            179.3315         estimate D2E/DX2                !
 ! D15   D(35,5,6,7)          -179.9649         estimate D2E/DX2                !
 ! D16   D(35,5,6,8)            -0.6197         estimate D2E/DX2                !
 ! D17   D(5,6,7,2)              0.2805         estimate D2E/DX2                !
 ! D18   D(5,6,7,36)          -179.7063         estimate D2E/DX2                !
 ! D19   D(8,6,7,2)           -179.094          estimate D2E/DX2                !
 ! D20   D(8,6,7,36)             0.9192         estimate D2E/DX2                !
 ! D21   D(5,6,8,9)             10.0017         estimate D2E/DX2                !
 ! D22   D(5,6,8,37)           134.5852         estimate D2E/DX2                !
 ! D23   D(5,6,8,38)          -110.2            estimate D2E/DX2                !
 ! D24   D(7,6,8,9)           -170.6627         estimate D2E/DX2                !
 ! D25   D(7,6,8,37)           -46.0792         estimate D2E/DX2                !
 ! D26   D(7,6,8,38)            69.1356         estimate D2E/DX2                !
 ! D27   D(6,8,9,10)            77.4865         estimate D2E/DX2                !
 ! D28   D(6,8,9,22)          -105.2449         estimate D2E/DX2                !
 ! D29   D(37,8,9,10)          -46.5151         estimate D2E/DX2                !
 ! D30   D(37,8,9,22)          130.7535         estimate D2E/DX2                !
 ! D31   D(38,8,9,10)         -161.0537         estimate D2E/DX2                !
 ! D32   D(38,8,9,22)           16.2148         estimate D2E/DX2                !
 ! D33   D(8,9,10,11)         -175.9853         estimate D2E/DX2                !
 ! D34   D(8,9,10,12)            3.9008         estimate D2E/DX2                !
 ! D35   D(22,9,10,11)           6.8017         estimate D2E/DX2                !
 ! D36   D(22,9,10,12)        -173.3123         estimate D2E/DX2                !
 ! D37   D(8,9,22,23)           51.3336         estimate D2E/DX2                !
 ! D38   D(8,9,22,27)         -126.107          estimate D2E/DX2                !
 ! D39   D(10,9,22,23)        -131.3167         estimate D2E/DX2                !
 ! D40   D(10,9,22,27)          51.2427         estimate D2E/DX2                !
 ! D41   D(9,10,12,13)         175.418          estimate D2E/DX2                !
 ! D42   D(9,10,12,39)         -61.927          estimate D2E/DX2                !
 ! D43   D(9,10,12,40)          57.1777         estimate D2E/DX2                !
 ! D44   D(11,10,12,13)         -4.6935         estimate D2E/DX2                !
 ! D45   D(11,10,12,39)        117.9615         estimate D2E/DX2                !
 ! D46   D(11,10,12,40)       -122.9338         estimate D2E/DX2                !
 ! D47   D(10,12,13,14)       -100.9081         estimate D2E/DX2                !
 ! D48   D(10,12,13,21)         75.6994         estimate D2E/DX2                !
 ! D49   D(39,12,13,14)        136.0732         estimate D2E/DX2                !
 ! D50   D(39,12,13,21)        -47.3193         estimate D2E/DX2                !
 ! D51   D(40,12,13,14)         19.4569         estimate D2E/DX2                !
 ! D52   D(40,12,13,21)       -163.9356         estimate D2E/DX2                !
 ! D53   D(12,13,14,15)        178.1633         estimate D2E/DX2                !
 ! D54   D(21,13,14,15)          0.8762         estimate D2E/DX2                !
 ! D55   D(12,13,21,16)       -177.7775         estimate D2E/DX2                !
 ! D56   D(12,13,21,20)          2.984          estimate D2E/DX2                !
 ! D57   D(14,13,21,16)         -0.9135         estimate D2E/DX2                !
 ! D58   D(14,13,21,20)        179.848          estimate D2E/DX2                !
 ! D59   D(13,14,15,16)         -0.4354         estimate D2E/DX2                !
 ! D60   D(14,15,16,17)        179.7211         estimate D2E/DX2                !
 ! D61   D(14,15,16,21)         -0.1456         estimate D2E/DX2                !
 ! D62   D(15,16,17,18)       -179.7465         estimate D2E/DX2                !
 ! D63   D(15,16,17,41)          0.3011         estimate D2E/DX2                !
 ! D64   D(21,16,17,18)          0.1048         estimate D2E/DX2                !
 ! D65   D(21,16,17,41)       -179.8476         estimate D2E/DX2                !
 ! D66   D(15,16,21,13)          0.6493         estimate D2E/DX2                !
 ! D67   D(15,16,21,20)       -179.9927         estimate D2E/DX2                !
 ! D68   D(17,16,21,13)       -179.232          estimate D2E/DX2                !
 ! D69   D(17,16,21,20)          0.126          estimate D2E/DX2                !
 ! D70   D(16,17,18,19)         -0.1958         estimate D2E/DX2                !
 ! D71   D(16,17,18,42)       -179.9199         estimate D2E/DX2                !
 ! D72   D(41,17,18,19)        179.7557         estimate D2E/DX2                !
 ! D73   D(41,17,18,42)          0.0316         estimate D2E/DX2                !
 ! D74   D(17,18,19,20)          0.0625         estimate D2E/DX2                !
 ! D75   D(17,18,19,43)       -179.5561         estimate D2E/DX2                !
 ! D76   D(42,18,19,20)        179.7894         estimate D2E/DX2                !
 ! D77   D(42,18,19,43)          0.1709         estimate D2E/DX2                !
 ! D78   D(18,19,20,21)          0.1632         estimate D2E/DX2                !
 ! D79   D(18,19,20,44)       -178.9121         estimate D2E/DX2                !
 ! D80   D(43,19,20,21)        179.78           estimate D2E/DX2                !
 ! D81   D(43,19,20,44)          0.7048         estimate D2E/DX2                !
 ! D82   D(19,20,21,13)        178.8777         estimate D2E/DX2                !
 ! D83   D(19,20,21,16)         -0.2549         estimate D2E/DX2                !
 ! D84   D(44,20,21,13)         -2.0553         estimate D2E/DX2                !
 ! D85   D(44,20,21,16)        178.8122         estimate D2E/DX2                !
 ! D86   D(9,22,23,24)        -177.1555         estimate D2E/DX2                !
 ! D87   D(9,22,23,45)           2.5926         estimate D2E/DX2                !
 ! D88   D(27,22,23,24)          0.3191         estimate D2E/DX2                !
 ! D89   D(27,22,23,45)       -179.9327         estimate D2E/DX2                !
 ! D90   D(9,22,27,26)         177.872          estimate D2E/DX2                !
 ! D91   D(9,22,27,48)          -3.9736         estimate D2E/DX2                !
 ! D92   D(23,22,27,26)          0.4048         estimate D2E/DX2                !
 ! D93   D(23,22,27,48)        178.5592         estimate D2E/DX2                !
 ! D94   D(22,23,24,25)         -0.7131         estimate D2E/DX2                !
 ! D95   D(22,23,24,46)        178.5133         estimate D2E/DX2                !
 ! D96   D(45,23,24,25)        179.5357         estimate D2E/DX2                !
 ! D97   D(45,23,24,46)         -1.2379         estimate D2E/DX2                !
 ! D98   D(23,24,25,26)          0.3674         estimate D2E/DX2                !
 ! D99   D(23,24,25,28)       -179.6188         estimate D2E/DX2                !
 ! D100  D(46,24,25,26)       -178.8532         estimate D2E/DX2                !
 ! D101  D(46,24,25,28)          1.1606         estimate D2E/DX2                !
 ! D102  D(24,25,26,27)          0.365          estimate D2E/DX2                !
 ! D103  D(24,25,26,47)       -178.6615         estimate D2E/DX2                !
 ! D104  D(28,25,26,27)       -179.6488         estimate D2E/DX2                !
 ! D105  D(28,25,26,47)          1.3247         estimate D2E/DX2                !
 ! D106  D(24,25,28,29)         44.6371         estimate D2E/DX2                !
 ! D107  D(24,25,28,33)       -135.2945         estimate D2E/DX2                !
 ! D108  D(26,25,28,29)       -135.3487         estimate D2E/DX2                !
 ! D109  D(26,25,28,33)         44.7197         estimate D2E/DX2                !
 ! D110  D(25,26,27,22)         -0.7554         estimate D2E/DX2                !
 ! D111  D(25,26,27,48)       -178.9122         estimate D2E/DX2                !
 ! D112  D(47,26,27,22)        178.2779         estimate D2E/DX2                !
 ! D113  D(47,26,27,48)          0.121          estimate D2E/DX2                !
 ! D114  D(25,28,29,30)       -179.9655         estimate D2E/DX2                !
 ! D115  D(25,28,29,49)          1.2595         estimate D2E/DX2                !
 ! D116  D(33,28,29,30)         -0.0313         estimate D2E/DX2                !
 ! D117  D(33,28,29,49)       -178.8063         estimate D2E/DX2                !
 ! D118  D(25,28,33,32)       -179.898          estimate D2E/DX2                !
 ! D119  D(25,28,33,52)          1.1017         estimate D2E/DX2                !
 ! D120  D(29,28,33,32)          0.1673         estimate D2E/DX2                !
 ! D121  D(29,28,33,52)       -178.8329         estimate D2E/DX2                !
 ! D122  D(28,29,30,31)         -0.1494         estimate D2E/DX2                !
 ! D123  D(28,29,30,50)       -179.5783         estimate D2E/DX2                !
 ! D124  D(49,29,30,31)        178.6235         estimate D2E/DX2                !
 ! D125  D(49,29,30,50)         -0.8054         estimate D2E/DX2                !
 ! D126  D(29,30,31,32)          0.2158         estimate D2E/DX2                !
 ! D127  D(29,30,31,51)       -179.7421         estimate D2E/DX2                !
 ! D128  D(50,30,31,32)        179.6478         estimate D2E/DX2                !
 ! D129  D(50,30,31,51)         -0.3101         estimate D2E/DX2                !
 ! D130  D(30,31,32,33)         -0.0874         estimate D2E/DX2                !
 ! D131  D(51,31,32,33)        179.8725         estimate D2E/DX2                !
 ! D132  D(31,32,33,28)         -0.1099         estimate D2E/DX2                !
 ! D133  D(31,32,33,52)        178.9331         estimate D2E/DX2                !
 --------------------------------------------------------------------------------
 Trust Radius=3.00D-01 FncErr=1.00D-07 GrdErr=1.00D-06
 Number of steps in this run=    290 maximum allowed number of steps=    312.
 GradGradGradGradGradGradGradGradGradGradGradGradGradGradGradGradGradGrad

 Leave Link  103 at Wed Sep  7 07:16:32 2022, MaxMem=  209715200 cpu:       0.1
 (Enter /opt/gaussian/l202.exe)
 Stoichiometry    C25H19ClN6O
 Framework group  C1[X(C25H19ClN6O)]
 Deg. of freedom   150
 Full point group                 C1      NOp   1
 Largest Abelian subgroup         C1      NOp   1
 Largest concise Abelian subgroup C1      NOp   1
                         Standard orientation:                         
 ---------------------------------------------------------------------
 Center     Atomic      Atomic             Coordinates (Angstroms)
 Number     Number       Type             X           Y           Z
 ---------------------------------------------------------------------
      1         17           0       -3.004460    5.968070   -0.425441
      2          6           0       -2.246960    4.434410    0.126459
      3          6           0       -2.283000    4.099460    1.467749
      4          7           0       -1.733230    2.972100    1.899109
      5          6           0       -1.134240    2.149490    1.036319
      6          6           0       -1.058400    2.416400   -0.323201
      7          6           0       -1.639330    3.597810   -0.781041
      8          6           0       -0.367790    1.498910   -1.318421
      9          7           0        0.026430    0.188500   -0.800741
     10          6           0       -0.871310   -0.836990   -0.620401
     11          8           0       -0.555540   -1.904670   -0.122411
     12          6           0       -2.306140   -0.588950   -1.070891
     13          7           0       -3.123770   -1.752770   -0.933131
     14          7           0       -3.399260   -2.511410   -2.033751
     15          7           0       -4.101560   -3.509540   -1.693481
     16          6           0       -4.318770   -3.461320   -0.325361
     17          6           0       -5.028739   -4.321440    0.511349
     18          6           0       -5.072500   -4.004950    1.846849
     19          6           0       -4.418660   -2.855570    2.344529
     20          6           0       -3.714400   -2.004240    1.526999
     21          6           0       -3.679390   -2.331590    0.169149
     22          6           0        1.422600   -0.029940   -0.531641
     23          6           0        2.133100    0.871010    0.248299
     24          6           0        3.491740    0.695010    0.460969
     25          6           0        4.168450   -0.390420   -0.086791
     26          6           0        3.440370   -1.292320   -0.863061
     27          6           0        2.087960   -1.113850   -1.091091
     28          6           0        5.621270   -0.583100    0.148009
     29          6           0        6.188310   -0.426050    1.411109
     30          6           0        7.550350   -0.615900    1.581009
     31          6           0        8.316980   -0.962800    0.480809
     32          7           0        7.784790   -1.114010   -0.730301
     33          6           0        6.478540   -0.929510   -0.894651
     34          1           0       -2.751860    4.731410    2.190629
     35          1           0       -0.708960    1.261420    1.453589
     36          1           0       -1.617400    3.857310   -1.821641
     37          1           0       -1.002870    1.380150   -2.187801
     38          1           0        0.533790    1.977550   -1.672901
     39          1           0       -2.739630    0.229520   -0.512131
     40          1           0       -2.324650   -0.325500   -2.118001
     41          1           0       -5.513979   -5.189750    0.113709
     42          1           0       -5.604839   -4.636100    2.530499
     43          1           0       -4.470780   -2.647260    3.395519
     44          1           0       -3.208710   -1.145300    1.919889
     45          1           0        1.639330    1.713370    0.690219
     46          1           0        4.026010    1.417030    1.047539
     47          1           0        3.929620   -2.150310   -1.280791
     48          1           0        1.547870   -1.828790   -1.675461
     49          1           0        5.568700   -0.178550    2.251159
     50          1           0        8.004890   -0.506570    2.545159
     51          1           0        9.371880   -1.124050    0.562739
     52          1           0        6.107620   -1.046820   -1.892471
 ---------------------------------------------------------------------
 Rotational constants (GHZ):      0.1247024      0.0644885      0.0470383
 Leave Link  202 at Wed Sep  7 07:16:32 2022, MaxMem=  209715200 cpu:       0.0
 (Enter /opt/gaussian/l301.exe)
 Standard basis: CC-pVDZ (5D, 7F)
 Ernie: Thresh=  0.10000D-02 Tol=  0.10000D-05 Strict=F.
 Ernie:  74 primitive shells out of 849 were deleted.
 There are   561 symmetry adapted basis functions of A   symmetry.
 Integral buffers will be    131072 words long.
 Raffenetti 2 integral format.
 Two-electron integral symmetry is turned on.
   561 basis functions,  1260 primitive gaussians,   594 cartesian basis functions
   118 alpha electrons      118 beta electrons
       nuclear repulsion energy      3149.7672698513 Hartrees.
 IExCor=  402 DFT=T Ex+Corr=B3LYP ExCW=0 ScaHFX=  0.200000
 ScaDFX=  0.800000  0.720000  1.000000  0.810000 ScalE2=  1.000000  1.000000
 IRadAn=      0 IRanWt=     -1 IRanGd=            0 ICorTp=0
 NAtoms=   52 NActive=   52 NUniq=   52 SFac= 1.00D+00 NAtFMM=   60 NAOKFM=F Big=F
 Leave Link  301 at Wed Sep  7 07:16:32 2022, MaxMem=  209715200 cpu:       0.3
 (Enter /opt/gaussian/l302.exe)
 NPDir=0 NMtPBC=     1 NCelOv=     1 NCel=       1 NClECP=     1 NCelD=      1
         NCelK=      1 NCelE2=     1 NClLst=     1 CellRange=     0.0.
 One-electron integrals computed using PRISM.
 NBasis=   561 RedAO= T  NBF=   561
 NBsUse=   561 1.00D-06 NBFU=   561
 Precomputing XC quadrature grid using
 IXCGrd= 2 IRadAn=           0 IRanWt=          -1 IRanGd=           0 AccXCQ= 0.00D+00.
 NRdTot=    3357 NPtTot=      429226 NUsed=      453414 NTot=      453446
 NSgBfM=   566   566   566   569   569 NAtAll=    52    52.
 Leave Link  302 at Wed Sep  7 07:16:33 2022, MaxMem=  209715200 cpu:       8.8
 (Enter /opt/gaussian/l303.exe)
 DipDrv:  MaxL=1.
 Leave Link  303 at Wed Sep  7 07:16:34 2022, MaxMem=  209715200 cpu:       1.2
 (Enter /opt/gaussian/l401.exe)
 Harris functional with IExCor=  402 diagonalized for initial guess.
 ExpMin= 1.22D-01 ExpMax= 1.28D+05 ExpMxC= 1.24D+03 IAcc=2 IRadAn=         4 AccDes= 0.00D+00
 HarFok:  IExCor=  402 AccDes= 0.00D+00 IRadAn=         4 IDoV= 1
 ScaDFX=  1.000000  1.000000  1.000000  1.000000
 FoFCou: FMM=F IPFlag=           0 FMFlag=      100000 FMFlg1=           0
         NFxFlg=           0 DoJE=T BraDBF=F KetDBF=T FulRan=T
         Omega=  0.000000  0.000000  1.000000  0.000000  0.000000 ICntrl=     500 IOpCl=  0
         NMat0=    1 NMatS0=    1 NMatT0=    0 NMatD0=    1 NMtDS0=    0 NMtDT0=    0
         I1Cent=           4 NGrid=           0.
 Petite list used in FoFCou.
 Harris En= -1827.80808161156    
 Initial guess orbital symmetries:
       Occupied  (A) (A) (A) (A) (A) (A) (A) (A) (A) (A) (A) (A)
                 (A) (A) (A) (A) (A) (A) (A) (A) (A) (A) (A) (A)
                 (A) (A) (A) (A) (A) (A) (A) (A) (A) (A) (A) (A)
                 (A) (A) (A) (A) (A) (A) (A) (A) (A) (A) (A) (A)
                 (A) (A) (A) (A) (A) (A) (A) (A) (A) (A) (A) (A)
                 (A) (A) (A) (A) (A) (A) (A) (A) (A) (A) (A) (A)
                 (A) (A) (A) (A) (A) (A) (A) (A) (A) (A) (A) (A)
                 (A) (A) (A) (A) (A) (A) (A) (A) (A) (A) (A) (A)
                 (A) (A) (A) (A) (A) (A) (A) (A) (A) (A) (A) (A)
                 (A) (A) (A) (A) (A) (A) (A) (A) (A) (A)
       Virtual   (A) (A) (A) (A) (A) (A) (A) (A) (A) (A) (A) (A)
                 (A) (A) (A) (A) (A) (A) (A) (A) (A) (A) (A) (A)
                 (A) (A) (A) (A) (A) (A) (A) (A) (A) (A) (A) (A)
                 (A) (A) (A) (A) (A) (A) (A) (A) (A) (A) (A) (A)
                 (A) (A) (A) (A) (A) (A) (A) (A) (A) (A) (A) (A)
                 (A) (A) (A) (A) (A) (A) (A) (A) (A) (A) (A) (A)
                 (A) (A) (A) (A) (A) (A) (A) (A) (A) (A) (A) (A)
                 (A) (A) (A) (A) (A) (A) (A) (A) (A) (A) (A) (A)
                 (A) (A) (A) (A) (A) (A) (A) (A) (A) (A) (A) (A)
                 (A) (A) (A) (A) (A) (A) (A) (A) (A) (A) (A) (A)
                 (A) (A) (A) (A) (A) (A) (A) (A) (A) (A) (A) (A)
                 (A) (A) (A) (A) (A) (A) (A) (A) (A) (A) (A) (A)
                 (A) (A) (A) (A) (A) (A) (A) (A) (A) (A) (A) (A)
                 (A) (A) (A) (A) (A) (A) (A) (A) (A) (A) (A) (A)
                 (A) (A) (A) (A) (A) (A) (A) (A) (A) (A) (A) (A)
                 (A) (A) (A) (A) (A) (A) (A) (A) (A) (A) (A) (A)
                 (A) (A) (A) (A) (A) (A) (A) (A) (A) (A) (A) (A)
                 (A) (A) (A) (A) (A) (A) (A) (A) (A) (A) (A) (A)
                 (A) (A) (A) (A) (A) (A) (A) (A) (A) (A) (A) (A)
                 (A) (A) (A) (A) (A) (A) (A) (A) (A) (A) (A) (A)
                 (A) (A) (A) (A) (A) (A) (A) (A) (A) (A) (A) (A)
                 (A) (A) (A) (A) (A) (A) (A) (A) (A) (A) (A) (A)
                 (A) (A) (A) (A) (A) (A) (A) (A) (A) (A) (A) (A)
                 (A) (A) (A) (A) (A) (A) (A) (A) (A) (A) (A) (A)
                 (A) (A) (A) (A) (A) (A) (A) (A) (A) (A) (A) (A)
                 (A) (A) (A) (A) (A) (A) (A) (A) (A) (A) (A) (A)
                 (A) (A) (A) (A) (A) (A) (A) (A) (A) (A) (A) (A)
                 (A) (A) (A) (A) (A) (A) (A) (A) (A) (A) (A) (A)
                 (A) (A) (A) (A) (A) (A) (A) (A) (A) (A) (A) (A)
                 (A) (A) (A) (A) (A) (A) (A) (A) (A) (A) (A) (A)
                 (A) (A) (A) (A) (A) (A) (A) (A) (A) (A) (A) (A)
                 (A) (A) (A) (A) (A) (A) (A) (A) (A) (A) (A) (A)
                 (A) (A) (A) (A) (A) (A) (A) (A) (A) (A) (A) (A)
                 (A) (A) (A) (A) (A) (A) (A) (A) (A) (A) (A) (A)
                 (A) (A) (A) (A) (A) (A) (A) (A) (A) (A) (A) (A)
                 (A) (A) (A) (A) (A) (A) (A) (A) (A) (A) (A) (A)
                 (A) (A) (A) (A) (A) (A) (A) (A) (A) (A) (A)
 The electronic state of the initial guess is 1-A.
 Leave Link  401 at Wed Sep  7 07:16:37 2022, MaxMem=  209715200 cpu:      25.4
 (Enter /opt/gaussian/l502.exe)
 Closed shell SCF:
 Requested convergence on RMS density matrix=1.00D-08 within 128 cycles.
 Requested convergence on MAX density matrix=1.00D-06.
 Requested convergence on             energy=1.00D-06.
 No special actions if energy rises.
 Using DIIS extrapolation, IDIIS=  1040.
 Integral symmetry usage will be decided dynamically.
       452933 words used for storage of precomputed grid.
 IEnd=     1538825 IEndB=     1538825 NGot=   209715200 MDV=   208546446
 LenX=   208546446 LenY=   208193016
 Fock matrices will be formed incrementally for  20 cycles.
 Integral accuracy reduced to 1.0D-05 until final iterations.

 Cycle   1  Pass 0  IDiag  1:
 FoFCou: FMM=F IPFlag=           0 FMFlag=      100000 FMFlg1=           0
         NFxFlg=           0 DoJE=F BraDBF=F KetDBF=F FulRan=T
         Omega=  0.000000  0.000000  1.000000  0.000000  0.000000 ICntrl=       0 IOpCl=  0
         NMat0=    1 NMatS0=    1 NMatT0=    0 NMatD0=    1 NMtDS0=    0 NMtDT0=    0
         I1Cent=           0 NGrid=           0.
 Symmetry not used in FoFCou.
 E= -1827.51829618495    
 DIIS: error= 1.90D-02 at cycle   1 NSaved=   1.
 NSaved= 1 IEnMin= 1 EnMin= -1827.51829618495     IErMin= 1 ErrMin= 1.90D-02
 ErrMax= 1.90D-02 EMaxC= 1.00D-01 BMatC= 5.27D-01 BMatP= 5.27D-01
 IDIUse=3 WtCom= 8.10D-01 WtEn= 1.90D-01
 Coeff-Com:  0.100D+01
 Coeff-En:   0.100D+01
 Coeff:      0.100D+01
 Gap=     0.378 Goal=   None    Shift=    0.000
 GapD=    0.378 DampG=1.000 DampE=0.500 DampFc=0.5000 IDamp=-1.
 Damping current iteration by 5.00D-01
 RMSDP=3.91D-03 MaxDP=2.17D-01              OVMax= 2.91D-01

 Cycle   2  Pass 0  IDiag  1:
 RMSU=  1.37D-03    CP:  9.81D-01
 E= -1827.67405692829     Delta-E=       -0.155760743341 Rises=F Damp=T
 DIIS: error= 8.37D-03 at cycle   2 NSaved=   2.
 NSaved= 2 IEnMin= 2 EnMin= -1827.67405692829     IErMin= 2 ErrMin= 8.37D-03
 ErrMax= 8.37D-03 EMaxC= 1.00D-01 BMatC= 1.06D-01 BMatP= 5.27D-01
 IDIUse=3 WtCom= 9.16D-01 WtEn= 8.37D-02
 Coeff-Com:  0.229D+00 0.771D+00
 Coeff-En:   0.335D+00 0.665D+00
 Coeff:      0.238D+00 0.762D+00
 Gap=     0.245 Goal=   None    Shift=    0.000
 RMSDP=1.36D-03 MaxDP=8.14D-02 DE=-1.56D-01 OVMax= 3.23D-01

 Cycle   3  Pass 0  IDiag  1:
 RMSU=  9.13D-04    CP:  9.66D-01  8.10D-01
 E= -1827.99111579295     Delta-E=       -0.317058864666 Rises=F Damp=F
 DIIS: error= 1.19D-02 at cycle   3 NSaved=   3.
 NSaved= 3 IEnMin= 3 EnMin= -1827.99111579295     IErMin= 2 ErrMin= 8.37D-03
 ErrMax= 1.19D-02 EMaxC= 1.00D-01 BMatC= 1.11D-01 BMatP= 1.06D-01
 IDIUse=3 WtCom= 8.81D-01 WtEn= 1.19D-01
 Coeff-Com:  0.450D-01 0.496D+00 0.459D+00
 Coeff-En:   0.000D+00 0.000D+00 0.100D+01
 Coeff:      0.397D-01 0.437D+00 0.523D+00
 Gap=     0.179 Goal=   None    Shift=    0.000
 RMSDP=8.10D-04 MaxDP=7.03D-02 DE=-3.17D-01 OVMax= 7.87D-02

 Cycle   4  Pass 0  IDiag  1:
 RMSU=  3.82D-04    CP:  9.70D-01  9.24D-01  5.66D-01
 E= -1828.07375463002     Delta-E=       -0.082638837065 Rises=F Damp=F
 DIIS: error= 4.29D-03 at cycle   4 NSaved=   4.
 NSaved= 4 IEnMin= 4 EnMin= -1828.07375463002     IErMin= 4 ErrMin= 4.29D-03
 ErrMax= 4.29D-03 EMaxC= 1.00D-01 BMatC= 2.15D-02 BMatP= 1.06D-01
 IDIUse=3 WtCom= 9.57D-01 WtEn= 4.29D-02
 Coeff-Com:  0.986D-02 0.131D+00 0.324D+00 0.534D+00
 Coeff-En:   0.000D+00 0.000D+00 0.194D+00 0.806D+00
 Coeff:      0.944D-02 0.126D+00 0.319D+00 0.546D+00
 Gap=     0.176 Goal=   None    Shift=    0.000
 RMSDP=3.16D-04 MaxDP=2.23D-02 DE=-8.26D-02 OVMax= 2.95D-02

 Cycle   5  Pass 0  IDiag  1:
 RMSU=  1.24D-04    CP:  9.69D-01  8.77D-01  6.75D-01  6.24D-01
 E= -1828.09126637416     Delta-E=       -0.017511744146 Rises=F Damp=F
 DIIS: error= 1.47D-03 at cycle   5 NSaved=   5.
 NSaved= 5 IEnMin= 5 EnMin= -1828.09126637416     IErMin= 5 ErrMin= 1.47D-03
 ErrMax= 1.47D-03 EMaxC= 1.00D-01 BMatC= 1.63D-03 BMatP= 2.15D-02
 IDIUse=3 WtCom= 9.85D-01 WtEn= 1.47D-02
 Coeff-Com:  0.149D-02 0.265D-01 0.143D+00 0.335D+00 0.494D+00
 Coeff-En:   0.000D+00 0.000D+00 0.000D+00 0.306D-01 0.969D+00
 Coeff:      0.147D-02 0.261D-01 0.141D+00 0.331D+00 0.501D+00
 Gap=     0.174 Goal=   None    Shift=    0.000
 RMSDP=1.07D-04 MaxDP=4.68D-03 DE=-1.75D-02 OVMax= 1.42D-02

 Cycle   6  Pass 0  IDiag  1:
 RMSU=  3.81D-05    CP:  9.68D-01  8.84D-01  6.79D-01  6.79D-01  5.04D-01
 E= -1828.09285614865     Delta-E=       -0.001589774484 Rises=F Damp=F
 DIIS: error= 5.31D-04 at cycle   6 NSaved=   6.
 NSaved= 6 IEnMin= 6 EnMin= -1828.09285614865     IErMin= 6 ErrMin= 5.31D-04
 ErrMax= 5.31D-04 EMaxC= 1.00D-01 BMatC= 1.88D-04 BMatP= 1.63D-03
 IDIUse=3 WtCom= 9.95D-01 WtEn= 5.31D-03
 Coeff-Com: -0.131D-03-0.169D-02 0.408D-01 0.121D+00 0.303D+00 0.537D+00
 Coeff-En:   0.000D+00 0.000D+00 0.000D+00 0.000D+00 0.947D-01 0.905D+00
 Coeff:     -0.130D-03-0.168D-02 0.406D-01 0.121D+00 0.302D+00 0.539D+00
 Gap=     0.173 Goal=   None    Shift=    0.000
 RMSDP=3.21D-05 MaxDP=1.50D-03 DE=-1.59D-03 OVMax= 3.98D-03

 Cycle   7  Pass 0  IDiag  1:
 RMSU=  1.32D-05    CP:  9.68D-01  8.84D-01  6.81D-01  6.79D-01  5.79D-01
                    CP:  5.85D-01
 E= -1828.09304838106     Delta-E=       -0.000192232413 Rises=F Damp=F
 DIIS: error= 1.26D-04 at cycle   7 NSaved=   7.
 NSaved= 7 IEnMin= 7 EnMin= -1828.09304838106     IErMin= 7 ErrMin= 1.26D-04
 ErrMax= 1.26D-04 EMaxC= 1.00D-01 BMatC= 1.99D-05 BMatP= 1.88D-04
 IDIUse=3 WtCom= 9.99D-01 WtEn= 1.26D-03
 Coeff-Com: -0.684D-04-0.353D-02 0.112D-01 0.402D-01 0.134D+00 0.323D+00
 Coeff-Com:  0.494D+00
 Coeff-En:   0.000D+00 0.000D+00 0.000D+00 0.000D+00 0.000D+00 0.261D-01
 Coeff-En:   0.974D+00
 Coeff:     -0.683D-04-0.353D-02 0.112D-01 0.402D-01 0.134D+00 0.323D+00
 Coeff:      0.495D+00
 Gap=     0.174 Goal=   None    Shift=    0.000
 RMSDP=9.76D-06 MaxDP=4.55D-04 DE=-1.92D-04 OVMax= 1.01D-03

 Initial convergence to 1.0D-05 achieved.  Increase integral accuracy.
 Cycle   8  Pass 1  IDiag  1:
 E= -1828.09329507584     Delta-E=       -0.000246694778 Rises=F Damp=F
 DIIS: error= 1.77D-04 at cycle   1 NSaved=   1.
 NSaved= 1 IEnMin= 1 EnMin= -1828.09329507584     IErMin= 1 ErrMin= 1.77D-04
 ErrMax= 1.77D-04 EMaxC= 1.00D-01 BMatC= 1.24D-05 BMatP= 1.24D-05
 IDIUse=3 WtCom= 9.98D-01 WtEn= 1.77D-03
 Coeff-Com:  0.100D+01
 Coeff-En:   0.100D+01
 Coeff:      0.100D+01
 Gap=     0.174 Goal=   None    Shift=    0.000
 RMSDP=9.76D-06 MaxDP=4.55D-04 DE=-2.47D-04 OVMax= 8.05D-04

 Cycle   9  Pass 1  IDiag  1:
 RMSU=  8.49D-05    CP:  1.00D+00
 E= -1828.09330124125     Delta-E=       -0.000006165406 Rises=F Damp=F
 DIIS: error= 1.02D-04 at cycle   2 NSaved=   2.
 NSaved= 2 IEnMin= 2 EnMin= -1828.09330124125     IErMin= 2 ErrMin= 1.02D-04
 ErrMax= 1.02D-04 EMaxC= 1.00D-01 BMatC= 5.49D-06 BMatP= 1.24D-05
 IDIUse=3 WtCom= 9.99D-01 WtEn= 1.02D-03
 Coeff-Com:  0.350D+00 0.650D+00
 Coeff-En:   0.143D+00 0.857D+00
 Coeff:      0.350D+00 0.650D+00
 Gap=     0.174 Goal=   None    Shift=    0.000
 RMSDP=9.22D-06 MaxDP=4.01D-04 DE=-6.17D-06 OVMax= 1.09D-03

 Cycle  10  Pass 1  IDiag  1:
 RMSU=  6.51D-06    CP:  1.00D+00  1.00D+00
 E= -1828.09330026963     Delta-E=        0.000000971616 Rises=F Damp=F
 DIIS: error= 1.17D-04 at cycle   3 NSaved=   3.
 NSaved= 3 IEnMin= 2 EnMin= -1828.09330124125     IErMin= 2 ErrMin= 1.02D-04
 ErrMax= 1.17D-04 EMaxC= 1.00D-01 BMatC= 6.42D-06 BMatP= 5.49D-06
 IDIUse=3 WtCom= 4.81D-01 WtEn= 5.19D-01
 Coeff-Com:  0.527D-02 0.518D+00 0.477D+00
 Coeff-En:   0.000D+00 0.528D+00 0.472D+00
 Coeff:      0.253D-02 0.523D+00 0.474D+00
 Gap=     0.174 Goal=   None    Shift=    0.000
 RMSDP=4.92D-06 MaxDP=2.30D-04 DE= 9.72D-07 OVMax= 6.35D-04

 Cycle  11  Pass 1  IDiag  1:
 RMSU=  8.86D-07    CP:  1.00D+00  1.01D+00  4.91D-01
 E= -1828.09330704046     Delta-E=       -0.000006770834 Rises=F Damp=F
 DIIS: error= 1.14D-05 at cycle   4 NSaved=   4.
 NSaved= 4 IEnMin= 4 EnMin= -1828.09330704046     IErMin= 4 ErrMin= 1.14D-05
 ErrMax= 1.14D-05 EMaxC= 1.00D-01 BMatC= 1.63D-07 BMatP= 5.49D-06
 IDIUse=1 WtCom= 1.00D+00 WtEn= 0.00D+00
 Coeff-Com: -0.340D-02 0.328D+00 0.307D+00 0.369D+00
 Coeff:     -0.340D-02 0.328D+00 0.307D+00 0.369D+00
 Gap=     0.174 Goal=   None    Shift=    0.000
 RMSDP=7.87D-07 MaxDP=3.85D-05 DE=-6.77D-06 OVMax= 9.29D-05

 Cycle  12  Pass 1  IDiag  1:
 RMSU=  2.22D-07    CP:  1.00D+00  1.01D+00  4.89D-01  4.24D-01
 E= -1828.09330719644     Delta-E=       -0.000000155981 Rises=F Damp=F
 DIIS: error= 1.70D-06 at cycle   5 NSaved=   5.
 NSaved= 5 IEnMin= 5 EnMin= -1828.09330719644     IErMin= 5 ErrMin= 1.70D-06
 ErrMax= 1.70D-06 EMaxC= 1.00D-01 BMatC= 4.04D-09 BMatP= 1.63D-07
 IDIUse=1 WtCom= 1.00D+00 WtEn= 0.00D+00
 Coeff-Com: -0.225D-02 0.177D+00 0.165D+00 0.222D+00 0.439D+00
 Coeff:     -0.225D-02 0.177D+00 0.165D+00 0.222D+00 0.439D+00
 Gap=     0.174 Goal=   None    Shift=    0.000
 RMSDP=1.43D-07 MaxDP=1.06D-05 DE=-1.56D-07 OVMax= 1.28D-05

 Cycle  13  Pass 1  IDiag  1:
 RMSU=  7.26D-08    CP:  1.00D+00  1.01D+00  4.89D-01  4.42D-01  6.92D-01
 E= -1828.09330719997     Delta-E=       -0.000000003527 Rises=F Damp=F
 DIIS: error= 5.02D-07 at cycle   6 NSaved=   6.
 NSaved= 6 IEnMin= 6 EnMin= -1828.09330719997     IErMin= 6 ErrMin= 5.02D-07
 ErrMax= 5.02D-07 EMaxC= 1.00D-01 BMatC= 3.22D-10 BMatP= 4.04D-09
 IDIUse=1 WtCom= 1.00D+00 WtEn= 0.00D+00
 Coeff-Com: -0.982D-03 0.709D-01 0.661D-01 0.949D-01 0.262D+00 0.508D+00
 Coeff:     -0.982D-03 0.709D-01 0.661D-01 0.949D-01 0.262D+00 0.508D+00
 Gap=     0.174 Goal=   None    Shift=    0.000
 RMSDP=3.85D-08 MaxDP=2.98D-06 DE=-3.53D-09 OVMax= 3.26D-06

 Cycle  14  Pass 1  IDiag  1:
 RMSU=  2.15D-08    CP:  1.00D+00  1.01D+00  4.89D-01  4.43D-01  7.23D-01
                    CP:  7.96D-01
 E= -1828.09330720022     Delta-E=       -0.000000000245 Rises=F Damp=F
 DIIS: error= 1.77D-07 at cycle   7 NSaved=   7.
 NSaved= 7 IEnMin= 7 EnMin= -1828.09330720022     IErMin= 7 ErrMin= 1.77D-07
 ErrMax= 1.77D-07 EMaxC= 1.00D-01 BMatC= 3.15D-11 BMatP= 3.22D-10
 IDIUse=1 WtCom= 1.00D+00 WtEn= 0.00D+00
 Coeff-Com: -0.254D-03 0.165D-01 0.153D-01 0.246D-01 0.871D-01 0.283D+00
 Coeff-Com:  0.574D+00
 Coeff:     -0.254D-03 0.165D-01 0.153D-01 0.246D-01 0.871D-01 0.283D+00
 Coeff:      0.574D+00
 Gap=     0.174 Goal=   None    Shift=    0.000
 RMSDP=1.42D-08 MaxDP=7.86D-07 DE=-2.45D-10 OVMax= 1.98D-06

 Cycle  15  Pass 1  IDiag  1:
 RMSU=  6.94D-09    CP:  1.00D+00  1.01D+00  4.89D-01  4.43D-01  7.31D-01
                    CP:  8.29D-01  6.94D-01
 E= -1828.09330720025     Delta-E=       -0.000000000034 Rises=F Damp=F
 DIIS: error= 1.23D-07 at cycle   8 NSaved=   8.
 NSaved= 8 IEnMin= 8 EnMin= -1828.09330720025     IErMin= 8 ErrMin= 1.23D-07
 ErrMax= 1.23D-07 EMaxC= 1.00D-01 BMatC= 6.07D-12 BMatP= 3.15D-11
 IDIUse=1 WtCom= 1.00D+00 WtEn= 0.00D+00
 Coeff-Com: -0.332D-05-0.843D-03-0.871D-03 0.662D-03 0.124D-01 0.954D-01
 Coeff-Com:  0.353D+00 0.540D+00
 Coeff:     -0.332D-05-0.843D-03-0.871D-03 0.662D-03 0.124D-01 0.954D-01
 Coeff:      0.353D+00 0.540D+00
 Gap=     0.174 Goal=   None    Shift=    0.000
 RMSDP=5.64D-09 MaxDP=2.97D-07 DE=-3.37D-11 OVMax= 1.08D-06

 SCF Done:  E(RB3LYP) =  -1828.09330720     A.U. after   15 cycles
             Convg  =    0.5638D-08             -V/T =  2.0048
 KE= 1.819408902598D+03 PE=-1.057180453983D+04 EE= 3.774535060181D+03
 Leave Link  502 at Wed Sep  7 07:29:02 2022, MaxMem=  209715200 cpu:    5946.9
 (Enter /opt/gaussian/l601.exe)
 Copying SCF densities to generalized density rwf, IOpCl= 0 IROHF=0.

 **********************************************************************

            Population analysis using the SCF density.

 **********************************************************************

 Orbital symmetries:
       Occupied  (A) (A) (A) (A) (A) (A) (A) (A) (A) (A) (A) (A)
                 (A) (A) (A) (A) (A) (A) (A) (A) (A) (A) (A) (A)
                 (A) (A) (A) (A) (A) (A) (A) (A) (A) (A) (A) (A)
                 (A) (A) (A) (A) (A) (A) (A) (A) (A) (A) (A) (A)
                 (A) (A) (A) (A) (A) (A) (A) (A) (A) (A) (A) (A)
                 (A) (A) (A) (A) (A) (A) (A) (A) (A) (A) (A) (A)
                 (A) (A) (A) (A) (A) (A) (A) (A) (A) (A) (A) (A)
                 (A) (A) (A) (A) (A) (A) (A) (A) (A) (A) (A) (A)
                 (A) (A) (A) (A) (A) (A) (A) (A) (A) (A) (A) (A)
                 (A) (A) (A) (A) (A) (A) (A) (A) (A) (A)
       Virtual   (A) (A) (A) (A) (A) (A) (A) (A) (A) (A) (A) (A)
                 (A) (A) (A) (A) (A) (A) (A) (A) (A) (A) (A) (A)
                 (A) (A) (A) (A) (A) (A) (A) (A) (A) (A) (A) (A)
                 (A) (A) (A) (A) (A) (A) (A) (A) (A) (A) (A) (A)
                 (A) (A) (A) (A) (A) (A) (A) (A) (A) (A) (A) (A)
                 (A) (A) (A) (A) (A) (A) (A) (A) (A) (A) (A) (A)
                 (A) (A) (A) (A) (A) (A) (A) (A) (A) (A) (A) (A)
                 (A) (A) (A) (A) (A) (A) (A) (A) (A) (A) (A) (A)
                 (A) (A) (A) (A) (A) (A) (A) (A) (A) (A) (A) (A)
                 (A) (A) (A) (A) (A) (A) (A) (A) (A) (A) (A) (A)
                 (A) (A) (A) (A) (A) (A) (A) (A) (A) (A) (A) (A)
                 (A) (A) (A) (A) (A) (A) (A) (A) (A) (A) (A) (A)
                 (A) (A) (A) (A) (A) (A) (A) (A) (A) (A) (A) (A)
                 (A) (A) (A) (A) (A) (A) (A) (A) (A) (A) (A) (A)
                 (A) (A) (A) (A) (A) (A) (A) (A) (A) (A) (A) (A)
                 (A) (A) (A) (A) (A) (A) (A) (A) (A) (A) (A) (A)
                 (A) (A) (A) (A) (A) (A) (A) (A) (A) (A) (A) (A)
                 (A) (A) (A) (A) (A) (A) (A) (A) (A) (A) (A) (A)
                 (A) (A) (A) (A) (A) (A) (A) (A) (A) (A) (A) (A)
                 (A) (A) (A) (A) (A) (A) (A) (A) (A) (A) (A) (A)
                 (A) (A) (A) (A) (A) (A) (A) (A) (A) (A) (A) (A)
                 (A) (A) (A) (A) (A) (A) (A) (A) (A) (A) (A) (A)
                 (A) (A) (A) (A) (A) (A) (A) (A) (A) (A) (A) (A)
                 (A) (A) (A) (A) (A) (A) (A) (A) (A) (A) (A) (A)
                 (A) (A) (A) (A) (A) (A) (A) (A) (A) (A) (A) (A)
                 (A) (A) (A) (A) (A) (A) (A) (A) (A) (A) (A) (A)
                 (A) (A) (A) (A) (A) (A) (A) (A) (A) (A) (A) (A)
                 (A) (A) (A) (A) (A) (A) (A) (A) (A) (A) (A) (A)
                 (A) (A) (A) (A) (A) (A) (A) (A) (A) (A) (A) (A)
                 (A) (A) (A) (A) (A) (A) (A) (A) (A) (A) (A) (A)
                 (A) (A) (A) (A) (A) (A) (A) (A) (A) (A) (A) (A)
                 (A) (A) (A) (A) (A) (A) (A) (A) (A) (A) (A) (A)
                 (A) (A) (A) (A) (A) (A) (A) (A) (A) (A) (A) (A)
                 (A) (A) (A) (A) (A) (A) (A) (A) (A) (A) (A) (A)
                 (A) (A) (A) (A) (A) (A) (A) (A) (A) (A) (A) (A)
                 (A) (A) (A) (A) (A) (A) (A) (A) (A) (A) (A) (A)
                 (A) (A) (A) (A) (A) (A) (A) (A) (A) (A) (A)
 The electronic state is 1-A.
 Alpha  occ. eigenvalues -- -101.56516 -19.12802 -14.41054 -14.39243 -14.39003
 Alpha  occ. eigenvalues --  -14.35669 -14.34727 -14.32787 -10.31010 -10.27883
 Alpha  occ. eigenvalues --  -10.26759 -10.25885 -10.25162 -10.24807 -10.24716
 Alpha  occ. eigenvalues --  -10.24108 -10.23919 -10.22970 -10.22483 -10.22401
 Alpha  occ. eigenvalues --  -10.21350 -10.21207 -10.21093 -10.20816 -10.20803
 Alpha  occ. eigenvalues --  -10.20618 -10.20396 -10.20343 -10.20215 -10.20067
 Alpha  occ. eigenvalues --  -10.19677 -10.19506 -10.19077  -9.48256  -7.24536
 Alpha  occ. eigenvalues --   -7.23540  -7.23508  -1.10399  -1.06349  -0.98452
 Alpha  occ. eigenvalues --   -0.97326  -0.95186  -0.93232  -0.88835  -0.88371
 Alpha  occ. eigenvalues --   -0.87202  -0.84648  -0.82430  -0.79518  -0.78644
 Alpha  occ. eigenvalues --   -0.78371  -0.77434  -0.77201  -0.75751  -0.75006
 Alpha  occ. eigenvalues --   -0.73349  -0.66970  -0.66764  -0.65248  -0.65131
 Alpha  occ. eigenvalues --   -0.64442  -0.62993  -0.62525  -0.62394  -0.59939
 Alpha  occ. eigenvalues --   -0.57836  -0.56105  -0.55107  -0.54382  -0.53607
 Alpha  occ. eigenvalues --   -0.53088  -0.52885  -0.51469  -0.50546  -0.49977
 Alpha  occ. eigenvalues --   -0.49119  -0.48041  -0.47339  -0.47152  -0.46872
 Alpha  occ. eigenvalues --   -0.46501  -0.45679  -0.45601  -0.45154  -0.44870
 Alpha  occ. eigenvalues --   -0.44469  -0.44272  -0.44165  -0.43129  -0.42225
 Alpha  occ. eigenvalues --   -0.41378  -0.41164  -0.40866  -0.40157  -0.39444
 Alpha  occ. eigenvalues --   -0.38610  -0.37965  -0.37179  -0.36980  -0.36669
 Alpha  occ. eigenvalues --   -0.36400  -0.36089  -0.33742  -0.33547  -0.31543
 Alpha  occ. eigenvalues --   -0.31272  -0.31143  -0.29328  -0.28396  -0.28342
 Alpha  occ. eigenvalues --   -0.27927  -0.27418  -0.26984  -0.26304  -0.25659
 Alpha  occ. eigenvalues --   -0.25307  -0.24034  -0.23713
 Alpha virt. eigenvalues --   -0.06336  -0.04928  -0.04644  -0.03955  -0.03063
 Alpha virt. eigenvalues --   -0.02632  -0.00998  -0.00132   0.00816   0.01299
 Alpha virt. eigenvalues --    0.03299   0.03968   0.05884   0.06030   0.06581
 Alpha virt. eigenvalues --    0.07076   0.07676   0.08080   0.08960   0.10182
 Alpha virt. eigenvalues --    0.10543   0.10707   0.11075   0.11224   0.11670
 Alpha virt. eigenvalues --    0.12670   0.13137   0.13342   0.13762   0.14168
 Alpha virt. eigenvalues --    0.14483   0.15522   0.16050   0.16233   0.16722
 Alpha virt. eigenvalues --    0.17389   0.20009   0.20239   0.20853   0.21138
 Alpha virt. eigenvalues --    0.22304   0.22799   0.23393   0.24371   0.24769
 Alpha virt. eigenvalues --    0.25264   0.26350   0.27631   0.27750   0.28361
 Alpha virt. eigenvalues --    0.29397   0.29703   0.30408   0.30913   0.31343
 Alpha virt. eigenvalues --    0.31734   0.32179   0.33091   0.33728   0.34357
 Alpha virt. eigenvalues --    0.35666   0.36693   0.36930   0.37032   0.37725
 Alpha virt. eigenvalues --    0.39444   0.40642   0.41083   0.42711   0.43209
 Alpha virt. eigenvalues --    0.44526   0.44606   0.44966   0.45321   0.45570
 Alpha virt. eigenvalues --    0.45900   0.46183   0.46395   0.46574   0.46782
 Alpha virt. eigenvalues --    0.46984   0.47592   0.47679   0.47843   0.48374
 Alpha virt. eigenvalues --    0.48393   0.48891   0.48969   0.49228   0.49698
 Alpha virt. eigenvalues --    0.50158   0.50426   0.50836   0.51048   0.51127
 Alpha virt. eigenvalues --    0.51405   0.51671   0.52373   0.52644   0.53584
 Alpha virt. eigenvalues --    0.53660   0.53828   0.54021   0.54506   0.55070
 Alpha virt. eigenvalues --    0.55355   0.55522   0.55702   0.56205   0.56530
 Alpha virt. eigenvalues --    0.57394   0.57436   0.58949   0.59315   0.59754
 Alpha virt. eigenvalues --    0.59899   0.60290   0.60615   0.60980   0.61615
 Alpha virt. eigenvalues --    0.62081   0.62258   0.62939   0.63051   0.63575
 Alpha virt. eigenvalues --    0.64475   0.64647   0.64932   0.65295   0.65557
 Alpha virt. eigenvalues --    0.66064   0.66847   0.66966   0.67176   0.67778
 Alpha virt. eigenvalues --    0.68238   0.68694   0.68717   0.69694   0.70170
 Alpha virt. eigenvalues --    0.70438   0.70653   0.70735   0.71171   0.71591
 Alpha virt. eigenvalues --    0.71867   0.72985   0.73270   0.74157   0.75117
 Alpha virt. eigenvalues --    0.75691   0.76641   0.77859   0.78485   0.78993
 Alpha virt. eigenvalues --    0.79383   0.80191   0.82004   0.82663   0.83730
 Alpha virt. eigenvalues --    0.83847   0.84212   0.85012   0.86011   0.86280
 Alpha virt. eigenvalues --    0.86994   0.87709   0.88022   0.88094   0.88600
 Alpha virt. eigenvalues --    0.88705   0.89439   0.89720   0.89957   0.91042
 Alpha virt. eigenvalues --    0.91575   0.92164   0.92468   0.92730   0.93279
 Alpha virt. eigenvalues --    0.94377   0.94784   0.95293   0.95515   0.96131
 Alpha virt. eigenvalues --    0.97427   0.97885   0.98701   0.98995   0.99708
 Alpha virt. eigenvalues --    1.00424   1.00725   1.00846   1.01375   1.01471
 Alpha virt. eigenvalues --    1.01814   1.02376   1.02687   1.03571   1.03764
 Alpha virt. eigenvalues --    1.04463   1.04801   1.05155   1.05575   1.06093
 Alpha virt. eigenvalues --    1.06617   1.07064   1.07833   1.08697   1.09476
 Alpha virt. eigenvalues --    1.09823   1.10959   1.11141   1.11454   1.12263
 Alpha virt. eigenvalues --    1.12764   1.13475   1.14146   1.15539   1.15978
 Alpha virt. eigenvalues --    1.17044   1.17987   1.18620   1.19923   1.20327
 Alpha virt. eigenvalues --    1.21580   1.22182   1.22982   1.23648   1.23962
 Alpha virt. eigenvalues --    1.24633   1.25261   1.27484   1.28813   1.29965
 Alpha virt. eigenvalues --    1.30708   1.31363   1.31783   1.33194   1.34037
 Alpha virt. eigenvalues --    1.34707   1.35800   1.36071   1.37739   1.38398
 Alpha virt. eigenvalues --    1.40016   1.40218   1.41958   1.43844   1.45003
 Alpha virt. eigenvalues --    1.45629   1.46374   1.47087   1.47633   1.47925
 Alpha virt. eigenvalues --    1.48826   1.49467   1.49673   1.49847   1.50880
 Alpha virt. eigenvalues --    1.50925   1.51548   1.51688   1.52377   1.52994
 Alpha virt. eigenvalues --    1.55635   1.56193   1.56792   1.57078   1.57551
 Alpha virt. eigenvalues --    1.57914   1.58775   1.59281   1.59967   1.60262
 Alpha virt. eigenvalues --    1.60715   1.61476   1.61856   1.62363   1.63086
 Alpha virt. eigenvalues --    1.63135   1.63584   1.63794   1.64075   1.64643
 Alpha virt. eigenvalues --    1.64883   1.65343   1.65808   1.65951   1.66396
 Alpha virt. eigenvalues --    1.66943   1.67789   1.68127   1.68828   1.69929
 Alpha virt. eigenvalues --    1.70445   1.70893   1.71135   1.71776   1.72670
 Alpha virt. eigenvalues --    1.73074   1.73568   1.73729   1.74290   1.74460
 Alpha virt. eigenvalues --    1.75156   1.75812   1.76296   1.76717   1.77312
 Alpha virt. eigenvalues --    1.78226   1.79066   1.79902   1.80056   1.80790
 Alpha virt. eigenvalues --    1.80956   1.81849   1.82076   1.82719   1.83462
 Alpha virt. eigenvalues --    1.84008   1.84377   1.85462   1.86051   1.86130
 Alpha virt. eigenvalues --    1.86398   1.86775   1.87270   1.87520   1.88048
 Alpha virt. eigenvalues --    1.88560   1.89040   1.89922   1.90324   1.90910
 Alpha virt. eigenvalues --    1.91361   1.93152   1.93524   1.94372   1.94483
 Alpha virt. eigenvalues --    1.95127   1.96771   1.97804   1.98688   1.99043
 Alpha virt. eigenvalues --    1.99516   2.00414   2.00842   2.01696   2.02009
 Alpha virt. eigenvalues --    2.02720   2.03300   2.04501   2.05103   2.05385
 Alpha virt. eigenvalues --    2.05786   2.07280   2.07735   2.10044   2.10903
 Alpha virt. eigenvalues --    2.11553   2.13064   2.13268   2.14483   2.15629
 Alpha virt. eigenvalues --    2.17798   2.17927   2.18548   2.20088   2.20877
 Alpha virt. eigenvalues --    2.21853   2.22451   2.23396   2.24449   2.26038
 Alpha virt. eigenvalues --    2.28459   2.30462   2.30867   2.31734   2.33064
 Alpha virt. eigenvalues --    2.34786   2.36112   2.36641   2.41139   2.41901
 Alpha virt. eigenvalues --    2.42506   2.42691   2.43195   2.43314   2.43491
 Alpha virt. eigenvalues --    2.43890   2.46701   2.47198   2.47552   2.48183
 Alpha virt. eigenvalues --    2.49052   2.49221   2.50583   2.51392   2.53136
 Alpha virt. eigenvalues --    2.53513   2.54663   2.55895   2.57489   2.59774
 Alpha virt. eigenvalues --    2.61336   2.64374   2.64543   2.65887   2.67048
 Alpha virt. eigenvalues --    2.69018   2.70645   2.71138   2.72379   2.74116
 Alpha virt. eigenvalues --    2.74913   2.76348   2.76705   2.77890   2.78289
 Alpha virt. eigenvalues --    2.79848   2.81719   2.83283   2.83640   2.85448
 Alpha virt. eigenvalues --    2.87479   2.88225   2.89578   2.90331   2.94204
 Alpha virt. eigenvalues --    2.97233   2.98595   2.99432   3.00654   3.08151
 Alpha virt. eigenvalues --    3.12712   3.15993   3.31244   3.41211   3.45946
 Alpha virt. eigenvalues --    3.48705   3.59164   3.60368
          Condensed to atoms (all electrons):
 Mulliken atomic charges:
              1
     1  Cl  -0.081318
     2  C   -0.206186
     3  C    0.203227
     4  N   -0.163062
     5  C    0.114921
     6  C   -0.170447
     7  C    0.221937
     8  C    0.179483
     9  N   -0.283811
    10  C    0.106253
    11  O   -0.238108
    12  C    0.155045
    13  N   -0.231008
    14  N   -0.056365
    15  N   -0.178836
    16  C   -0.002257
    17  C    0.064431
    18  C    0.050259
    19  C    0.051864
    20  C    0.043660
    21  C    0.212065
    22  C    0.076720
    23  C    0.055523
    24  C    0.041942
    25  C    0.023511
    26  C    0.039764
    27  C    0.107612
    28  C   -0.062668
    29  C    0.098472
    30  C   -0.001520
    31  C    0.122077
    32  N   -0.171906
    33  C    0.121220
    34  H    0.003824
    35  H    0.006620
    36  H   -0.028273
    37  H    0.039764
    38  H    0.049785
    39  H    0.045467
    40  H    0.051041
    41  H   -0.032938
    42  H   -0.037299
    43  H   -0.034911
    44  H   -0.039626
    45  H   -0.042966
    46  H   -0.046986
    47  H   -0.039229
    48  H   -0.029400
    49  H   -0.038212
    50  H   -0.033908
    51  H   -0.012914
    52  H   -0.022333
 Sum of Mulliken atomic charges =   0.00000
 Mulliken charges with hydrogens summed into heavy atoms:
              1
     1  Cl  -0.081318
     2  C   -0.206186
     3  C    0.207051
     4  N   -0.163062
     5  C    0.121541
     6  C   -0.170447
     7  C    0.193664
     8  C    0.269032
     9  N   -0.283811
    10  C    0.106253
    11  O   -0.238108
    12  C    0.251553
    13  N   -0.231008
    14  N   -0.056365
    15  N   -0.178836
    16  C   -0.002257
    17  C    0.031493
    18  C    0.012959
    19  C    0.016952
    20  C    0.004034
    21  C    0.212065
    22  C    0.076720
    23  C    0.012558
    24  C   -0.005044
    25  C    0.023511
    26  C    0.000535
    27  C    0.078212
    28  C   -0.062668
    29  C    0.060260
    30  C   -0.035428
    31  C    0.109163
    32  N   -0.171906
    33  C    0.098888
 Sum of Mulliken charges with hydrogens summed into heavy atoms =   0.00000
 Electronic spatial extent (au):  <R**2>=          21565.7115
 Charge=              0.0000 electrons
 Dipole moment (field-independent basis, Debye):
    X=              1.0348    Y=              4.5522    Z=              1.7410  Tot=              4.9824
 Quadrupole moment (field-independent basis, Debye-Ang):
   XX=           -205.4466   YY=           -207.1471   ZZ=           -192.8233
   XY=             -1.3718   XZ=              2.7208   YZ=            -12.5138
 Traceless Quadrupole moment (field-independent basis, Debye-Ang):
   XX=             -3.6410   YY=             -5.3414   ZZ=              8.9823
   XY=             -1.3718   XZ=              2.7208   YZ=            -12.5138
 Octapole moment (field-independent basis, Debye-Ang**2):
  XXX=            -50.1765  YYY=              9.6186  ZZZ=             10.6184  XYY=             -2.1985
  XXY=             25.3149  XXZ=            174.4192  XZZ=             15.0642  YZZ=             23.6903
  YYZ=             31.8417  XYZ=             46.2326
 Hexadecapole moment (field-independent basis, Debye-Ang**3):
 XXXX=         -19614.6565 YYYY=          -8881.8360 ZZZZ=          -1732.9702 XXXY=            172.1410
 XXXZ=            812.2378 YYYX=             71.5069 YYYZ=            -79.5921 ZZZX=            -35.7872
 ZZZY=           -115.1888 XXYY=          -4675.7734 XXZZ=          -3426.6352 YYZZ=          -1759.4658
 XXYZ=           -278.9075 YYXZ=           -217.3235 ZZXY=            -83.6306
 N-N= 3.149767269851D+03 E-N=-1.057180455231D+04  KE= 1.819408902598D+03
 No NMR shielding tensors so no spin-rotation constants.
 Leave Link  601 at Wed Sep  7 07:29:02 2022, MaxMem=  209715200 cpu:       4.1
 (Enter /opt/gaussian/l701.exe)
 Compute integral first derivatives.
 ... and contract with generalized density number  0.
 Leave Link  701 at Wed Sep  7 07:29:03 2022, MaxMem=  209715200 cpu:       3.5
 (Enter /opt/gaussian/l702.exe)
 L702 exits ... SP integral derivatives will be done elsewhere.
 Leave Link  702 at Wed Sep  7 07:29:03 2022, MaxMem=  209715200 cpu:       0.2
 (Enter /opt/gaussian/l703.exe)
 Compute integral first derivatives, UseDBF=F ICtDFT=           0.
 Integral derivatives from FoFDir, PRISM(SPDF).
 Calling FoFJK, ICntrl=      2127 FMM=F ISym2X=0 I1Cent= 0 IOpClX= 0 NMat=1 NMatS=1 NMatT=0.
 FoFCou: FMM=F IPFlag=           0 FMFlag=      100000 FMFlg1=         800
         NFxFlg=           0 DoJE=F BraDBF=F KetDBF=F FulRan=T
         Omega=  0.000000  0.000000  1.000000  0.000000  0.000000 ICntrl=    2127 IOpCl=  0
         NMat0=    1 NMatS0=    1 NMatT0=    0 NMatD0=    1 NMtDS0=    0 NMtDT0=    0
         I1Cent=           0 NGrid=           0.
 Symmetry not used in FoFCou.
 Leave Link  703 at Wed Sep  7 07:33:17 2022, MaxMem=  209715200 cpu:    2030.4
 (Enter /opt/gaussian/l716.exe)
 Dipole        = 4.07134233D-01 1.79096016D+00 6.84967683D-01
 ***** Axes restored to original set *****
 -------------------------------------------------------------------
 Center     Atomic                   Forces (Hartrees/Bohr)
 Number     Number              X              Y              Z
 -------------------------------------------------------------------
      1       17           0.006583653   -0.013268042    0.004411195
      2        6          -0.012149382    0.024876020   -0.009648926
      3        6           0.006046797   -0.010033553   -0.003453831
      4        7          -0.000032878   -0.004436512    0.015925227
      5        6          -0.006810032    0.013261763   -0.001349688
      6        6           0.003705389   -0.003993465   -0.008506790
      7        6           0.001726004   -0.003079580    0.000238135
      8        6          -0.003228434   -0.004191824    0.013297199
      9        7           0.004799936    0.007064731   -0.002921459
     10        6           0.003940676   -0.013866633    0.007017274
     11        8          -0.000350129    0.000779765   -0.001217363
     12        6           0.001486095   -0.004721020    0.003176683
     13        7          -0.000270608   -0.000039327   -0.000012342
     14        7           0.009533734    0.012736375   -0.009065286
     15        7          -0.012707504   -0.019262724    0.001416223
     16        6          -0.001039232   -0.006028742   -0.015144671
     17        6           0.001423603    0.001947443   -0.001570628
     18        6           0.003831582    0.006641226    0.002311929
     19        6          -0.003786560   -0.006199288   -0.002174734
     20        6           0.000666335   -0.000051771   -0.004858844
     21        6           0.006254807    0.010235067    0.005988559
     22        6          -0.009614813    0.000935078   -0.001949468
     23        6           0.002793188   -0.000946300   -0.000510645
     24        6          -0.002869436   -0.001560323   -0.001168741
     25        6           0.010301767   -0.001562302    0.001940058
     26        6          -0.002282345    0.002917523    0.000322887
     27        6           0.002112481    0.000190481    0.002397143
     28        6          -0.012914481    0.001615836   -0.000422361
     29        6           0.003658384   -0.000217968   -0.002557347
     30        6          -0.002304708    0.000421179   -0.000973223
     31        6          -0.014797978    0.001606520   -0.004440692
     32        7           0.010525413   -0.004559708   -0.014879420
     33        6           0.009653089    0.000091582    0.012691918
     34        1          -0.007996113    0.010908976    0.011738414
     35        1           0.006786060   -0.014629018    0.006283455
     36        1           0.000286986    0.003346406   -0.013724914
     37        1          -0.007436357   -0.001633955   -0.010342387
     38        1           0.010653503    0.005899889   -0.004513096
     39        1          -0.005434281    0.010796978    0.006325244
     40        1          -0.001049085    0.003410038   -0.013192145
     41        1          -0.006488806   -0.011625891   -0.005549922
     42        1          -0.007147724   -0.008464889    0.009193541
     43        1          -0.000620315    0.002867628    0.013941248
     44        1           0.006662196    0.011442664    0.005207370
     45        1          -0.006658730    0.011090291    0.005657984
     46        1           0.006971852    0.009237722    0.007694241
     47        1           0.006526430   -0.011179902   -0.005521551
     48        1          -0.007385699   -0.009368249   -0.008085439
     49        1          -0.008405839    0.003362559    0.011071664
     50        1           0.005948379    0.001641705    0.013834879
     51        1           0.017379484   -0.002696945    0.001629317
     52        1          -0.006476352   -0.001707512   -0.015955874
 -------------------------------------------------------------------
 Cartesian Forces:  Max     0.024876020 RMS     0.007762454
 Leave Link  716 at Wed Sep  7 07:33:17 2022, MaxMem=  209715200 cpu:       0.2
 (Enter /opt/gaussian/l103.exe)

 GradGradGradGradGradGradGradGradGradGradGradGradGradGradGradGradGradGrad
 Berny optimization.
 Internal  Forces:  Max     0.020483352 RMS     0.005644901
 Search for a local minimum.
 Step number   1 out of a maximum of  290
 All quantities printed in internal units (Hartrees-Bohrs-Radians)
 RMS Force = .56449D-02 SwitMx=.10000D-02 MixMth= 1
 Mixed Optimization -- RFO/linear search
 Second derivative matrix not updated -- first step.
 ITU=  0
     Eigenvalues ---    0.00446   0.00507   0.00857   0.00975   0.01094
     Eigenvalues ---    0.01182   0.01298   0.01308   0.01505   0.01709
     Eigenvalues ---    0.01792   0.01792   0.01927   0.02025   0.02061
     Eigenvalues ---    0.02088   0.02117   0.02167   0.02182   0.02190
     Eigenvalues ---    0.02195   0.02202   0.02227   0.02228   0.02230
     Eigenvalues ---    0.02236   0.02238   0.02251   0.02259   0.02263
     Eigenvalues ---    0.02278   0.02282   0.02286   0.02287   0.02293
     Eigenvalues ---    0.02310   0.02314   0.02343   0.02348   0.02359
[...]
 357,0.00002559,-0.00002003,0.00000045,-0.00000931,0.00001526,0.0000082
 0,0.00000008,-0.00000353,0.00000172,0.00001370,-0.00000802,-0.00000040
 ,-0.00000401,0.00001742,0.00000189,0.00000371,-0.00000929,-0.00001291,
 0.00003856,-0.00000713,0.00013557,0.00008319,0.00000475,-0.00008237,-0
 .00009778,0.00001831,0.00005648,0.00004797,-0.00001237,-0.00001408,-0.
 00002173,0.00000340,0.00002550,0.00002119,0.00001179,-0.00001142,-0.00
 002164,-0.00003238,0.00001631,0.00002413,-0.00000585,0.00000223,0.0000
 0294,0.00000781,-0.00000100,-0.00000139,-0.00000115,0.00000136,0.00000
 227,0.00000033,-0.00000202,-0.00000353,0.00000330,0.00000074,-0.000001
 02,-0.00000782,-0.00001164,-0.00000609,0.00002671,-0.00005617,0.000146
 90,-0.00001239,-0.00019160,0.00036686,0.00027944,-0.00048919,-0.000707
 70,-0.00014131,0.00153536,0.00156469,0.00010485,-0.00012238,-0.0001835
 5,0.00010191,0.00015124,0.00001492,0.00011157,0.01611948,-0.01243154,-
 0.01201674,0.10359720,-0.09952072,-0.19027990,-0.00429185,0.00173966,0
 .00662509,-0.00215869,-0.00249250,0.00303713,0.00003617,0.00171108,-0.
 00080449,-0.00489233,-0.00401645,-0.00165895,0.00000082,-0.00000269,-0
 .00000010,-0.00000870,-0.00000907,0.00001011,-0.00000272,0.00000122,0.
 00000005,0.00001342,-0.00000578,0.00000326,-0.00000368,0.00000109,-0.0
 0001827,0.00000573,0.00000337,0.00000211,0.00000254,-0.00000052,-0.000
 00413,0.00000096,0.00000095,0.00000045,0.00000144,0.00000147,-0.000001
 32,-0.00000017,-0.00000052,-0.00000128,-0.00000145,0.00000163,0.000004
 08,-0.00004624,-0.00002244,0.00000068,-0.00031827,0.00091038,-0.000158
 89,0.00007761,0.00011823,-0.00000432,0.00000448,0.00001092,-0.00002536
 ,-0.11048800,0.11104070,0.19582115,-0.00000686,0.00001361,-0.00000264,
 0.00000589,-0.00001413,0.00001315,-0.00000361,0.00000931,-0.00001047,0
 .00000123,0.00000147,0.00000991,-0.00000177,-0.00000548,0.00000401,0.0
 0000489,0.00000024,-0.00001818,-0.00000131,-0.00000013,0.00000878,0.00
 000356,-0.00005994,-0.00000446,-0.00014903,-0.00001119,-0.00001611,0.0
 0007810,0.00010298,-0.00000446,-0.00003989,-0.00004726,0.00002462,0.00
 001289,0.00001494,-0.00000738,-0.00001814,-0.00001367,-0.00000719,0.00
 000448,0.00001295,0.00002392,-0.00001027,-0.00001479,0.00000342,-0.000
 00181,-0.00000260,-0.00000437,0.00000129,0.00000186,-0.00000048,-0.000
 00087,-0.00000125,0.00000162,0.00000078,0.00000170,-0.00000259,-0.0000
 0153,-0.00000071,0.00000428,0.00001080,0.00000618,-0.00002083,0.000105
 06,-0.00001046,0.00000816,-0.00003560,0.00001062,0.00002884,-0.0000443
 6,-0.00010956,0.00004311,0.00023778,-0.00077785,-0.00122359,-0.0003722
 4,0.00022181,-0.00000408,-0.00005458,-0.00010765,-0.00000265,-0.004810
 72,0.00287367,-0.00017970,-0.00847902,-0.01125369,-0.02602390,-0.11672
 111,-0.04026295,-0.10799305,0.01171457,0.00498839,0.01365262,-0.000074
 53,0.00334672,0.00277632,-0.00160230,0.00060798,0.00054060,-0.00000192
 ,0.00000184,-0.00000024,0.00000320,0.00000173,-0.00001123,0.00000125,-
 0.00000254,-0.00000024,-0.00001212,0.00001221,-0.00000317,0.00000251,-
 0.00000175,0.00000826,-0.00000694,-0.00000328,-0.00000101,-0.00000292,
 0.,0.00000193,-0.00000036,-0.00000062,-0.00000025,-0.00000097,-0.00000
 108,0.00000078,-0.00000052,-0.00000005,0.00000170,0.00000130,-0.000000
 73,-0.00000366,-0.00002057,0.00001290,-0.00000482,0.00003392,0.0000279
 9,-0.00001717,0.00002128,-0.00000725,-0.00001945,-0.00003532,0.0000093
 9,-0.00001238,0.00103175,-0.00074705,0.00066994,0.11875950,-0.00000213
 ,0.00000298,-0.00000078,0.00000254,-0.00000438,0.00000324,0.00000036,0
 .00000130,-0.00000252,-0.00000269,-0.00000161,0.00000101,-0.00000162,0
 .00000024,0.00000068,0.00000023,-0.00000100,-0.00000246,-0.00000093,-0
 .00000029,0.00000152,0.00000238,-0.00000598,-0.00000061,-0.00004242,-0
 .00002092,0.00000617,0.00002385,0.00004736,-0.00000697,-0.00000605,-0.
 00002523,0.00001103,0.00000593,0.00000728,-0.00000279,-0.00000698,-0.0
 0000693,-0.00000297,0.00000243,0.00000495,0.00001053,-0.00000446,-0.00
 000666,0.00000131,-0.00000084,-0.00000097,-0.00000186,0.00000071,0.000
 00062,-0.00000032,0.00000002,-0.00000069,0.00000068,0.00000061,0.00000
 027,-0.00000102,0.00000039,-0.00000014,0.00000221,0.00000359,0.0000025
 2,-0.00000858,0.00001256,0.00000626,-0.00000240,0.00001397,0.00000714,
 -0.00000733,-0.00004815,-0.00003050,0.00004015,0.00027133,0.00039326,0
 .00008774,0.00010059,-0.00006920,0.00008516,0.00004253,0.00000833,-0.0
 0001026,0.00229044,0.00638428,-0.00247306,0.00302448,0.00463915,0.0047
 1118,-0.04042321,-0.07408332,-0.08681187,-0.01030157,-0.00221928,-0.01
 048739,0.00338214,0.00402537,-0.00562549,0.00109236,-0.00034422,0.0003
 9565,0.00000045,0.00000064,-0.00000009,0.00000186,0.00000150,-0.000002
 01,0.00000117,-0.00000014,0.00000028,-0.00000190,0.00000136,-0.0000011
 7,0.00000068,-0.00000068,0.00000233,-0.00000112,-0.00000117,-0.0000006
 5,-0.00000069,0.00000031,0.00000127,-0.00000040,-0.00000016,-0.0000002
 7,-0.00000080,-0.00000037,0.00000039,-0.00000040,0.00000051,0.00000069
 ,0.,0.00000021,-0.00000138,0.00000185,0.00000302,0.00000010,0.00004816
 ,-0.00001014,0.00001785,0.00000480,-0.00001061,0.00000591,0.00000807,0
 .00000343,-0.00000498,-0.00100222,-0.00295383,0.00191510,0.04239029,0.
 06764970,-0.00000816,0.00001620,-0.00000436,0.00000863,-0.00001803,0.0
 0001289,-0.00000171,0.00000580,-0.00000835,-0.00000254,0.00000362,0.00
 000275,0.00000015,-0.00000779,0.00000663,0.00000269,0.00000291,-0.0000
 1417,-0.00000131,0.00000052,0.00000658,0.00000284,-0.00004791,-0.00000
 236,-0.00011407,-0.00000203,-0.00001771,0.00006317,0.00006978,0.000001
 25,-0.00003039,-0.00002929,0.00000999,0.00000967,0.00001285,-0.0000055
 0,-0.00001452,-0.00001127,-0.00000682,0.00000478,0.00001267,0.00001843
 ,-0.00000970,-0.00001282,0.00000307,-0.00000102,-0.00000186,-0.0000039
 9,0.00000069,0.00000150,0.00000049,-0.00000104,-0.00000055,-0.00000019
 ,0.00000054,0.00000235,-0.00000170,-0.00000146,0.00000052,0.00000396,0
 .00000777,0.00000333,-0.00001524,0.00008820,-0.00002184,0.00001736,-0.
 00002495,-0.00001766,0.00000004,-0.00003458,0.00000257,-0.00004085,0.0
 0027609,-0.00027055,0.00006362,-0.00005593,0.00009888,-0.00006145,-0.0
 0003934,0.00002028,-0.00000597,-0.00065836,-0.00240606,0.00369494,0.00
 090531,-0.00141692,0.00041391,-0.10812302,-0.08706049,-0.24365441,-0.0
 1451838,-0.00369066,-0.01197129,0.00216652,-0.00546893,-0.00137129,0.0
 0163434,0.00009796,0.00057079,-0.00000132,0.00000136,0.00000051,0.0000
 0315,0.00000259,-0.00000660,0.00000081,-0.00000207,-0.00000062,-0.0000
 0980,0.00000941,-0.00000301,0.00000212,-0.00000156,0.00000669,-0.00000
 523,-0.00000275,-0.00000046,-0.00000209,-0.00000023,0.00000145,-0.0000
 0010,-0.00000082,-0.00000037,-0.00000041,-0.00000111,0.00000086,0.0000
 0065,-0.00000006,0.00000075,0.00000152,-0.00000176,-0.00000222,-0.0000
 1024,0.00000764,0.00000139,-0.00001724,-0.00001733,-0.00001073,0.00001
 013,0.00001964,-0.00000177,-0.00000857,-0.00000099,0.00000140,0.000168
 01,0.00210723,-0.00022515,0.11778637,0.09590047,0.25320147,-0.00001133
 ,0.00002132,-0.00000594,0.00001242,-0.00002489,0.00001736,-0.00000129,
 0.00000761,-0.00001121,-0.00000601,0.00000315,0.00000305,-0.00000048,-
 0.00001007,0.00000810,0.00000236,0.00000252,-0.00001742,-0.00000236,0.
 00000038,0.00000829,0.00000407,-0.00005255,-0.00000197,-0.00014175,-0.
 00001609,-0.00001698,0.00008680,0.00010216,-0.00000430,-0.00004100,-0.
 00004629,0.00001751,0.00001510,0.00002044,-0.00000823,-0.00002186,-0.0
 0001843,-0.00001055,0.00000813,0.00001882,0.00002867,-0.00001462,-0.00
 002009,0.00000478,-0.00000164,-0.00000260,-0.00000648,0.00000113,0.000
 00186,0.00000073,-0.00000129,-0.00000131,-0.00000023,0.00000123,0.0000
 0327,-0.00000247,-0.00000132,0.00000086,0.00000639,0.00001115,0.000005
 23,-0.00002318,0.00009669,0.00001895,0.00003994,-0.00004146,-0.0000250
 3,-0.00004254,0.00000839,0.00000913,0.00003014,0.00011157,-0.00023760,
 0.00026751,-0.00010091,0.00000588,-0.00003569,0.00003102,-0.00000977,-
 0.00000698,0.00018412,-0.00000495,0.00033336,0.00049586,0.00269767,0.0
 0218718,-0.01089642,0.00135899,-0.00464165,-0.31753293,0.05284468,-0.0
 1897747,-0.01313500,-0.00350403,-0.01011233,0.00259164,0.00080566,-0.0
 0185607,-0.00000094,0.00000192,0.00000044,0.00000540,0.00000461,-0.000
 00813,0.00000194,-0.00000219,-0.00000065,-0.00001286,0.00001056,-0.000
 00410,0.00000289,-0.00000272,0.00001045,-0.00000637,-0.00000386,-0.000
 00100,-0.00000273,0.00000016,0.00000278,-0.00000051,-0.00000107,-0.000
 00063,-0.00000103,-0.00000153,0.00000140,0.00000070,0.00000034,0.00000
 114,0.00000174,-0.00000214,-0.00000334,-0.00000541,0.00001083,0.000000
 10,0.00001463,-0.00003972,0.00000269,0.00001753,0.00002466,-0.00000973
 ,-0.00000577,-0.00000131,-0.00000233,-0.00067940,-0.00003423,-0.000219
 74,0.00036164,-0.00044751,0.00058890,0.33895919,0.00000016,-0.00000072
 ,0.00000052,-0.00000033,0.00000045,-0.00000055,-0.00000032,0.00000054,
 0.00000012,0.,-0.00000008,0.00000227,-0.00000044,0.00000105,-0.0000008
 8,0.00000222,-0.00000195,-0.00000191,-0.00000059,0.00000096,0.00000096
 ,-0.00000536,-0.00001047,-0.00000685,-0.00004091,-0.00000411,-0.000013
 62,0.00001599,0.00004991,-0.00000768,0.00000893,-0.00002543,0.00001093
 ,0.00000379,0.00000347,-0.00000254,-0.00000353,-0.00000349,-0.00000160
 ,0.00000168,0.00000235,0.00000528,-0.00000200,-0.00000374,0.00000071,-
 0.00000060,-0.00000049,-0.00000085,0.00000042,0.00000018,-0.00000014,0
 .00000007,-0.00000066,0.00000045,0.00000049,0.00000008,-0.00000030,0.0
 0000029,-0.00000038,0.00000105,0.00000172,0.00000153,-0.00000462,0.000
 00497,0.00016546,0.00009340,-0.00015873,-0.00010410,-0.00011488,0.0002
 7424,-0.00000600,0.00009568,-0.00008000,-0.00119507,0.00084924,-0.0002
 8462,-0.00000749,-0.00010343,0.00018660,-0.00007848,-0.00004802,-0.000
 57018,-0.00039895,-0.00010011,0.00216534,0.00363216,-0.00522613,0.0152
 8314,0.00363091,0.00145849,0.05304601,-0.05401629,-0.00226850,-0.01557
 901,-0.00078432,-0.00021634,-0.00011623,0.00717802,-0.00583505,0.00000
 009,0.00000022,-0.00000016,0.00000053,-0.00000068,-0.00000171,0.000000
 47,-0.00000018,0.00000026,-0.00000443,0.00000380,-0.00000116,0.0000005
 0,-0.00000144,0.00000139,-0.00000076,-0.00000110,-0.00000046,-0.000000
 76,0.00000081,0.00000029,-0.00000038,0.00000002,-0.00000007,-0.0000004
 7,0.,0.00000015,-0.00000043,0.00000026,0.00000035,-0.00000020,0.000000
 33,-0.00000075,0.00001359,-0.00000395,0.00000777,0.00000426,0.00001577
 ,-0.00002557,-0.00001201,-0.00001045,-0.00000422,-0.00000589,-0.000003
 86,0.00000526,0.00069347,-0.00030284,0.00028669,-0.00083374,-0.0020702
 6,0.00137698,-0.05366777,0.04386587,-0.00000163,0.00000324,-0.00000091
 ,0.00000166,-0.00000361,0.00000281,-0.00000086,0.00000197,-0.00000153,
 0.00000034,0.00000020,0.00000072,-0.00000052,-0.00000064,0.00000099,0.
 00000027,0.00000041,-0.00000327,-0.00000022,-0.00000020,0.00000176,0.0
 0000229,-0.00000793,0.00000181,-0.00001391,0.00000574,0.00000527,0.000
 01131,0.00000079,0.00000241,-0.00001154,0.00000145,0.00000082,0.000001
 44,0.00000209,-0.00000128,-0.00000265,-0.00000189,-0.00000147,0.000000
 87,0.00000273,0.00000302,-0.00000180,-0.00000221,0.00000069,-0.0000000
 9,-0.00000035,-0.00000081,0.00000009,0.00000036,0.00000029,-0.00000035
 ,-0.00000011,-0.00000024,0.00000010,0.00000065,-0.00000011,-0.00000053
 ,0.,0.00000053,0.00000147,0.00000042,-0.00000254,0.00002041,-0.0000546
 0,-0.00003778,0.00002650,0.00009044,0.00006595,-0.00020087,-0.00008150
 ,-0.00005425,0.00003517,0.00085003,-0.00016505,0.00012683,-0.00004322,
 0.00006290,-0.00004896,0.00006177,0.00004185,-0.00021472,-0.00020275,-
 0.00083053,0.00117468,-0.00486600,-0.00150431,0.02096324,-0.00461304,0
 .00672304,-0.01861433,-0.00204899,-0.05238709,-0.03194522,0.00442777,-
 0.00938692,-0.00387247,-0.00515098,-0.00070142,-0.00000022,0.00000017,
 0.00000011,0.00000016,0.00000038,-0.00000168,0.00000016,-0.00000052,-0
 .00000016,-0.00000082,0.00000096,-0.00000023,0.00000028,-0.00000027,0.
 00000105,-0.00000110,-0.00000033,0.00000006,-0.00000030,-0.00000032,0.
 00000036,0.00000003,-0.00000021,-0.00000002,0.00000007,-0.00000019,0.0
 0000020,0.00000020,-0.00000015,0.00000005,0.00000030,-0.00000045,-0.00
 000034,-0.00001576,0.00000552,-0.00000710,-0.00000692,0.00004840,0.000
 00704,0.00003409,0.00005471,0.00000057,0.00000483,0.00000138,-0.000003
 71,0.00119296,-0.00003366,0.00007285,-0.00013471,0.00159043,-0.0001301
 3,0.03245369,0.01004836,0.05821767,0.00000956,-0.00001833,0.00000518,-
 0.00000993,0.00002025,-0.00001496,0.00000217,-0.00000781,0.00000932,0.
 00000377,-0.00000254,-0.00000232,0.00000154,0.00000910,-0.00000787,-0.
 00000327,-0.00000344,0.00001875,0.00000162,0.00000046,-0.00000952,0.00
 000160,0.00005421,-0.00000109,0.00012449,-0.00000245,0.00002737,-0.000
 08594,-0.00009477,0.00000656,0.00004213,0.00004331,-0.00001994,-0.0000
 1326,-0.00001835,0.00000767,0.00002018,0.00001634,0.00001067,-0.000009
 66,-0.00001927,-0.00002561,0.00001387,0.00002015,-0.00000475,0.0000016
 9,0.00000238,0.00000582,-0.00000087,-0.00000142,-0.00000134,0.00000141
 ,0.00000179,0.00000078,-0.00000159,-0.00000347,0.00000216,0.00000123,-
 0.00000056,-0.00000609,-0.00000980,-0.00000446,0.00002152,-0.00008814,
 -0.00011620,-0.00012504,0.00013833,0.00001506,0.00003469,0.00004477,0.
 00006021,-0.00011111,0.00057571,-0.00033866,0.00056957,-0.00056143,-0.
 00011375,0.00042798,-0.00025273,0.00006331,-0.00016753,0.00903423,0.00
 649431,0.01397562,-0.00187672,0.00276755,0.00195440,-0.00059227,-0.000
 03543,-0.00024181,-0.00374847,0.00225459,-0.00185072,-0.02383025,-0.01
 121836,-0.02964756,-0.08419311,-0.03180445,-0.08288867,0.00000095,-0.0
 0000174,-0.00000044,-0.00000556,-0.00000351,0.00000908,-0.00000118,0.0
 0000201,0.00000046,0.00001518,-0.00001063,0.00000373,-0.00000424,0.000
 00436,-0.00001265,0.00000626,0.00000361,0.00000104,0.00000315,-0.00000
 042,-0.00000266,0.00000071,0.00000094,0.00000030,0.00000078,0.00000109
 ,-0.00000107,-0.00000047,-0.00000017,-0.00000072,-0.00000138,0.0000019
 8,0.00000307,0.00000385,-0.00001350,0.00000827,0.00000768,-0.00005203,
 0.00001744,-0.00104415,-0.00032320,0.00043076,-0.00001898,-0.00001600,
 0.00005660,0.00049084,0.00030342,0.00096124,0.00011349,-0.00043471,-0.
 00003759,-0.00036066,-0.00033927,-0.00096296,0.10605286,-0.00000313,0.
 00000505,-0.00000059,0.00000397,-0.00000716,0.00000614,-0.00000113,0.0
 0000464,-0.00000472,-0.00000115,-0.00000138,0.00000664,-0.00000420,0.0
 0000070,-0.00000033,0.00000309,-0.00000828,-0.00000606,-0.00000198,0.0
 0000117,0.00000113,-0.00000889,0.00000232,-0.00001600,0.00000574,0.000
 00855,-0.00003630,0.00003792,0.00004788,-0.00001680,-0.00000528,-0.000
 02571,0.00001942,0.00000772,0.00000905,-0.00000684,-0.00000888,-0.0000
 0967,-0.00000313,0.00000399,0.00000648,0.00001337,-0.00000523,-0.00000
 905,0.00000228,-0.00000142,-0.00000150,-0.00000240,0.00000094,0.000000
 64,-0.00000028,-0.00000003,-0.00000129,0.00000099,0.00000091,0.0000004
 7,-0.00000055,0.00000040,-0.00000044,0.00000253,0.00000420,0.00000323,
 -0.00001119,0.00004737,0.00047709,0.00023353,-0.00051257,-0.00015323,-
 0.00024734,0.00084359,-0.00059588,-0.00007367,-0.00256037,-0.00150346,
 0.00067970,-0.00062944,0.00021742,0.00048799,0.00052401,-0.00036498,0.
 00015402,-0.00453530,0.00068119,-0.01352592,0.00297567,0.00349685,-0.0
 0405001,0.00072238,-0.00051393,0.00022404,0.00306019,0.00897174,-0.002
 40219,0.00015770,-0.00020569,0.00815233,-0.03189259,-0.08023400,-0.090
 39535,-0.00000037,0.00000086,-0.00000002,0.00000426,0.00000139,-0.0000
 0428,0.00000219,-0.00000136,0.00000046,-0.00000525,0.00000454,-0.00000
 089,0.00000042,-0.00000868,0.00000517,-0.00000041,-0.00000151,-0.00000
 089,0.00000055,0.00000123,0.00000191,-0.00000085,-0.00000012,-0.000000
 22,-0.00000100,-0.00000031,0.00000059,-0.00000059,0.00000044,0.0000008
 1,-0.00000017,0.00000045,-0.00000163,0.00001111,-0.00000502,-0.0000006
 5,0.00001226,0.00001825,0.00001829,-0.00051679,0.00024804,-0.00008211,
 -0.00001240,0.00000285,0.00001018,-0.00039632,-0.00051004,-0.00051684,
 -0.00037938,-0.00132331,0.00073629,0.00019611,0.00048282,-0.00008625,0
 .03285846,0.07079067,-0.00001007,0.00001958,-0.00000463,0.00001007,-0.
 00002169,0.00001642,-0.00000358,0.00001016,-0.00001155,-0.00000132,0.0
 0000348,0.00000896,-0.00000101,-0.00000753,0.00000531,0.00000244,0.000
 00263,-0.00002202,-0.00000219,0.00000150,0.00001105,-0.00000078,-0.000
 04902,0.00000988,-0.00008550,0.00007223,0.00000518,0.00008616,0.000009
 35,0.00000206,-0.00007460,0.00000850,0.00001488,0.00001179,0.00001858,
 -0.00001044,-0.00001892,-0.00001488,-0.00000794,0.00000417,0.00001559,
 0.00002564,-0.00001213,-0.00001494,0.00000412,-0.00000126,-0.00000291,
 -0.00000539,0.00000130,0.00000268,-0.00000006,-0.00000138,-0.00000051,
 0.00000076,0.00000041,0.00000274,-0.00000264,-0.00000271,-0.00000015,0
 .00000434,0.00001213,0.00000528,-0.00002137,0.00007649,-0.00003227,-0.
 00008857,-0.00007547,0.00009998,0.00006288,0.00017225,-0.00012723,0.00
 015500,-0.00056697,0.00119448,-0.00025990,0.00019635,-0.00098833,0.000
 04399,0.00001695,0.00044125,0.00029064,-0.01111474,-0.00758788,-0.0123
 4140,0.00305828,-0.00404369,-0.00004956,0.00049341,0.00027384,0.000114
 82,0.00019529,-0.00316605,0.00458795,-0.00763697,0.00353328,-0.0002738
 2,-0.08212883,-0.09148142,-0.25596605,-0.00000175,0.00000184,0.0000001
 7,0.00000377,0.00000307,-0.00001124,0.00000162,-0.00000299,-0.00000063
 ,-0.00001092,0.00000923,-0.00000178,0.00000103,-0.00000306,0.00001045,
 -0.00000740,-0.00000288,-0.00000053,-0.00000244,-0.00000105,0.00000234
 ,0.00000008,-0.00000108,-0.00000042,-0.00000063,-0.00000159,0.00000121
 ,0.00000040,-0.00000028,0.00000154,0.00000205,-0.00000195,-0.00000352,
 0.00001908,0.00001272,-0.00001413,-0.00004447,0.00013655,-0.00002060,0
 .00023463,0.00078365,0.00019625,0.00004538,-0.00002379,0.00002624,-0.0
 0055219,-0.00022830,-0.00083002,0.00012211,0.00066615,-0.00047454,0.00
 001671,-0.00025850,0.00000806,0.09757396,0.10073563,0.26481262\\-0.000
 00121,0.00000239,-0.00000374,0.00000571,-0.00000968,-0.00000361,-0.000
 00062,0.00000147,-0.00000091,-0.00000116,0.00000289,0.00000165,-0.0000
 0003,0.00000259,-0.00000717,0.00000302,-0.00000659,0.00000430,-0.00000
 562,0.00001096,-0.00000334,-0.00000058,0.00000250,-0.00000281,-0.00000
 069,-0.00000574,0.00000372,-0.00000074,0.00000633,-0.00000438,0.000001
 23,-0.00000433,0.00000320,0.00000611,-0.00000107,0.00000469,-0.0000058
 2,-0.00000428,-0.00001405,0.00000836,0.00001006,0.00001240,-0.00000663
 ,-0.00000927,0.00000003,0.00000290,0.00000388,0.00000228,-0.00000047,0
 .00000040,0.00000693,-0.00000060,-0.00000008,-0.00000183,0.00000248,0.
 00000439,0.00000054,-0.00000119,0.,0.00000305,-0.00000222,-0.00000551,
 0.00000492,-0.00000359,-0.00000240,-0.00000305,0.00000263,-0.00000082,
 -0.00000053,-0.00000103,-0.00000107,-0.00000131,0.00000282,-0.00000149
 ,-0.00000120,0.00000245,0.00000170,0.00000143,-0.00000126,0.00000264,0
 .00000104,-0.00000487,0.00000036,-0.00000001,0.00000011,-0.00000017,-0
 .00000400,0.00000308,0.00000006,-0.00000128,-0.00000385,-0.00000007,-0
 .00000157,0.00000053,-0.00000092,-0.00000127,0.00000321,-0.00000129,0.
 00000297,-0.00000004,0.00000248,-0.00000170,0.00000104,-0.00000103,0.0
 0000048,0.00000040,-0.00000136,-0.00000277,-0.00000182,-0.00000283,-0.
 00000151,0.00000180,-0.00000058,-0.00000119,-0.00000156,0.00000148,0.0
 0000069,-0.00000067,-0.00000042,-0.00000229,-0.00000118,-0.00000143,0.
 00000257,-0.00000066,0.00000057,0.00000504,-0.00000015,0.00000153,0.00
 000399,0.00000152,0.00000263,0.00000110,-0.00000088,0.00000229,-0.0000
 0105,0.00000073,0.00000204,-0.00000004,-0.00000072,-0.00000292,0.00000
 013,-0.00000106,-0.00000319,0.00000019,-0.00000065,0.00000207,0.000000
 87,-0.00000010,0.00000227,0.00000086,0.00000274,-0.00000034,-0.0000003
 5,-0.00000119,-0.00000109,-0.00000211\\\@


 THERE'S SMALL CHOICE IN A BOWL OF ROTTEN APPLES.
                     SHAKESPEARE
 Job cpu time:  0 days 19 hours 57 minutes 32.7 seconds.
 File lengths (MBytes):  RWF=   1848 Int=      0 D2E=      0 Chk=     25 Scr=      1
 Normal termination of Gaussian 09 at Wed Sep  7 13:44:58 2022.
