 Entering Gaussian System, Link 0=g09
 Input=Mol37.gjf
 Output=Mol37.log
 Initial command:
 /opt/gaussian/l1.exe /home/scr/lqcapf-6/Gau-317410.inp -scrdir=/home/scr/lqcapf-6/
 Entering Link 1 = /opt/gaussian/l1.exe PID=    317412.
  
 Copyright (c) 1988,1990,1992,1993,1995,1998,2003,2009,2011,
            Gaussian, Inc.  All Rights Reserved.
  
 This is part of the Gaussian(R) 09 program.  It is based on
 the Gaussian(R) 03 system (copyright 2003, Gaussian, Inc.),
 the Gaussian(R) 98 system (copyright 1998, Gaussian, Inc.),
 the Gaussian(R) 94 system (copyright 1995, Gaussian, Inc.),
 the Gaussian 92(TM) system (copyright 1992, Gaussian, Inc.),
 the Gaussian 90(TM) system (copyright 1990, Gaussian, Inc.),
 the Gaussian 88(TM) system (copyright 1988, Gaussian, Inc.),
 the Gaussian 86(TM) system (copyright 1986, Carnegie Mellon
 University), and the Gaussian 82(TM) system (copyright 1983,
 Carnegie Mellon University). Gaussian is a federally registered
 trademark of Gaussian, Inc.
  
 This software contains proprietary and confidential information,
 including trade secrets, belonging to Gaussian, Inc.
  
 This software is provided under written license and may be
 used, copied, transmitted, or stored only in accord with that
 written license.
  
 The following legend is applicable only to US Government
 contracts under FAR:
  
                    RESTRICTED RIGHTS LEGEND
  
 Use, reproduction and disclosure by the US Government is
 subject to restrictions as set forth in subparagraphs (a)
 and (c) of the Commercial Computer Software - Restricted
 Rights clause in FAR 52.227-19.
  
 Gaussian, Inc.
 340 Quinnipiac St., Bldg. 40, Wallingford CT 06492
  
  
 ---------------------------------------------------------------
 Warning -- This program may not be used in any manner that
 competes with the business of Gaussian, Inc. or will provide
 assistance to any competitor of Gaussian, Inc.  The licensee
 of this program is prohibited from giving any competitor of
 Gaussian, Inc. access to this program.  By using this program,
 the user acknowledges that Gaussian, Inc. is engaged in the
 business of creating and licensing software in the field of
 computational chemistry and represents and warrants to the
 licensee that it is not a competitor of Gaussian, Inc. and that
 it will not use this program in any manner prohibited above.
 ---------------------------------------------------------------
  

 Cite this work as:
 Gaussian 09, Revision C.01,
 M. J. Frisch, G. W. Trucks, H. B. Schlegel, G. E. Scuseria, 
 M. A. Robb, J. R. Cheeseman, G. Scalmani, V. Barone, B. Mennucci, 
 G. A. Petersson, H. Nakatsuji, M. Caricato, X. Li, H. P. Hratchian, 
 A. F. Izmaylov, J. Bloino, G. Zheng, J. L. Sonnenberg, M. Hada, 
 M. Ehara, K. Toyota, R. Fukuda, J. Hasegawa, M. Ishida, T. Nakajima, 
 Y. Honda, O. Kitao, H. Nakai, T. Vreven, J. A. Montgomery, Jr., 
 J. E. Peralta, F. Ogliaro, M. Bearpark, J. J. Heyd, E. Brothers, 
 K. N. Kudin, V. N. Staroverov, T. Keith, R. Kobayashi, J. Normand, 
 K. Raghavachari, A. Rendell, J. C. Burant, S. S. Iyengar, J. Tomasi, 
 M. Cossi, N. Rega, J. M. Millam, M. Klene, J. E. Knox, J. B. Cross, 
 V. Bakken, C. Adamo, J. Jaramillo, R. Gomperts, R. E. Stratmann, 
 O. Yazyev, A. J. Austin, R. Cammi, C. Pomelli, J. W. Ochterski, 
 R. L. Martin, K. Morokuma, V. G. Zakrzewski, G. A. Voth, 
 P. Salvador, J. J. Dannenberg, S. Dapprich, A. D. Daniels, 
 O. Farkas, J. B. Foresman, J. V. Ortiz, J. Cioslowski, 
 and D. J. Fox, Gaussian, Inc., Wallingford CT, 2010.
 
 ******************************************
 Gaussian 09:  EM64L-G09RevC.01 23-Sep-2011
                 8-Sep-2022 
 ******************************************
 %nprocshared=8
 Will use up to    8 processors via shared memory.
 %mem=1600MB
 -------------------------
 #p opt freq b3lyp/cc-pvdz
 -------------------------
 1/14=-1,18=20,19=15,26=3,38=1/1,3;
 2/9=110,12=2,17=6,18=5,40=1/2;
 3/5=16,11=2,16=1,25=1,30=1,71=1,74=-5/1,2,3;
 4//1;
 5/5=2,38=5/2;
 6/7=2,8=2,9=2,10=2,28=1/1;
 7//1,2,3,16;
 1/14=-1,18=20,19=15/3(2);
 2/9=110/2;
 99//99;
 2/9=110/2;
 3/5=16,11=2,16=1,25=1,30=1,71=1,74=-5/1,2,3;
 4/5=5,16=3/1;
 5/5=2,38=5/2;
 7//1,2,3,16;
 1/14=-1,18=20,19=15/3(-5);
 2/9=110/2;
 6/7=2,8=2,9=2,10=2,19=2,28=1/1;
 99/9=1/99;
 Leave Link    1 at Thu Sep  8 03:20:25 2022, MaxMem=  209715200 cpu:       0.2
 (Enter /opt/gaussian/l101.exe)
 ---------
 Mol37.log
 ---------
 Charge =  0 Multiplicity = 1
 Symbolic Z-Matrix:
 C                    -4.47287   0.22711   0.31093 
 C                    -5.1136    1.28704  -0.31955 
 C                    -5.14236  -0.96463   0.60878 
 C                    -6.46065   1.21728  -0.67679 
 C                    -6.46977  -1.02093   0.25797 
 C                    -7.12893   0.05669  -0.37723 
 N                    -3.19643   0.6769    0.50607 
 N                    -4.19401   2.31071  -0.47681 
 N                    -3.08182   1.9438    0.01133 
 C                    -2.06982   0.06961   1.17714 
 C                    -1.49013  -1.06031   0.34012 
 N                    -0.31541  -0.88139  -0.30723 
 O                    -2.12857  -2.1137    0.26259 
 C                     0.16494  -1.95504  -1.20356 
 C                     3.35307  -3.72406  -0.18433 
 C                     2.90449  -4.70576   0.67169 
 C                     2.49055  -2.83426  -0.79382 
 C                     1.54029  -4.79326   0.92025 
 C                     1.12561  -2.92007  -0.54158 
 C                     0.65663  -3.91127   0.31967 
 Cl                    5.12833  -3.59402  -0.52418 
 C                     2.34376   1.43643   0.86748 
 C                     2.16738   2.53576   0.02667 
 C                     1.52085   0.32612   0.77261 
 C                     1.14305   2.48299  -0.9196 
 C                     0.50853   0.28711  -0.17705 
 C                     0.32689   1.36985  -1.02639 
 C                     3.03123   3.71883   0.13119 
 C                     3.62713   4.23796   1.2527 
 C                     3.4392    4.59131  -0.91674 
 N                     4.32263   5.3265    0.86096 
 N                     4.21471   5.54831  -0.46619 
 H                    -4.63454  -1.79673   1.04852 
 H                    -6.93835   2.044    -1.16255 
 H                    -7.02538  -1.91557   0.4622 
 H                    -8.16552  -0.04587  -0.63107 
 H                    -1.36553   0.85502   1.37885 
 H                    -2.40093  -0.36255   2.11064 
 H                    -0.70254  -2.48511  -1.56182 
 H                     0.64279  -1.47395  -2.04446 
 H                     3.59465  -5.38504   1.12827 
 H                     2.87747  -2.08508  -1.45504 
 H                     1.17172  -5.55548   1.57868 
 H                    -0.39566  -3.98421   0.51077 
 H                     3.14153   1.43714   1.58435 
 H                     1.67257  -0.51494   1.42014 
 H                     0.96551   3.32451  -1.55947 
 H                    -0.46627   1.35128  -1.74727 
 H                     3.58644   3.92656   2.27116 
 H                     3.20519   4.53059  -1.95447 
 H                     4.86318   5.94265   1.41271 
 
 NAtoms=     51 NQM=        0 NQMF=       0 NMMI=     51 NMMIF=      0
                NMic=       0 NMicF=      0.
                    Isotopes and Nuclear Properties:
 (Nuclear quadrupole moments (NQMom) in fm**2, nuclear magnetic moments (NMagM)
  in nuclear magnetons)

  Atom         1           2           3           4           5           6           7           8           9          10
 IAtWgt=          12          12          12          12          12          12          14          14          14          12
 AtmWgt=  12.0000000  12.0000000  12.0000000  12.0000000  12.0000000  12.0000000  14.0030740  14.0030740  14.0030740  12.0000000
 NucSpn=           0           0           0           0           0           0           2           2           2           0
 AtZEff=   0.0000000   0.0000000   0.0000000   0.0000000   0.0000000   0.0000000   0.0000000   0.0000000   0.0000000   0.0000000
 NQMom=    0.0000000   0.0000000   0.0000000   0.0000000   0.0000000   0.0000000   2.0440000   2.0440000   2.0440000   0.0000000
 NMagM=    0.0000000   0.0000000   0.0000000   0.0000000   0.0000000   0.0000000   0.4037610   0.4037610   0.4037610   0.0000000

  Atom        11          12          13          14          15          16          17          18          19          20
 IAtWgt=          12          14          16          12          12          12          12          12          12          12
 AtmWgt=  12.0000000  14.0030740  15.9949146  12.0000000  12.0000000  12.0000000  12.0000000  12.0000000  12.0000000  12.0000000
 NucSpn=           0           2           0           0           0           0           0           0           0           0
 AtZEff=   0.0000000   0.0000000   0.0000000   0.0000000   0.0000000   0.0000000   0.0000000   0.0000000   0.0000000   0.0000000
 NQMom=    0.0000000   2.0440000   0.0000000   0.0000000   0.0000000   0.0000000   0.0000000   0.0000000   0.0000000   0.0000000
 NMagM=    0.0000000   0.4037610   0.0000000   0.0000000   0.0000000   0.0000000   0.0000000   0.0000000   0.0000000   0.0000000

  Atom        21          22          23          24          25          26          27          28          29          30
 IAtWgt=          35          12          12          12          12          12          12          12          12          12
 AtmWgt=  34.9688527  12.0000000  12.0000000  12.0000000  12.0000000  12.0000000  12.0000000  12.0000000  12.0000000  12.0000000
 NucSpn=           3           0           0           0           0           0           0           0           0           0
 AtZEff=   0.0000000   0.0000000   0.0000000   0.0000000   0.0000000   0.0000000   0.0000000   0.0000000   0.0000000   0.0000000
 NQMom=   -8.1650000   0.0000000   0.0000000   0.0000000   0.0000000   0.0000000   0.0000000   0.0000000   0.0000000   0.0000000
 NMagM=    0.8218740   0.0000000   0.0000000   0.0000000   0.0000000   0.0000000   0.0000000   0.0000000   0.0000000   0.0000000

  Atom        31          32          33          34          35          36          37          38          39          40
 IAtWgt=          14          14           1           1           1           1           1           1           1           1
 AtmWgt=  14.0030740  14.0030740   1.0078250   1.0078250   1.0078250   1.0078250   1.0078250   1.0078250   1.0078250   1.0078250
 NucSpn=           2           2           1           1           1           1           1           1           1           1
 AtZEff=   0.0000000   0.0000000   0.0000000   0.0000000   0.0000000   0.0000000   0.0000000   0.0000000   0.0000000   0.0000000
 NQMom=    2.0440000   2.0440000   0.0000000   0.0000000   0.0000000   0.0000000   0.0000000   0.0000000   0.0000000   0.0000000
 NMagM=    0.4037610   0.4037610   2.7928460   2.7928460   2.7928460   2.7928460   2.7928460   2.7928460   2.7928460   2.7928460

  Atom        41          42          43          44          45          46          47          48          49          50
 IAtWgt=           1           1           1           1           1           1           1           1           1           1
 AtmWgt=   1.0078250   1.0078250   1.0078250   1.0078250   1.0078250   1.0078250   1.0078250   1.0078250   1.0078250   1.0078250
 NucSpn=           1           1           1           1           1           1           1           1           1           1
 AtZEff=   0.0000000   0.0000000   0.0000000   0.0000000   0.0000000   0.0000000   0.0000000   0.0000000   0.0000000   0.0000000
 NQMom=    0.0000000   0.0000000   0.0000000   0.0000000   0.0000000   0.0000000   0.0000000   0.0000000   0.0000000   0.0000000
 NMagM=    2.7928460   2.7928460   2.7928460   2.7928460   2.7928460   2.7928460   2.7928460   2.7928460   2.7928460   2.7928460

  Atom        51
 IAtWgt=           1
 AtmWgt=   1.0078250
 NucSpn=           1
 AtZEff=   0.0000000
 NQMom=    0.0000000
 NMagM=    2.7928460
 Leave Link  101 at Thu Sep  8 03:20:25 2022, MaxMem=  209715200 cpu:       0.9
 (Enter /opt/gaussian/l103.exe)

 GradGradGradGradGradGradGradGradGradGradGradGradGradGradGradGradGradGrad
 Berny optimization.
 Initialization pass.
                           ----------------------------
                           !    Initial Parameters    !
                           ! (Angstroms and Degrees)  !
 --------------------------                            --------------------------
 ! Name  Definition              Value          Derivative Info.                !
 --------------------------------------------------------------------------------
 ! R1    R(1,2)                  1.3898         estimate D2E/DX2                !
 ! R2    R(1,3)                  1.399          estimate D2E/DX2                !
 ! R3    R(1,7)                  1.3674         estimate D2E/DX2                !
 ! R4    R(2,4)                  1.3954         estimate D2E/DX2                !
 ! R5    R(2,8)                  1.385          estimate D2E/DX2                !
 ! R6    R(3,5)                  1.3741         estimate D2E/DX2                !
 ! R7    R(3,33)                 1.0694         estimate D2E/DX2                !
 ! R8    R(4,6)                  1.3723         estimate D2E/DX2                !
 ! R9    R(4,34)                 1.0713         estimate D2E/DX2                !
 ! R10   R(5,6)                  1.4139         estimate D2E/DX2                !
 ! R11   R(5,35)                 1.0728         estimate D2E/DX2                !
 ! R12   R(6,36)                 1.0721         estimate D2E/DX2                !
 ! R13   R(7,9)                  1.3649         estimate D2E/DX2                !
 ! R14   R(7,10)                 1.4451         estimate D2E/DX2                !
 ! R15   R(8,9)                  1.2688         estimate D2E/DX2                !
 ! R16   R(10,11)                1.521          estimate D2E/DX2                !
 ! R17   R(10,37)                1.074          estimate D2E/DX2                !
 ! R18   R(10,38)                1.0807         estimate D2E/DX2                !
 ! R19   R(11,12)                1.3532         estimate D2E/DX2                !
 ! R20   R(11,13)                1.2342         estimate D2E/DX2                !
 ! R21   R(12,14)                1.4788         estimate D2E/DX2                !
 ! R22   R(12,26)                1.4357         estimate D2E/DX2                !
 ! R23   R(14,19)                1.5141         estimate D2E/DX2                !
 ! R24   R(14,39)                1.0779         estimate D2E/DX2                !
 ! R25   R(14,40)                1.0802         estimate D2E/DX2                !
 ! R26   R(15,16)                1.3776         estimate D2E/DX2                !
 ! R27   R(15,17)                1.381          estimate D2E/DX2                !
 ! R28   R(15,21)                1.8122         estimate D2E/DX2                !
 ! R29   R(16,18)                1.3894         estimate D2E/DX2                !
 ! R30   R(16,41)                1.0706         estimate D2E/DX2                !
 ! R31   R(17,19)                1.3907         estimate D2E/DX2                !
 ! R32   R(17,42)                1.0715         estimate D2E/DX2                !
 ! R33   R(18,20)                1.3854         estimate D2E/DX2                !
 ! R34   R(18,43)                1.0725         estimate D2E/DX2                !
 ! R35   R(19,20)                1.3943         estimate D2E/DX2                !
 ! R36   R(20,44)                1.072          estimate D2E/DX2                !
 ! R37   R(22,23)                1.3952         estimate D2E/DX2                !
 ! R38   R(22,24)                1.3853         estimate D2E/DX2                !
 ! R39   R(22,45)                1.0725         estimate D2E/DX2                !
 ! R40   R(23,25)                1.3955         estimate D2E/DX2                !
 ! R41   R(23,28)                1.4686         estimate D2E/DX2                !
 ! R42   R(24,26)                1.3886         estimate D2E/DX2                !
 ! R43   R(24,46)                1.0722         estimate D2E/DX2                !
 ! R44   R(25,27)                1.3844         estimate D2E/DX2                !
 ! R45   R(25,47)                1.072          estimate D2E/DX2                !
 ! R46   R(26,27)                1.3881         estimate D2E/DX2                !
 ! R47   R(27,48)                1.072          estimate D2E/DX2                !
 ! R48   R(28,29)                1.372          estimate D2E/DX2                !
 ! R49   R(28,30)                1.4233         estimate D2E/DX2                !
 ! R50   R(29,31)                1.3499         estimate D2E/DX2                !
 ! R51   R(29,49)                1.0658         estimate D2E/DX2                !
 ! R52   R(30,32)                1.3116         estimate D2E/DX2                !
 ! R53   R(30,50)                1.0655         estimate D2E/DX2                !
 ! R54   R(31,32)                1.3499         estimate D2E/DX2                !
 ! R55   R(31,51)                0.9881         estimate D2E/DX2                !
 ! A1    A(2,1,3)              121.711          estimate D2E/DX2                !
 ! A2    A(2,1,7)              104.1369         estimate D2E/DX2                !
 ! A3    A(3,1,7)              134.1517         estimate D2E/DX2                !
 ! A4    A(1,2,4)              121.5393         estimate D2E/DX2                !
 ! A5    A(1,2,8)              108.0044         estimate D2E/DX2                !
 ! A6    A(4,2,8)              130.4549         estimate D2E/DX2                !
 ! A7    A(1,3,5)              116.2844         estimate D2E/DX2                !
 ! A8    A(1,3,33)             121.542          estimate D2E/DX2                !
 ! A9    A(5,3,33)             122.1277         estimate D2E/DX2                !
 ! A10   A(2,4,6)              117.1615         estimate D2E/DX2                !
 ! A11   A(2,4,34)             120.5299         estimate D2E/DX2                !
 ! A12   A(6,4,34)             122.3085         estimate D2E/DX2                !
 ! A13   A(3,5,6)              122.2623         estimate D2E/DX2                !
 ! A14   A(3,5,35)             119.0704         estimate D2E/DX2                !
 ! A15   A(6,5,35)             118.6641         estimate D2E/DX2                !
 ! A16   A(4,6,5)              121.0369         estimate D2E/DX2                !
 ! A17   A(4,6,36)             120.0026         estimate D2E/DX2                !
 ! A18   A(5,6,36)             118.9592         estimate D2E/DX2                !
 ! A19   A(1,7,9)              109.3893         estimate D2E/DX2                !
 ! A20   A(1,7,10)             130.9795         estimate D2E/DX2                !
 ! A21   A(9,7,10)             119.5328         estimate D2E/DX2                !
 ! A22   A(2,8,9)              108.9404         estimate D2E/DX2                !
 ! A23   A(7,9,8)              109.5277         estimate D2E/DX2                !
 ! A24   A(7,10,11)            110.7178         estimate D2E/DX2                !
 ! A25   A(7,10,37)            106.9247         estimate D2E/DX2                !
 ! A26   A(7,10,38)            109.2883         estimate D2E/DX2                !
 ! A27   A(11,10,37)           113.3708         estimate D2E/DX2                !
 ! A28   A(11,10,38)           107.1618         estimate D2E/DX2                !
 ! A29   A(37,10,38)           109.3368         estimate D2E/DX2                !
 ! A30   A(10,11,12)           119.7301         estimate D2E/DX2                !
 ! A31   A(10,11,13)           118.13           estimate D2E/DX2                !
 ! A32   A(12,11,13)           122.1324         estimate D2E/DX2                !
 ! A33   A(11,12,14)           118.4217         estimate D2E/DX2                !
 ! A34   A(11,12,26)           124.2258         estimate D2E/DX2                !
 ! A35   A(14,12,26)           117.3516         estimate D2E/DX2                !
 ! A36   A(12,14,19)           113.8187         estimate D2E/DX2                !
 ! A37   A(12,14,39)           107.282          estimate D2E/DX2                !
 ! A38   A(12,14,40)           106.9882         estimate D2E/DX2                !
 ! A39   A(19,14,39)           110.0305         estimate D2E/DX2                !
 ! A40   A(19,14,40)           110.0925         estimate D2E/DX2                !
 ! A41   A(39,14,40)           108.4386         estimate D2E/DX2                !
 ! A42   A(16,15,17)           122.0072         estimate D2E/DX2                !
 ! A43   A(16,15,21)           119.1219         estimate D2E/DX2                !
 ! A44   A(17,15,21)           118.8709         estimate D2E/DX2                !
 ! A45   A(15,16,18)           118.4089         estimate D2E/DX2                !
 ! A46   A(15,16,41)           120.4799         estimate D2E/DX2                !
 ! A47   A(18,16,41)           121.1106         estimate D2E/DX2                !
 ! A48   A(15,17,19)           119.5503         estimate D2E/DX2                !
 ! A49   A(15,17,42)           119.8216         estimate D2E/DX2                !
 ! A50   A(19,17,42)           120.6281         estimate D2E/DX2                !
 ! A51   A(16,18,20)           120.5706         estimate D2E/DX2                !
 ! A52   A(16,18,43)           119.4709         estimate D2E/DX2                !
 ! A53   A(20,18,43)           119.9574         estimate D2E/DX2                !
 ! A54   A(14,19,17)           120.2726         estimate D2E/DX2                !
 ! A55   A(14,19,20)           120.647          estimate D2E/DX2                !
 ! A56   A(17,19,20)           119.0787         estimate D2E/DX2                !
 ! A57   A(18,20,19)           120.3834         estimate D2E/DX2                !
 ! A58   A(18,20,44)           120.3648         estimate D2E/DX2                !
 ! A59   A(19,20,44)           119.2518         estimate D2E/DX2                !
 ! A60   A(23,22,24)           121.0087         estimate D2E/DX2                !
 ! A61   A(23,22,45)           119.7561         estimate D2E/DX2                !
 ! A62   A(24,22,45)           119.2199         estimate D2E/DX2                !
 ! A63   A(22,23,25)           118.1407         estimate D2E/DX2                !
 ! A64   A(22,23,28)           121.1638         estimate D2E/DX2                !
 ! A65   A(25,23,28)           120.6955         estimate D2E/DX2                !
 ! A66   A(22,24,26)           120.1609         estimate D2E/DX2                !
 ! A67   A(22,24,46)           120.2178         estimate D2E/DX2                !
 ! A68   A(26,24,46)           119.6126         estimate D2E/DX2                !
 ! A69   A(23,25,27)           121.0267         estimate D2E/DX2                !
 ! A70   A(23,25,47)           119.7778         estimate D2E/DX2                !
 ! A71   A(27,25,47)           119.1775         estimate D2E/DX2                !
 ! A72   A(12,26,24)           120.2163         estimate D2E/DX2                !
 ! A73   A(12,26,27)           120.284          estimate D2E/DX2                !
 ! A74   A(24,26,27)           119.4696         estimate D2E/DX2                !
 ! A75   A(25,27,26)           120.1886         estimate D2E/DX2                !
 ! A76   A(25,27,48)           120.1327         estimate D2E/DX2                !
 ! A77   A(26,27,48)           119.6564         estimate D2E/DX2                !
 ! A78   A(23,28,29)           128.2038         estimate D2E/DX2                !
 ! A79   A(23,28,30)           127.5903         estimate D2E/DX2                !
 ! A80   A(29,28,30)           104.2058         estimate D2E/DX2                !
 ! A81   A(28,29,31)           106.959          estimate D2E/DX2                !
 ! A82   A(28,29,49)           130.8438         estimate D2E/DX2                !
 ! A83   A(31,29,49)           122.1823         estimate D2E/DX2                !
 ! A84   A(28,30,32)           111.3358         estimate D2E/DX2                !
 ! A85   A(28,30,50)           128.256          estimate D2E/DX2                !
 ! A86   A(32,30,50)           120.3973         estimate D2E/DX2                !
 ! A87   A(29,31,32)           112.1257         estimate D2E/DX2                !
 ! A88   A(29,31,51)           128.5134         estimate D2E/DX2                !
 ! A89   A(32,31,51)           119.3593         estimate D2E/DX2                !
 ! A90   A(30,32,31)           105.3733         estimate D2E/DX2                !
 ! D1    D(3,1,2,4)              0.5192         estimate D2E/DX2                !
 ! D2    D(3,1,2,8)           -179.8722         estimate D2E/DX2                !
 ! D3    D(7,1,2,4)           -179.2961         estimate D2E/DX2                !
 ! D4    D(7,1,2,8)              0.3125         estimate D2E/DX2                !
 ! D5    D(2,1,3,5)             -0.7589         estimate D2E/DX2                !
 ! D6    D(2,1,3,33)           176.8268         estimate D2E/DX2                !
 ! D7    D(7,1,3,5)            178.9915         estimate D2E/DX2                !
 ! D8    D(7,1,3,33)            -3.4228         estimate D2E/DX2                !
 ! D9    D(2,1,7,9)             -0.1686         estimate D2E/DX2                !
 ! D10   D(2,1,7,10)           176.121          estimate D2E/DX2                !
 ! D11   D(3,1,7,9)           -179.9496         estimate D2E/DX2                !
 ! D12   D(3,1,7,10)            -3.66           estimate D2E/DX2                !
 ! D13   D(1,2,4,6)              0.0996         estimate D2E/DX2                !
 ! D14   D(1,2,4,34)          -179.9817         estimate D2E/DX2                !
 ! D15   D(8,2,4,6)           -179.4113         estimate D2E/DX2                !
 ! D16   D(8,2,4,34)             0.5074         estimate D2E/DX2                !
 ! D17   D(1,2,8,9)             -0.3608         estimate D2E/DX2                !
 ! D18   D(4,2,8,9)            179.2009         estimate D2E/DX2                !
 ! D19   D(1,3,5,6)              0.4202         estimate D2E/DX2                !
 ! D20   D(1,3,5,35)           179.7572         estimate D2E/DX2                !
 ! D21   D(33,3,5,6)          -177.1501         estimate D2E/DX2                !
 ! D22   D(33,3,5,35)            2.1869         estimate D2E/DX2                !
 ! D23   D(2,4,6,5)             -0.4368         estimate D2E/DX2                !
 ! D24   D(2,4,6,36)           179.9798         estimate D2E/DX2                !
 ! D25   D(34,4,6,5)           179.646          estimate D2E/DX2                !
 ! D26   D(34,4,6,36)            0.0626         estimate D2E/DX2                !
 ! D27   D(3,5,6,4)              0.1766         estimate D2E/DX2                !
 ! D28   D(3,5,6,36)           179.7643         estimate D2E/DX2                !
 ! D29   D(35,5,6,4)          -179.1629         estimate D2E/DX2                !
 ! D30   D(35,5,6,36)            0.4247         estimate D2E/DX2                !
 ! D31   D(1,7,9,8)             -0.0504         estimate D2E/DX2                !
 ! D32   D(10,7,9,8)          -176.8316         estimate D2E/DX2                !
 ! D33   D(1,7,10,11)           73.6212         estimate D2E/DX2                !
 ! D34   D(1,7,10,37)         -162.4338         estimate D2E/DX2                !
 ! D35   D(1,7,10,38)          -44.1924         estimate D2E/DX2                !
 ! D36   D(9,7,10,11)         -110.4019         estimate D2E/DX2                !
 ! D37   D(9,7,10,37)           13.5431         estimate D2E/DX2                !
 ! D38   D(9,7,10,38)          131.7845         estimate D2E/DX2                !
 ! D39   D(2,8,9,7)              0.2526         estimate D2E/DX2                !
 ! D40   D(7,10,11,12)         105.9821         estimate D2E/DX2                !
 ! D41   D(7,10,11,13)         -73.0432         estimate D2E/DX2                !
 ! D42   D(37,10,11,12)        -14.1835         estimate D2E/DX2                !
 ! D43   D(37,10,11,13)        166.7911         estimate D2E/DX2                !
 ! D44   D(38,10,11,12)       -134.9124         estimate D2E/DX2                !
 ! D45   D(38,10,11,13)         46.0623         estimate D2E/DX2                !
 ! D46   D(10,11,12,14)       -174.8999         estimate D2E/DX2                !
 ! D47   D(10,11,12,26)          5.4612         estimate D2E/DX2                !
 ! D48   D(13,11,12,14)          4.0851         estimate D2E/DX2                !
 ! D49   D(13,11,12,26)       -175.5538         estimate D2E/DX2                !
 ! D50   D(11,12,14,19)        -94.6463         estimate D2E/DX2                !
 ! D51   D(11,12,14,39)         27.3223         estimate D2E/DX2                !
 ! D52   D(11,12,14,40)        143.5158         estimate D2E/DX2                !
 ! D53   D(26,12,14,19)         85.0176         estimate D2E/DX2                !
 ! D54   D(26,12,14,39)       -153.0139         estimate D2E/DX2                !
 ! D55   D(26,12,14,40)        -36.8204         estimate D2E/DX2                !
 ! D56   D(11,12,26,24)         92.1147         estimate D2E/DX2                !
 ! D57   D(11,12,26,27)        -89.8898         estimate D2E/DX2                !
 ! D58   D(14,12,26,24)        -87.5277         estimate D2E/DX2                !
 ! D59   D(14,12,26,27)         90.4678         estimate D2E/DX2                !
 ! D60   D(12,14,19,17)       -103.1958         estimate D2E/DX2                !
 ! D61   D(12,14,19,20)         77.2736         estimate D2E/DX2                !
 ! D62   D(39,14,19,17)        136.3679         estimate D2E/DX2                !
 ! D63   D(39,14,19,20)        -43.1626         estimate D2E/DX2                !
 ! D64   D(40,14,19,17)         16.9071         estimate D2E/DX2                !
 ! D65   D(40,14,19,20)       -162.6234         estimate D2E/DX2                !
 ! D66   D(17,15,16,18)          0.0492         estimate D2E/DX2                !
 ! D67   D(17,15,16,41)        179.7817         estimate D2E/DX2                !
 ! D68   D(21,15,16,18)       -179.9091         estimate D2E/DX2                !
 ! D69   D(21,15,16,41)         -0.1766         estimate D2E/DX2                !
 ! D70   D(16,15,17,19)          0.1315         estimate D2E/DX2                !
 ! D71   D(16,15,17,42)       -179.8998         estimate D2E/DX2                !
 ! D72   D(21,15,17,19)       -179.91           estimate D2E/DX2                !
 ! D73   D(21,15,17,42)          0.0587         estimate D2E/DX2                !
 ! D74   D(15,16,18,20)         -0.0414         estimate D2E/DX2                !
 ! D75   D(15,16,18,43)        179.5808         estimate D2E/DX2                !
 ! D76   D(41,16,18,20)       -179.7721         estimate D2E/DX2                !
 ! D77   D(41,16,18,43)         -0.1499         estimate D2E/DX2                !
 ! D78   D(15,17,19,14)       -179.8537         estimate D2E/DX2                !
 ! D79   D(15,17,19,20)         -0.3159         estimate D2E/DX2                !
 ! D80   D(42,17,19,14)          0.1779         estimate D2E/DX2                !
 ! D81   D(42,17,19,20)        179.7157         estimate D2E/DX2                !
 ! D82   D(16,18,20,19)         -0.1472         estimate D2E/DX2                !
 ! D83   D(16,18,20,44)        179.7584         estimate D2E/DX2                !
 ! D84   D(43,18,20,19)       -179.7676         estimate D2E/DX2                !
 ! D85   D(43,18,20,44)          0.138          estimate D2E/DX2                !
 ! D86   D(14,19,20,18)        179.8616         estimate D2E/DX2                !
 ! D87   D(14,19,20,44)         -0.0451         estimate D2E/DX2                !
 ! D88   D(17,19,20,18)          0.3255         estimate D2E/DX2                !
 ! D89   D(17,19,20,44)       -179.5811         estimate D2E/DX2                !
 ! D90   D(24,22,23,25)         -0.3902         estimate D2E/DX2                !
 ! D91   D(24,22,23,28)        179.5251         estimate D2E/DX2                !
 ! D92   D(45,22,23,25)        178.1764         estimate D2E/DX2                !
 ! D93   D(45,22,23,28)         -1.9083         estimate D2E/DX2                !
 ! D94   D(23,22,24,26)          0.5989         estimate D2E/DX2                !
 ! D95   D(23,22,24,46)        179.5248         estimate D2E/DX2                !
 ! D96   D(45,22,24,26)       -177.9753         estimate D2E/DX2                !
 ! D97   D(45,22,24,46)          0.9506         estimate D2E/DX2                !
 ! D98   D(22,23,25,27)         -0.2514         estimate D2E/DX2                !
 ! D99   D(22,23,25,47)        178.1924         estimate D2E/DX2                !
 ! D100  D(28,23,25,27)        179.8329         estimate D2E/DX2                !
 ! D101  D(28,23,25,47)         -1.7233         estimate D2E/DX2                !
 ! D102  D(22,23,28,29)        -32.1293         estimate D2E/DX2                !
 ! D103  D(22,23,28,30)        147.9646         estimate D2E/DX2                !
 ! D104  D(25,23,28,29)        147.7838         estimate D2E/DX2                !
 ! D105  D(25,23,28,30)        -32.1223         estimate D2E/DX2                !
 ! D106  D(22,24,26,12)        177.8514         estimate D2E/DX2                !
 ! D107  D(22,24,26,27)         -0.1604         estimate D2E/DX2                !
 ! D108  D(46,24,26,12)         -1.081          estimate D2E/DX2                !
 ! D109  D(46,24,26,27)       -179.0929         estimate D2E/DX2                !
 ! D110  D(23,25,27,26)          0.6861         estimate D2E/DX2                !
 ! D111  D(23,25,27,48)        178.9636         estimate D2E/DX2                !
 ! D112  D(47,25,27,26)       -177.7669         estimate D2E/DX2                !
 ! D113  D(47,25,27,48)          0.5105         estimate D2E/DX2                !
 ! D114  D(12,26,27,25)       -178.485          estimate D2E/DX2                !
 ! D115  D(12,26,27,48)          3.2293         estimate D2E/DX2                !
 ! D116  D(24,26,27,25)         -0.4745         estimate D2E/DX2                !
 ! D117  D(24,26,27,48)       -178.7602         estimate D2E/DX2                !
 ! D118  D(23,28,29,31)       -179.9655         estimate D2E/DX2                !
 ! D119  D(23,28,29,49)         -1.3808         estimate D2E/DX2                !
 ! D120  D(30,28,29,31)         -0.0423         estimate D2E/DX2                !
 ! D121  D(30,28,29,49)        178.5424         estimate D2E/DX2                !
 ! D122  D(23,28,30,32)       -179.9171         estimate D2E/DX2                !
 ! D123  D(23,28,30,50)         -1.1311         estimate D2E/DX2                !
 ! D124  D(29,28,30,32)          0.159          estimate D2E/DX2                !
 ! D125  D(29,28,30,50)        178.945          estimate D2E/DX2                !
 ! D126  D(28,29,31,32)         -0.0829         estimate D2E/DX2                !
 ! D127  D(28,29,31,51)        179.4442         estimate D2E/DX2                !
 ! D128  D(49,29,31,32)       -178.8179         estimate D2E/DX2                !
 ! D129  D(49,29,31,51)          0.7092         estimate D2E/DX2                !
 ! D130  D(28,30,32,31)         -0.2059         estimate D2E/DX2                !
 ! D131  D(50,30,32,31)       -179.1007         estimate D2E/DX2                !
 ! D132  D(29,31,32,30)          0.1805         estimate D2E/DX2                !
 ! D133  D(51,31,32,30)       -179.395          estimate D2E/DX2                !
 --------------------------------------------------------------------------------
 Trust Radius=3.00D-01 FncErr=1.00D-07 GrdErr=1.00D-06
 Number of steps in this run=    288 maximum allowed number of steps=    306.
 GradGradGradGradGradGradGradGradGradGradGradGradGradGradGradGradGradGrad

 Leave Link  103 at Thu Sep  8 03:20:25 2022, MaxMem=  209715200 cpu:       0.1
 (Enter /opt/gaussian/l202.exe)
 Stoichiometry    C24H19ClN6O
 Framework group  C1[X(C24H19ClN6O)]
 Deg. of freedom   147
 Full point group                 C1      NOp   1
 Largest Abelian subgroup         C1      NOp   1
 Largest concise Abelian subgroup C1      NOp   1
                         Standard orientation:                         
 ---------------------------------------------------------------------
 Center     Atomic      Atomic             Coordinates (Angstroms)
 Number     Number       Type             X           Y           Z
 ---------------------------------------------------------------------
      1          6           0       -4.472870    0.227106    0.310930
      2          6           0       -5.113601    1.287035   -0.319550
      3          6           0       -5.142359   -0.964635    0.608780
      4          6           0       -6.460651    1.217274   -0.676790
      5          6           0       -6.469769   -1.020936    0.257970
      6          6           0       -7.128930    0.056683   -0.377230
      7          7           0       -3.196430    0.676897    0.506070
      8          7           0       -4.194012    2.310706   -0.476810
      9          7           0       -3.081821    1.943797    0.011330
     10          6           0       -2.069820    0.069608    1.177140
     11          6           0       -1.490129   -1.060312    0.340120
     12          7           0       -0.315409   -0.881391   -0.307230
     13          8           0       -2.128568   -2.113702    0.262590
     14          6           0        0.164942   -1.955040   -1.203560
     15          6           0        3.353074   -3.724057   -0.184330
     16          6           0        2.904495   -4.705758    0.671690
     17          6           0        2.490553   -2.834258   -0.793820
     18          6           0        1.540295   -4.793259    0.920250
     19          6           0        1.125613   -2.920069   -0.541580
     20          6           0        0.656634   -3.911270    0.319670
     21         17           0        5.128334   -3.594016   -0.524180
     22          6           0        2.343759    1.436432    0.867480
     23          6           0        2.167378    2.535762    0.026670
     24          6           0        1.520850    0.326121    0.772610
     25          6           0        1.143048    2.482991   -0.919600
     26          6           0        0.508530    0.287110   -0.177050
     27          6           0        0.326889    1.369850   -1.026390
     28          6           0        3.031227    3.718832    0.131190
     29          6           0        3.627127    4.237963    1.252700
     30          6           0        3.439196    4.591313   -0.916740
     31          7           0        4.322626    5.326504    0.860960
     32          7           0        4.214705    5.548313   -0.466190
     33          1           0       -4.634538   -1.796735    1.048520
     34          1           0       -6.938351    2.043993   -1.162550
     35          1           0       -7.025378   -1.915577    0.462200
     36          1           0       -8.165519   -0.045878   -0.631070
     37          1           0       -1.365530    0.855018    1.378850
     38          1           0       -2.400929   -0.362553    2.110640
     39          1           0       -0.702537   -2.485111   -1.561820
     40          1           0        0.642792   -1.473950   -2.044460
     41          1           0        3.594655   -5.385037    1.128270
     42          1           0        2.877472   -2.085078   -1.455040
     43          1           0        1.171726   -5.555479    1.578680
     44          1           0       -0.395656   -3.984211    0.510770
     45          1           0        3.141529    1.437142    1.584350
     46          1           0        1.672571   -0.514939    1.420140
     47          1           0        0.965507    3.324510   -1.559470
     48          1           0       -0.466271    1.351279   -1.747270
     49          1           0        3.586437    3.926563    2.271160
     50          1           0        3.205186    4.530593   -1.954470
     51          1           0        4.863175    5.942654    1.412710
 ---------------------------------------------------------------------
 Rotational constants (GHZ):      0.1278651      0.0837785      0.0529776
 Leave Link  202 at Thu Sep  8 03:20:25 2022, MaxMem=  209715200 cpu:       0.0
 (Enter /opt/gaussian/l301.exe)
 Standard basis: CC-pVDZ (5D, 7F)
 Ernie: Thresh=  0.10000D-02 Tol=  0.10000D-05 Strict=F.
 Ernie:  72 primitive shells out of 827 were deleted.
 There are   547 symmetry adapted basis functions of A   symmetry.
 Integral buffers will be    131072 words long.
 Raffenetti 2 integral format.
 Two-electron integral symmetry is turned on.
   547 basis functions,  1227 primitive gaussians,   579 cartesian basis functions
   115 alpha electrons      115 beta electrons
       nuclear repulsion energy      3073.9846091109 Hartrees.
 IExCor=  402 DFT=T Ex+Corr=B3LYP ExCW=0 ScaHFX=  0.200000
 ScaDFX=  0.800000  0.720000  1.000000  0.810000 ScalE2=  1.000000  1.000000
 IRadAn=      0 IRanWt=     -1 IRanGd=            0 ICorTp=0
 NAtoms=   51 NActive=   51 NUniq=   51 SFac= 1.00D+00 NAtFMM=   60 NAOKFM=F Big=F
 Leave Link  301 at Thu Sep  8 03:20:25 2022, MaxMem=  209715200 cpu:       0.3
 (Enter /opt/gaussian/l302.exe)
 NPDir=0 NMtPBC=     1 NCelOv=     1 NCel=       1 NClECP=     1 NCelD=      1
         NCelK=      1 NCelE2=     1 NClLst=     1 CellRange=     0.0.
 One-electron integrals computed using PRISM.
 NBasis=   547 RedAO= T  NBF=   547
 NBsUse=   547 1.00D-06 NBFU=   547
 Precomputing XC quadrature grid using
 IXCGrd= 2 IRadAn=           0 IRanWt=          -1 IRanGd=           0 AccXCQ= 0.00D+00.
 NRdTot=    3281 NPtTot=      418844 NUsed=      442487 NTot=      442519
 NSgBfM=   559   559   560   560   560 NAtAll=    51    51.
 Leave Link  302 at Thu Sep  8 03:20:26 2022, MaxMem=  209715200 cpu:       8.7
 (Enter /opt/gaussian/l303.exe)
 DipDrv:  MaxL=1.
 Leave Link  303 at Thu Sep  8 03:20:26 2022, MaxMem=  209715200 cpu:       1.2
 (Enter /opt/gaussian/l401.exe)
 Harris functional with IExCor=  402 diagonalized for initial guess.
 ExpMin= 1.22D-01 ExpMax= 1.28D+05 ExpMxC= 1.24D+03 IAcc=2 IRadAn=         4 AccDes= 0.00D+00
 HarFok:  IExCor=  402 AccDes= 0.00D+00 IRadAn=         4 IDoV= 1
 ScaDFX=  1.000000  1.000000  1.000000  1.000000
 FoFCou: FMM=F IPFlag=           0 FMFlag=      100000 FMFlg1=           0
         NFxFlg=           0 DoJE=T BraDBF=F KetDBF=T FulRan=T
         Omega=  0.000000  0.000000  1.000000  0.000000  0.000000 ICntrl=     500 IOpCl=  0
         NMat0=    1 NMatS0=    1 NMatT0=    0 NMatD0=    1 NMtDS0=    0 NMtDT0=    0
         I1Cent=           4 NGrid=           0.
 Petite list used in FoFCou.
 Harris En= -1789.72012332171    
 Initial guess orbital symmetries:
       Occupied  (A) (A) (A) (A) (A) (A) (A) (A) (A) (A) (A) (A)
                 (A) (A) (A) (A) (A) (A) (A) (A) (A) (A) (A) (A)
                 (A) (A) (A) (A) (A) (A) (A) (A) (A) (A) (A) (A)
                 (A) (A) (A) (A) (A) (A) (A) (A) (A) (A) (A) (A)
                 (A) (A) (A) (A) (A) (A) (A) (A) (A) (A) (A) (A)
                 (A) (A) (A) (A) (A) (A) (A) (A) (A) (A) (A) (A)
                 (A) (A) (A) (A) (A) (A) (A) (A) (A) (A) (A) (A)
                 (A) (A) (A) (A) (A) (A) (A) (A) (A) (A) (A) (A)
                 (A) (A) (A) (A) (A) (A) (A) (A) (A) (A) (A) (A)
                 (A) (A) (A) (A) (A) (A) (A)
       Virtual   (A) (A) (A) (A) (A) (A) (A) (A) (A) (A) (A) (A)
                 (A) (A) (A) (A) (A) (A) (A) (A) (A) (A) (A) (A)
                 (A) (A) (A) (A) (A) (A) (A) (A) (A) (A) (A) (A)
                 (A) (A) (A) (A) (A) (A) (A) (A) (A) (A) (A) (A)
                 (A) (A) (A) (A) (A) (A) (A) (A) (A) (A) (A) (A)
                 (A) (A) (A) (A) (A) (A) (A) (A) (A) (A) (A) (A)
                 (A) (A) (A) (A) (A) (A) (A) (A) (A) (A) (A) (A)
                 (A) (A) (A) (A) (A) (A) (A) (A) (A) (A) (A) (A)
                 (A) (A) (A) (A) (A) (A) (A) (A) (A) (A) (A) (A)
                 (A) (A) (A) (A) (A) (A) (A) (A) (A) (A) (A) (A)
                 (A) (A) (A) (A) (A) (A) (A) (A) (A) (A) (A) (A)
                 (A) (A) (A) (A) (A) (A) (A) (A) (A) (A) (A) (A)
                 (A) (A) (A) (A) (A) (A) (A) (A) (A) (A) (A) (A)
                 (A) (A) (A) (A) (A) (A) (A) (A) (A) (A) (A) (A)
                 (A) (A) (A) (A) (A) (A) (A) (A) (A) (A) (A) (A)
                 (A) (A) (A) (A) (A) (A) (A) (A) (A) (A) (A) (A)
                 (A) (A) (A) (A) (A) (A) (A) (A) (A) (A) (A) (A)
                 (A) (A) (A) (A) (A) (A) (A) (A) (A) (A) (A) (A)
                 (A) (A) (A) (A) (A) (A) (A) (A) (A) (A) (A) (A)
                 (A) (A) (A) (A) (A) (A) (A) (A) (A) (A) (A) (A)
                 (A) (A) (A) (A) (A) (A) (A) (A) (A) (A) (A) (A)
                 (A) (A) (A) (A) (A) (A) (A) (A) (A) (A) (A) (A)
                 (A) (A) (A) (A) (A) (A) (A) (A) (A) (A) (A) (A)
                 (A) (A) (A) (A) (A) (A) (A) (A) (A) (A) (A) (A)
                 (A) (A) (A) (A) (A) (A) (A) (A) (A) (A) (A) (A)
                 (A) (A) (A) (A) (A) (A) (A) (A) (A) (A) (A) (A)
                 (A) (A) (A) (A) (A) (A) (A) (A) (A) (A) (A) (A)
                 (A) (A) (A) (A) (A) (A) (A) (A) (A) (A) (A) (A)
                 (A) (A) (A) (A) (A) (A) (A) (A) (A) (A) (A) (A)
                 (A) (A) (A) (A) (A) (A) (A) (A) (A) (A) (A) (A)
                 (A) (A) (A) (A) (A) (A) (A) (A) (A) (A) (A) (A)
                 (A) (A) (A) (A) (A) (A) (A) (A) (A) (A) (A) (A)
                 (A) (A) (A) (A) (A) (A) (A) (A) (A) (A) (A) (A)
                 (A) (A) (A) (A) (A) (A) (A) (A) (A) (A) (A) (A)
                 (A) (A) (A) (A) (A) (A) (A) (A) (A) (A) (A) (A)
                 (A) (A) (A) (A) (A) (A) (A) (A) (A) (A) (A) (A)
 The electronic state of the initial guess is 1-A.
 Leave Link  401 at Thu Sep  8 03:20:29 2022, MaxMem=  209715200 cpu:      25.2
 (Enter /opt/gaussian/l502.exe)
 Closed shell SCF:
 Requested convergence on RMS density matrix=1.00D-08 within 128 cycles.
 Requested convergence on MAX density matrix=1.00D-06.
 Requested convergence on             energy=1.00D-06.
 No special actions if energy rises.
 Using DIIS extrapolation, IDIIS=  1040.
 Integral symmetry usage will be decided dynamically.
       442015 words used for storage of precomputed grid.
 IEnd=     1474890 IEndB=     1474890 NGot=   209715200 MDV=   208592771
 LenX=   208592771 LenY=   208256951
 Fock matrices will be formed incrementally for  20 cycles.
 Integral accuracy reduced to 1.0D-05 until final iterations.

 Cycle   1  Pass 0  IDiag  1:
 FoFCou: FMM=F IPFlag=           0 FMFlag=      100000 FMFlg1=           0
         NFxFlg=           0 DoJE=F BraDBF=F KetDBF=F FulRan=T
         Omega=  0.000000  0.000000  1.000000  0.000000  0.000000 ICntrl=       0 IOpCl=  0
         NMat0=    1 NMatS0=    1 NMatT0=    0 NMatD0=    1 NMtDS0=    0 NMtDT0=    0
         I1Cent=           0 NGrid=           0.
 Symmetry not used in FoFCou.
 E= -1789.38039956867    
 DIIS: error= 2.33D-02 at cycle   1 NSaved=   1.
 NSaved= 1 IEnMin= 1 EnMin= -1789.38039956867     IErMin= 1 ErrMin= 2.33D-02
 ErrMax= 2.33D-02 EMaxC= 1.00D-01 BMatC= 5.53D-01 BMatP= 5.53D-01
 IDIUse=3 WtCom= 7.67D-01 WtEn= 2.33D-01
 Coeff-Com:  0.100D+01
 Coeff-En:   0.100D+01
 Coeff:      0.100D+01
 Gap=     0.362 Goal=   None    Shift=    0.000
 GapD=    0.362 DampG=1.000 DampE=0.500 DampFc=0.5000 IDamp=-1.
 Damping current iteration by 5.00D-01
 RMSDP=3.91D-03 MaxDP=2.04D-01              OVMax= 3.12D-01

 Cycle   2  Pass 0  IDiag  1:
 RMSU=  1.36D-03    CP:  9.76D-01
 E= -1789.53564327824     Delta-E=       -0.155243709576 Rises=F Damp=T
 DIIS: error= 9.48D-03 at cycle   2 NSaved=   2.
 NSaved= 2 IEnMin= 2 EnMin= -1789.53564327824     IErMin= 2 ErrMin= 9.48D-03
 ErrMax= 9.48D-03 EMaxC= 1.00D-01 BMatC= 1.15D-01 BMatP= 5.53D-01
 IDIUse=3 WtCom= 9.05D-01 WtEn= 9.48D-02
 Coeff-Com:  0.238D+00 0.762D+00
 Coeff-En:   0.351D+00 0.649D+00
 Coeff:      0.249D+00 0.751D+00
 Gap=     0.244 Goal=   None    Shift=    0.000
 RMSDP=1.42D-03 MaxDP=7.35D-02 DE=-1.55D-01 OVMax= 3.28D-01

 Cycle   3  Pass 0  IDiag  1:
 RMSU=  9.71D-04    CP:  9.60D-01  8.70D-01
 E= -1789.86993807743     Delta-E=       -0.334294799186 Rises=F Damp=F
 DIIS: error= 9.49D-03 at cycle   3 NSaved=   3.
 NSaved= 3 IEnMin= 3 EnMin= -1789.86993807743     IErMin= 2 ErrMin= 9.48D-03
 ErrMax= 9.49D-03 EMaxC= 1.00D-01 BMatC= 1.25D-01 BMatP= 1.15D-01
 IDIUse=3 WtCom= 9.05D-01 WtEn= 9.49D-02
 Coeff-Com:  0.598D-01 0.498D+00 0.442D+00
 Coeff-En:   0.000D+00 0.000D+00 0.100D+01
 Coeff:      0.542D-01 0.451D+00 0.495D+00
 Gap=     0.200 Goal=   None    Shift=    0.000
 RMSDP=8.76D-04 MaxDP=6.06D-02 DE=-3.34D-01 OVMax= 1.31D-01

 Cycle   4  Pass 0  IDiag  1:
 RMSU=  4.11D-04    CP:  9.65D-01  9.56D-01  5.40D-01
 E= -1789.96771267159     Delta-E=       -0.097774594162 Rises=F Damp=F
 DIIS: error= 3.74D-03 at cycle   4 NSaved=   4.
 NSaved= 4 IEnMin= 4 EnMin= -1789.96771267159     IErMin= 4 ErrMin= 3.74D-03
 ErrMax= 3.74D-03 EMaxC= 1.00D-01 BMatC= 2.12D-02 BMatP= 1.15D-01
 IDIUse=3 WtCom= 9.63D-01 WtEn= 3.74D-02
 Coeff-Com:  0.134D-01 0.141D+00 0.310D+00 0.535D+00
 Coeff-En:   0.000D+00 0.000D+00 0.177D+00 0.823D+00
 Coeff:      0.129D-01 0.136D+00 0.305D+00 0.546D+00
 Gap=     0.196 Goal=   None    Shift=    0.000
 RMSDP=3.29D-04 MaxDP=1.96D-02 DE=-9.78D-02 OVMax= 4.10D-02

 Cycle   5  Pass 0  IDiag  1:
 RMSU=  1.30D-04    CP:  9.63D-01  9.26D-01  6.51D-01  6.26D-01
 E= -1789.98558890329     Delta-E=       -0.017876231695 Rises=F Damp=F
 DIIS: error= 1.15D-03 at cycle   5 NSaved=   5.
 NSaved= 5 IEnMin= 5 EnMin= -1789.98558890329     IErMin= 5 ErrMin= 1.15D-03
 ErrMax= 1.15D-03 EMaxC= 1.00D-01 BMatC= 1.79D-03 BMatP= 2.12D-02
 IDIUse=3 WtCom= 9.88D-01 WtEn= 1.15D-02
 Coeff-Com:  0.121D-02 0.274D-01 0.131D+00 0.332D+00 0.508D+00
 Coeff-En:   0.000D+00 0.000D+00 0.000D+00 0.424D-01 0.958D+00
 Coeff:      0.119D-02 0.271D-01 0.129D+00 0.329D+00 0.514D+00
 Gap=     0.192 Goal=   None    Shift=    0.000
 RMSDP=1.05D-04 MaxDP=4.29D-03 DE=-1.79D-02 OVMax= 1.25D-02

 Cycle   6  Pass 0  IDiag  1:
 RMSU=  4.07D-05    CP:  9.63D-01  9.31D-01  6.52D-01  6.83D-01  5.61D-01
 E= -1789.98727493686     Delta-E=       -0.001686033572 Rises=F Damp=F
 DIIS: error= 4.78D-04 at cycle   6 NSaved=   6.
 NSaved= 6 IEnMin= 6 EnMin= -1789.98727493686     IErMin= 6 ErrMin= 4.78D-04
 ErrMax= 4.78D-04 EMaxC= 1.00D-01 BMatC= 1.91D-04 BMatP= 1.79D-03
 IDIUse=3 WtCom= 9.95D-01 WtEn= 4.78D-03
 Coeff-Com: -0.563D-03-0.936D-03 0.366D-01 0.121D+00 0.303D+00 0.542D+00
 Coeff-En:   0.000D+00 0.000D+00 0.000D+00 0.000D+00 0.758D-01 0.924D+00
 Coeff:     -0.560D-03-0.932D-03 0.365D-01 0.120D+00 0.301D+00 0.544D+00
 Gap=     0.192 Goal=   None    Shift=    0.000
 RMSDP=3.25D-05 MaxDP=1.67D-03 DE=-1.69D-03 OVMax= 4.21D-03

 Cycle   7  Pass 0  IDiag  1:
 RMSU=  1.41D-05    CP:  9.63D-01  9.31D-01  6.54D-01  6.84D-01  6.17D-01
                    CP:  5.94D-01
 E= -1789.98746441517     Delta-E=       -0.000189478306 Rises=F Damp=F
 DIIS: error= 1.67D-04 at cycle   7 NSaved=   7.
 NSaved= 7 IEnMin= 7 EnMin= -1789.98746441517     IErMin= 7 ErrMin= 1.67D-04
 ErrMax= 1.67D-04 EMaxC= 1.00D-01 BMatC= 2.14D-05 BMatP= 1.91D-04
 IDIUse=3 WtCom= 9.98D-01 WtEn= 1.67D-03
 Coeff-Com: -0.314D-03-0.336D-02 0.905D-02 0.386D-01 0.131D+00 0.324D+00
 Coeff-Com:  0.502D+00
 Coeff-En:   0.000D+00 0.000D+00 0.000D+00 0.000D+00 0.000D+00 0.273D-01
 Coeff-En:   0.973D+00
 Coeff:     -0.314D-03-0.336D-02 0.904D-02 0.385D-01 0.130D+00 0.323D+00
 Coeff:      0.503D+00
 Gap=     0.192 Goal=   None    Shift=    0.000
 RMSDP=1.01D-05 MaxDP=8.12D-04 DE=-1.89D-04 OVMax= 9.44D-04

 Cycle   8  Pass 0  IDiag  1:
 RMSU=  4.06D-06    CP:  9.63D-01  9.31D-01  6.54D-01  6.85D-01  6.26D-01
                    CP:  6.58D-01  6.41D-01
 E= -1789.98748687904     Delta-E=       -0.000022463879 Rises=F Damp=F
 DIIS: error= 4.52D-05 at cycle   8 NSaved=   8.
 NSaved= 8 IEnMin= 8 EnMin= -1789.98748687904     IErMin= 8 ErrMin= 4.52D-05
 ErrMax= 4.52D-05 EMaxC= 1.00D-01 BMatC= 2.31D-06 BMatP= 2.14D-05
 IDIUse=1 WtCom= 1.00D+00 WtEn= 0.00D+00
 Coeff-Com: -0.694D-04-0.201D-02 0.281D-02 0.139D-01 0.559D-01 0.154D+00
 Coeff-Com:  0.311D+00 0.464D+00
 Coeff:     -0.694D-04-0.201D-02 0.281D-02 0.139D-01 0.559D-01 0.154D+00
 Coeff:      0.311D+00 0.464D+00
 Gap=     0.192 Goal=   None    Shift=    0.000
 RMSDP=3.53D-06 MaxDP=2.79D-04 DE=-2.25D-05 OVMax= 4.08D-04

 Initial convergence to 1.0D-05 achieved.  Increase integral accuracy.
 Cycle   9  Pass 1  IDiag  1:
 E= -1789.98744933880     Delta-E=        0.000037540243 Rises=F Damp=F
 DIIS: error= 1.92D-04 at cycle   1 NSaved=   1.
 NSaved= 1 IEnMin= 1 EnMin= -1789.98744933880     IErMin= 1 ErrMin= 1.92D-04
 ErrMax= 1.92D-04 EMaxC= 1.00D-01 BMatC= 1.38D-05 BMatP= 1.38D-05
 IDIUse=3 WtCom= 9.98D-01 WtEn= 1.92D-03
 Coeff-Com:  0.100D+01
 Coeff-En:   0.100D+01
 Coeff:      0.100D+01
 Gap=     0.192 Goal=   None    Shift=    0.000
 RMSDP=3.53D-06 MaxDP=2.79D-04 DE= 3.75D-05 OVMax= 5.24D-04

 Cycle  10  Pass 1  IDiag  1:
 RMSU=  1.10D-04    CP:  1.00D+00
 E= -1789.98746155631     Delta-E=       -0.000012217507 Rises=F Damp=F
 DIIS: error= 3.85D-05 at cycle   2 NSaved=   2.
 NSaved= 2 IEnMin= 2 EnMin= -1789.98746155631     IErMin= 2 ErrMin= 3.85D-05
 ErrMax= 3.85D-05 EMaxC= 1.00D-01 BMatC= 1.33D-06 BMatP= 1.38D-05
 IDIUse=1 WtCom= 1.00D+00 WtEn= 0.00D+00
 Coeff-Com:  0.111D+00 0.889D+00
 Coeff:      0.111D+00 0.889D+00
 Gap=     0.192 Goal=   None    Shift=    0.000
 RMSDP=6.37D-06 MaxDP=5.04D-04 DE=-1.22D-05 OVMax= 8.82D-04

 Cycle  11  Pass 1  IDiag  1:
 RMSU=  4.37D-06    CP:  1.00D+00  1.01D+00
 E= -1789.98745786696     Delta-E=        0.000003689344 Rises=F Damp=F
 DIIS: error= 8.18D-05 at cycle   3 NSaved=   3.
 NSaved= 3 IEnMin= 2 EnMin= -1789.98746155631     IErMin= 2 ErrMin= 3.85D-05
 ErrMax= 8.18D-05 EMaxC= 1.00D-01 BMatC= 5.24D-06 BMatP= 1.33D-06
 IDIUse=1 WtCom= 1.00D+00 WtEn= 0.00D+00
 Coeff-Com: -0.423D-02 0.668D+00 0.336D+00
 Coeff:     -0.423D-02 0.668D+00 0.336D+00
 Gap=     0.192 Goal=   None    Shift=    0.000
 RMSDP=4.09D-06 MaxDP=3.61D-04 DE= 3.69D-06 OVMax= 6.05D-04

 Cycle  12  Pass 1  IDiag  1:
 RMSU=  4.94D-07    CP:  1.00D+00  1.01D+00  3.49D-01
 E= -1789.98746281001     Delta-E=       -0.000004943050 Rises=F Damp=F
 DIIS: error= 3.93D-06 at cycle   4 NSaved=   4.
 NSaved= 4 IEnMin= 4 EnMin= -1789.98746281001     IErMin= 4 ErrMin= 3.93D-06
 ErrMax= 3.93D-06 EMaxC= 1.00D-01 BMatC= 2.95D-08 BMatP= 1.33D-06
 IDIUse=1 WtCom= 1.00D+00 WtEn= 0.00D+00
 Coeff-Com: -0.390D-02 0.391D+00 0.201D+00 0.411D+00
 Coeff:     -0.390D-02 0.391D+00 0.201D+00 0.411D+00
 Gap=     0.192 Goal=   None    Shift=    0.000
 RMSDP=3.58D-07 MaxDP=1.77D-05 DE=-4.94D-06 OVMax= 4.00D-05

 Cycle  13  Pass 1  IDiag  1:
 RMSU=  1.68D-07    CP:  1.00D+00  1.01D+00  3.51D-01  6.18D-01
 E= -1789.98746283873     Delta-E=       -0.000000028720 Rises=F Damp=F
 DIIS: error= 1.22D-06 at cycle   5 NSaved=   5.
 NSaved= 5 IEnMin= 5 EnMin= -1789.98746283873     IErMin= 5 ErrMin= 1.22D-06
 ErrMax= 1.22D-06 EMaxC= 1.00D-01 BMatC= 9.52D-10 BMatP= 2.95D-08
 IDIUse=1 WtCom= 1.00D+00 WtEn= 0.00D+00
 Coeff-Com: -0.195D-02 0.184D+00 0.950D-01 0.229D+00 0.494D+00
 Coeff:     -0.195D-02 0.184D+00 0.950D-01 0.229D+00 0.494D+00
 Gap=     0.192 Goal=   None    Shift=    0.000
 RMSDP=7.32D-08 MaxDP=4.53D-06 DE=-2.87D-08 OVMax= 1.08D-05

 Cycle  14  Pass 1  IDiag  1:
 RMSU=  4.83D-08    CP:  1.00D+00  1.01D+00  3.51D-01  6.30D-01  8.97D-01
 E= -1789.98746283959     Delta-E=       -0.000000000854 Rises=F Damp=F
 DIIS: error= 4.31D-07 at cycle   6 NSaved=   6.
 NSaved= 6 IEnMin= 6 EnMin= -1789.98746283959     IErMin= 6 ErrMin= 4.31D-07
 ErrMax= 4.31D-07 EMaxC= 1.00D-01 BMatC= 1.45D-10 BMatP= 9.52D-10
 IDIUse=1 WtCom= 1.00D+00 WtEn= 0.00D+00
 Coeff-Com: -0.469D-03 0.404D-01 0.209D-01 0.631D-01 0.298D+00 0.578D+00
 Coeff:     -0.469D-03 0.404D-01 0.209D-01 0.631D-01 0.298D+00 0.578D+00
 Gap=     0.192 Goal=   None    Shift=    0.000
 RMSDP=2.84D-08 MaxDP=1.45D-06 DE=-8.54D-10 OVMax= 3.04D-06

 Cycle  15  Pass 1  IDiag  1:
 RMSU=  1.33D-08    CP:  1.00D+00  1.01D+00  3.51D-01  6.39D-01  9.17D-01
                    CP:  7.10D-01
 E= -1789.98746283968     Delta-E=       -0.000000000096 Rises=F Damp=F
 DIIS: error= 1.36D-07 at cycle   7 NSaved=   7.
 NSaved= 7 IEnMin= 7 EnMin= -1789.98746283968     IErMin= 7 ErrMin= 1.36D-07
 ErrMax= 1.36D-07 EMaxC= 1.00D-01 BMatC= 2.51D-11 BMatP= 1.45D-10
 IDIUse=1 WtCom= 1.00D+00 WtEn= 0.00D+00
 Coeff-Com: -0.555D-04 0.273D-02 0.148D-02 0.115D-01 0.126D+00 0.364D+00
 Coeff-Com:  0.494D+00
 Coeff:     -0.555D-04 0.273D-02 0.148D-02 0.115D-01 0.126D+00 0.364D+00
 Coeff:      0.494D+00
 Gap=     0.192 Goal=   None    Shift=    0.000
 RMSDP=1.25D-08 MaxDP=7.36D-07 DE=-9.64D-11 OVMax= 1.35D-06

 Cycle  16  Pass 1  IDiag  1:
 RMSU=  5.73D-09    CP:  1.00D+00  1.01D+00  3.51D-01  6.41D-01  9.24D-01
                    CP:  7.37D-01  5.26D-01
 E= -1789.98746283970     Delta-E=       -0.000000000021 Rises=F Damp=F
 DIIS: error= 5.67D-08 at cycle   8 NSaved=   8.
 NSaved= 8 IEnMin= 8 EnMin= -1789.98746283970     IErMin= 8 ErrMin= 5.67D-08
 ErrMax= 5.67D-08 EMaxC= 1.00D-01 BMatC= 4.82D-12 BMatP= 2.51D-11
 IDIUse=1 WtCom= 1.00D+00 WtEn= 0.00D+00
 Coeff-Com:  0.355D-04-0.448D-02-0.226D-02-0.222D-02 0.389D-01 0.159D+00
 Coeff-Com:  0.340D+00 0.471D+00
 Coeff:      0.355D-04-0.448D-02-0.226D-02-0.222D-02 0.389D-01 0.159D+00
 Coeff:      0.340D+00 0.471D+00
 Gap=     0.192 Goal=   None    Shift=    0.000
 RMSDP=4.64D-09 MaxDP=2.77D-07 DE=-2.09D-11 OVMax= 6.22D-07

 SCF Done:  E(RB3LYP) =  -1789.98746284     A.U. after   16 cycles
             Convg  =    0.4640D-08             -V/T =  2.0047
 KE= 1.781549133328D+03 PE=-1.033349958366D+04 EE= 3.687978378380D+03
 Leave Link  502 at Thu Sep  8 03:32:52 2022, MaxMem=  209715200 cpu:    5930.4
 (Enter /opt/gaussian/l601.exe)
 Copying SCF densities to generalized density rwf, IOpCl= 0 IROHF=0.

 **********************************************************************

            Population analysis using the SCF density.

 **********************************************************************

 Orbital symmetries:
       Occupied  (A) (A) (A) (A) (A) (A) (A) (A) (A) (A) (A) (A)
                 (A) (A) (A) (A) (A) (A) (A) (A) (A) (A) (A) (A)
                 (A) (A) (A) (A) (A) (A) (A) (A) (A) (A) (A) (A)
                 (A) (A) (A) (A) (A) (A) (A) (A) (A) (A) (A) (A)
                 (A) (A) (A) (A) (A) (A) (A) (A) (A) (A) (A) (A)
                 (A) (A) (A) (A) (A) (A) (A) (A) (A) (A) (A) (A)
                 (A) (A) (A) (A) (A) (A) (A) (A) (A) (A) (A) (A)
                 (A) (A) (A) (A) (A) (A) (A) (A) (A) (A) (A) (A)
                 (A) (A) (A) (A) (A) (A) (A) (A) (A) (A) (A) (A)
                 (A) (A) (A) (A) (A) (A) (A)
       Virtual   (A) (A) (A) (A) (A) (A) (A) (A) (A) (A) (A) (A)
                 (A) (A) (A) (A) (A) (A) (A) (A) (A) (A) (A) (A)
                 (A) (A) (A) (A) (A) (A) (A) (A) (A) (A) (A) (A)
                 (A) (A) (A) (A) (A) (A) (A) (A) (A) (A) (A) (A)
                 (A) (A) (A) (A) (A) (A) (A) (A) (A) (A) (A) (A)
                 (A) (A) (A) (A) (A) (A) (A) (A) (A) (A) (A) (A)
                 (A) (A) (A) (A) (A) (A) (A) (A) (A) (A) (A) (A)
                 (A) (A) (A) (A) (A) (A) (A) (A) (A) (A) (A) (A)
                 (A) (A) (A) (A) (A) (A) (A) (A) (A) (A) (A) (A)
                 (A) (A) (A) (A) (A) (A) (A) (A) (A) (A) (A) (A)
                 (A) (A) (A) (A) (A) (A) (A) (A) (A) (A) (A) (A)
                 (A) (A) (A) (A) (A) (A) (A) (A) (A) (A) (A) (A)
                 (A) (A) (A) (A) (A) (A) (A) (A) (A) (A) (A) (A)
                 (A) (A) (A) (A) (A) (A) (A) (A) (A) (A) (A) (A)
                 (A) (A) (A) (A) (A) (A) (A) (A) (A) (A) (A) (A)
                 (A) (A) (A) (A) (A) (A) (A) (A) (A) (A) (A) (A)
                 (A) (A) (A) (A) (A) (A) (A) (A) (A) (A) (A) (A)
                 (A) (A) (A) (A) (A) (A) (A) (A) (A) (A) (A) (A)
                 (A) (A) (A) (A) (A) (A) (A) (A) (A) (A) (A) (A)
                 (A) (A) (A) (A) (A) (A) (A) (A) (A) (A) (A) (A)
                 (A) (A) (A) (A) (A) (A) (A) (A) (A) (A) (A) (A)
                 (A) (A) (A) (A) (A) (A) (A) (A) (A) (A) (A) (A)
                 (A) (A) (A) (A) (A) (A) (A) (A) (A) (A) (A) (A)
                 (A) (A) (A) (A) (A) (A) (A) (A) (A) (A) (A) (A)
                 (A) (A) (A) (A) (A) (A) (A) (A) (A) (A) (A) (A)
                 (A) (A) (A) (A) (A) (A) (A) (A) (A) (A) (A) (A)
                 (A) (A) (A) (A) (A) (A) (A) (A) (A) (A) (A) (A)
                 (A) (A) (A) (A) (A) (A) (A) (A) (A) (A) (A) (A)
                 (A) (A) (A) (A) (A) (A) (A) (A) (A) (A) (A) (A)
                 (A) (A) (A) (A) (A) (A) (A) (A) (A) (A) (A) (A)
                 (A) (A) (A) (A) (A) (A) (A) (A) (A) (A) (A) (A)
                 (A) (A) (A) (A) (A) (A) (A) (A) (A) (A) (A) (A)
                 (A) (A) (A) (A) (A) (A) (A) (A) (A) (A) (A) (A)
                 (A) (A) (A) (A) (A) (A) (A) (A) (A) (A) (A) (A)
                 (A) (A) (A) (A) (A) (A) (A) (A) (A) (A) (A) (A)
                 (A) (A) (A) (A) (A) (A) (A) (A) (A) (A) (A) (A)
 The electronic state is 1-A.
 Alpha  occ. eigenvalues -- -101.54307 -19.12034 -14.41205 -14.41134 -14.38956
 Alpha  occ. eigenvalues --  -14.38149 -14.35102 -14.34691 -10.30119 -10.25547
 Alpha  occ. eigenvalues --  -10.24772 -10.23893 -10.23651 -10.23134 -10.22770
 Alpha  occ. eigenvalues --  -10.21530 -10.21243 -10.20916 -10.20739 -10.20586
 Alpha  occ. eigenvalues --  -10.20576 -10.20529 -10.20424 -10.20350 -10.20261
 Alpha  occ. eigenvalues --  -10.20065 -10.19631 -10.19584 -10.19490 -10.19365
 Alpha  occ. eigenvalues --  -10.19357 -10.18960  -9.46044  -7.22312  -7.21334
 Alpha  occ. eigenvalues --   -7.21307  -1.10195  -1.06001  -1.05285  -0.96284
 Alpha  occ. eigenvalues --   -0.92787  -0.89602  -0.87789  -0.86966  -0.84049
 Alpha  occ. eigenvalues --   -0.83583  -0.81146  -0.79358  -0.77968  -0.76998
 Alpha  occ. eigenvalues --   -0.76941  -0.75592  -0.75032  -0.74384  -0.70822
 Alpha  occ. eigenvalues --   -0.66047  -0.64990  -0.63906  -0.62696  -0.62582
 Alpha  occ. eigenvalues --   -0.61585  -0.61307  -0.59683  -0.59332  -0.57313
 Alpha  occ. eigenvalues --   -0.56011  -0.54694  -0.53141  -0.52941  -0.52683
 Alpha  occ. eigenvalues --   -0.50233  -0.49159  -0.48787  -0.48550  -0.47294
 Alpha  occ. eigenvalues --   -0.46882  -0.46704  -0.46272  -0.45229  -0.45209
 Alpha  occ. eigenvalues --   -0.44914  -0.44843  -0.44336  -0.43821  -0.43298
 Alpha  occ. eigenvalues --   -0.42832  -0.41737  -0.41638  -0.40997  -0.40047
 Alpha  occ. eigenvalues --   -0.39628  -0.38652  -0.38147  -0.37759  -0.37079
 Alpha  occ. eigenvalues --   -0.36449  -0.36236  -0.36192  -0.35908  -0.33459
 Alpha  occ. eigenvalues --   -0.33269  -0.31462  -0.31338  -0.30537  -0.29269
 Alpha  occ. eigenvalues --   -0.27819  -0.27407  -0.27133  -0.26883  -0.26481
 Alpha  occ. eigenvalues --   -0.26163  -0.25467  -0.25213  -0.23686  -0.23139
 Alpha virt. eigenvalues --   -0.03972  -0.03682  -0.03050  -0.02477  -0.01969
 Alpha virt. eigenvalues --   -0.00253   0.01013   0.01158   0.01582   0.03790
 Alpha virt. eigenvalues --    0.05063   0.06012   0.06568   0.07139   0.07909
 Alpha virt. eigenvalues --    0.08067   0.08311   0.08705   0.09895   0.10629
 Alpha virt. eigenvalues --    0.10987   0.11503   0.11910   0.12373   0.12985
 Alpha virt. eigenvalues --    0.13436   0.13640   0.14126   0.14795   0.15580
 Alpha virt. eigenvalues --    0.16016   0.16495   0.16802   0.17355   0.18318
 Alpha virt. eigenvalues --    0.19353   0.20060   0.20448   0.20915   0.21815
 Alpha virt. eigenvalues --    0.23527   0.24291   0.25299   0.25502   0.25592
 Alpha virt. eigenvalues --    0.26765   0.27169   0.27962   0.28344   0.28899
 Alpha virt. eigenvalues --    0.29454   0.30117   0.30765   0.31505   0.31619
 Alpha virt. eigenvalues --    0.33073   0.35028   0.35155   0.36338   0.37495
 Alpha virt. eigenvalues --    0.37786   0.38091   0.39242   0.40473   0.40634
 Alpha virt. eigenvalues --    0.42350   0.42728   0.43610   0.44033   0.44719
 Alpha virt. eigenvalues --    0.44980   0.45349   0.45480   0.46054   0.46626
 Alpha virt. eigenvalues --    0.46660   0.46890   0.47156   0.47582   0.48088
 Alpha virt. eigenvalues --    0.48336   0.48749   0.49414   0.49874   0.50115
 Alpha virt. eigenvalues --    0.50378   0.50607   0.50941   0.51020   0.51134
 Alpha virt. eigenvalues --    0.51401   0.51781   0.52241   0.52397   0.52613
 Alpha virt. eigenvalues --    0.52999   0.53423   0.53868   0.54245   0.54867
 Alpha virt. eigenvalues --    0.55551   0.55781   0.56109   0.56392   0.56757
 Alpha virt. eigenvalues --    0.56858   0.57515   0.58075   0.58340   0.58667
 Alpha virt. eigenvalues --    0.59542   0.59752   0.60081   0.61034   0.61704
 Alpha virt. eigenvalues --    0.62322   0.63120   0.63598   0.64141   0.64825
 Alpha virt. eigenvalues --    0.64968   0.65093   0.65576   0.65677   0.65944
 Alpha virt. eigenvalues --    0.66408   0.67100   0.67417   0.67557   0.67817
 Alpha virt. eigenvalues --    0.68414   0.68731   0.69244   0.70092   0.70482
 Alpha virt. eigenvalues --    0.70701   0.71050   0.71859   0.72185   0.72849
 Alpha virt. eigenvalues --    0.73250   0.73745   0.74198   0.74680   0.75057
 Alpha virt. eigenvalues --    0.75982   0.76372   0.77373   0.78442   0.78779
 Alpha virt. eigenvalues --    0.79906   0.80410   0.80933   0.81981   0.82102
 Alpha virt. eigenvalues --    0.83353   0.83946   0.84359   0.84889   0.86222
 Alpha virt. eigenvalues --    0.86461   0.86898   0.87471   0.88313   0.88664
 Alpha virt. eigenvalues --    0.88844   0.89567   0.89889   0.90214   0.90507
 Alpha virt. eigenvalues --    0.90792   0.91196   0.91622   0.92350   0.93373
 Alpha virt. eigenvalues --    0.93631   0.94278   0.94780   0.95706   0.96371
 Alpha virt. eigenvalues --    0.96704   0.97429   0.98189   0.99224   0.99616
 Alpha virt. eigenvalues --    0.99830   1.00288   1.00757   1.01250   1.01510
 Alpha virt. eigenvalues --    1.02485   1.02714   1.03271   1.03576   1.04211
 Alpha virt. eigenvalues --    1.04409   1.05193   1.05757   1.06752   1.06901
 Alpha virt. eigenvalues --    1.07318   1.07744   1.08004   1.09181   1.09916
 Alpha virt. eigenvalues --    1.10334   1.11130   1.11976   1.13328   1.14007
 Alpha virt. eigenvalues --    1.14184   1.15003   1.17188   1.18378   1.18532
 Alpha virt. eigenvalues --    1.19675   1.20126   1.21518   1.22333   1.23108
 Alpha virt. eigenvalues --    1.23820   1.24751   1.25510   1.27193   1.28316
 Alpha virt. eigenvalues --    1.28962   1.29373   1.29637   1.32397   1.32962
 Alpha virt. eigenvalues --    1.34136   1.35862   1.36370   1.37133   1.38285
 Alpha virt. eigenvalues --    1.39306   1.40258   1.41485   1.41835   1.43429
 Alpha virt. eigenvalues --    1.44952   1.45039   1.45535   1.46594   1.47385
 Alpha virt. eigenvalues --    1.48493   1.48524   1.48819   1.49651   1.50078
 Alpha virt. eigenvalues --    1.50957   1.51314   1.51521   1.51851   1.53211
 Alpha virt. eigenvalues --    1.53641   1.54645   1.55661   1.56170   1.57211
 Alpha virt. eigenvalues --    1.57365   1.57619   1.58421   1.58853   1.59363
 Alpha virt. eigenvalues --    1.60217   1.60786   1.61030   1.61469   1.61903
 Alpha virt. eigenvalues --    1.62404   1.62765   1.63236   1.63589   1.64414
 Alpha virt. eigenvalues --    1.64542   1.65308   1.65636   1.66062   1.66121
 Alpha virt. eigenvalues --    1.67578   1.68033   1.68241   1.69346   1.69398
 Alpha virt. eigenvalues --    1.70765   1.70946   1.71421   1.72329   1.72492
 Alpha virt. eigenvalues --    1.72806   1.73465   1.73977   1.74449   1.74811
 Alpha virt. eigenvalues --    1.76248   1.76774   1.76909   1.77375   1.77774
 Alpha virt. eigenvalues --    1.77804   1.78307   1.78827   1.79350   1.79665
 Alpha virt. eigenvalues --    1.80563   1.81033   1.81376   1.82217   1.82821
 Alpha virt. eigenvalues --    1.84086   1.84275   1.84687   1.85243   1.85676
 Alpha virt. eigenvalues --    1.86194   1.86518   1.86990   1.87382   1.87867
 Alpha virt. eigenvalues --    1.88502   1.88997   1.89679   1.90338   1.90802
 Alpha virt. eigenvalues --    1.91536   1.91876   1.93546   1.94036   1.95369
 Alpha virt. eigenvalues --    1.95531   1.96718   1.97645   1.98460   1.99211
 Alpha virt. eigenvalues --    1.99757   1.99932   2.01023   2.02128   2.02838
 Alpha virt. eigenvalues --    2.03481   2.03962   2.05150   2.05335   2.05906
 Alpha virt. eigenvalues --    2.06543   2.07651   2.08834   2.09523   2.11913
 Alpha virt. eigenvalues --    2.12635   2.14228   2.15472   2.16485   2.17843
 Alpha virt. eigenvalues --    2.18361   2.19085   2.19395   2.20598   2.21373
 Alpha virt. eigenvalues --    2.21928   2.23557   2.24128   2.26510   2.26971
 Alpha virt. eigenvalues --    2.27944   2.31356   2.33865   2.34191   2.34699
 Alpha virt. eigenvalues --    2.35765   2.35872   2.38685   2.40469   2.41903
 Alpha virt. eigenvalues --    2.42330   2.42938   2.43617   2.43879   2.44356
 Alpha virt. eigenvalues --    2.44930   2.45549   2.47037   2.47592   2.48914
 Alpha virt. eigenvalues --    2.50171   2.52132   2.52721   2.53462   2.54341
 Alpha virt. eigenvalues --    2.55261   2.56216   2.56677   2.60506   2.61034
 Alpha virt. eigenvalues --    2.62292   2.65028   2.65635   2.66621   2.68261
 Alpha virt. eigenvalues --    2.69711   2.70835   2.71283   2.72802   2.74175
 Alpha virt. eigenvalues --    2.75256   2.75570   2.77088   2.78302   2.79161
 Alpha virt. eigenvalues --    2.79824   2.80133   2.83350   2.85779   2.86694
 Alpha virt. eigenvalues --    2.88593   2.89789   2.95770   2.96016   2.99697
 Alpha virt. eigenvalues --    3.00638   3.01957   3.09267   3.11172   3.11365
 Alpha virt. eigenvalues --    3.13088   3.34752   3.41126   3.46091   3.49919
 Alpha virt. eigenvalues --    3.58724   3.60352
          Condensed to atoms (all electrons):
 Mulliken atomic charges:
              1
     1  C    0.186407
     2  C   -0.002593
     3  C    0.055739
     4  C    0.061508
     5  C    0.053005
     6  C    0.050707
     7  N   -0.253567
     8  N   -0.179918
     9  N   -0.060146
    10  C    0.220145
    11  C    0.124043
    12  N   -0.227488
    13  O   -0.292741
    14  C    0.220130
    15  C   -0.157524
    16  C    0.139352
    17  C    0.153181
    18  C    0.057409
    19  C   -0.105111
    20  C    0.051656
    21  Cl  -0.110721
    22  C    0.029215
    23  C    0.049078
    24  C    0.100170
    25  C    0.033420
    26  C   -0.047299
    27  C    0.128631
    28  C   -0.080138
    29  C    0.114503
    30  C    0.111555
    31  N    0.017042
    32  N   -0.164513
    33  H   -0.030847
    34  H   -0.034973
    35  H   -0.035374
    36  H   -0.038353
    37  H    0.040554
    38  H    0.036635
    39  H    0.037151
    40  H    0.003245
    41  H   -0.029794
    42  H   -0.038822
    43  H   -0.027279
    44  H   -0.030800
    45  H   -0.049664
    46  H   -0.043956
    47  H   -0.039566
    48  H   -0.044532
    49  H   -0.013216
    50  H   -0.025288
    51  H    0.089745
 Sum of Mulliken atomic charges =   0.00000
 Mulliken charges with hydrogens summed into heavy atoms:
              1
     1  C    0.186407
     2  C   -0.002593
     3  C    0.024892
     4  C    0.026535
     5  C    0.017631
     6  C    0.012354
     7  N   -0.253567
     8  N   -0.179918
     9  N   -0.060146
    10  C    0.297334
    11  C    0.124043
    12  N   -0.227488
    13  O   -0.292741
    14  C    0.260526
    15  C   -0.157524
    16  C    0.109558
    17  C    0.114359
    18  C    0.030130
    19  C   -0.105111
    20  C    0.020857
    21  Cl  -0.110721
    22  C   -0.020449
    23  C    0.049078
    24  C    0.056214
    25  C   -0.006146
    26  C   -0.047299
    27  C    0.084099
    28  C   -0.080138
    29  C    0.101287
    30  C    0.086266
    31  N    0.106787
    32  N   -0.164513
 Sum of Mulliken charges with hydrogens summed into heavy atoms =   0.00000
 Electronic spatial extent (au):  <R**2>=          18679.0451
 Charge=              0.0000 electrons
 Dipole moment (field-independent basis, Debye):
    X=              1.4562    Y=             -0.6195    Z=              3.3090  Tot=              3.6679
 Quadrupole moment (field-independent basis, Debye-Ang):
   XX=           -191.1793   YY=           -192.9125   ZZ=           -177.8714
   XY=             17.3770   XZ=             12.4200   YZ=              7.2587
 Traceless Quadrupole moment (field-independent basis, Debye-Ang):
   XX=             -3.8582   YY=             -5.5915   ZZ=              9.4497
   XY=             17.3770   XZ=             12.4200   YZ=              7.2587
 Octapole moment (field-independent basis, Debye-Ang**2):
  XXX=            -95.3579  YYY=            -44.7817  ZZZ=              8.1350  XYY=             54.5381
  XXY=             32.0960  XXZ=             63.2491  XZZ=             32.6518  YZZ=             23.9537
  YYZ=            105.5512  XYZ=             57.6945
 Hexadecapole moment (field-independent basis, Debye-Ang**3):
 XXXX=         -14123.6681 YYYY=          -9518.2543 ZZZZ=           -787.6259 XXXY=            489.7930
 XXXZ=            454.3447 YYYX=            214.1518 YYYZ=            288.8402 ZZZX=             19.9130
 ZZZY=             37.5577 XXYY=          -4074.9149 XXZZ=          -2574.4521 YYZZ=          -1580.1561
 XXYZ=            250.1451 YYXZ=            459.6320 ZZXY=            113.7345
 N-N= 3.073984609111D+03 E-N=-1.033349960379D+04  KE= 1.781549133328D+03
 No NMR shielding tensors so no spin-rotation constants.
 Leave Link  601 at Thu Sep  8 03:32:53 2022, MaxMem=  209715200 cpu:       4.0
 (Enter /opt/gaussian/l701.exe)
 Compute integral first derivatives.
 ... and contract with generalized density number  0.
 Leave Link  701 at Thu Sep  8 03:32:53 2022, MaxMem=  209715200 cpu:       3.4
 (Enter /opt/gaussian/l702.exe)
 L702 exits ... SP integral derivatives will be done elsewhere.
 Leave Link  702 at Thu Sep  8 03:32:53 2022, MaxMem=  209715200 cpu:       0.2
 (Enter /opt/gaussian/l703.exe)
 Compute integral first derivatives, UseDBF=F ICtDFT=           0.
 Integral derivatives from FoFDir, PRISM(SPDF).
 Calling FoFJK, ICntrl=      2127 FMM=F ISym2X=0 I1Cent= 0 IOpClX= 0 NMat=1 NMatS=1 NMatT=0.
 FoFCou: FMM=F IPFlag=           0 FMFlag=      100000 FMFlg1=         800
         NFxFlg=           0 DoJE=F BraDBF=F KetDBF=F FulRan=T
         Omega=  0.000000  0.000000  1.000000  0.000000  0.000000 ICntrl=    2127 IOpCl=  0
         NMat0=    1 NMatS0=    1 NMatT0=    0 NMatD0=    1 NMtDS0=    0 NMtDT0=    0
         I1Cent=           0 NGrid=           0.
 Symmetry not used in FoFCou.
 Leave Link  703 at Thu Sep  8 03:37:01 2022, MaxMem=  209715200 cpu:    1979.7
 (Enter /opt/gaussian/l716.exe)
 Dipole        = 5.72925660D-01-2.43740167D-01 1.30184513D+00
 ***** Axes restored to original set *****
 -------------------------------------------------------------------
 Center     Atomic                   Forces (Hartrees/Bohr)
 Number     Number              X              Y              Z
 -------------------------------------------------------------------
      1        6           0.005162801   -0.010816693    0.006068609
      2        6           0.005563661    0.014556687   -0.004535860
      3        6           0.003125236    0.003789793   -0.000544067
      4        6           0.003132293    0.000112738    0.000896084
      5        6          -0.004046706    0.005923409   -0.003326357
      6        6           0.003966699   -0.006177457    0.003774598
      7        7          -0.000121938    0.000492545    0.001168106
      8        7          -0.017606436    0.010769770   -0.010125303
      9        7           0.017307783   -0.001372096    0.005827394
     10        6          -0.001688908   -0.001229231   -0.009084106
     11        6          -0.011888210   -0.015767280    0.003398979
     12        7           0.008580374    0.002953561   -0.005484515
     13        8           0.000858599    0.001419625   -0.000807384
     14        6           0.004942635    0.000998163    0.011131113
     15        6           0.027452105    0.002572312   -0.005724724
     16        6          -0.002220609   -0.001598297    0.001688727
     17        6          -0.001299224    0.000819523   -0.000068688
     18        6           0.001694494    0.003692820   -0.003037083
     19        6          -0.005218260    0.003710283   -0.003308452
     20        6           0.002027750   -0.000079644   -0.000227381
     21       17          -0.016642165   -0.001152077    0.003106214
     22        6          -0.003534987   -0.001241234   -0.001651788
     23        6           0.005975643    0.008092701    0.001796055
     24        6           0.001355461    0.002319234   -0.000768096
     25        6          -0.000126534   -0.003937830    0.001179723
     26        6          -0.005178628   -0.005983838   -0.000165594
     27        6           0.002406420    0.001474692    0.000742018
     28        6          -0.010060767   -0.010560033   -0.011899429
     29        6           0.003744744    0.002373766    0.003348308
     30        6          -0.003958767   -0.007931571    0.015365542
     31        7          -0.011434409   -0.010292818   -0.020879212
     32        7           0.015174736    0.020088929    0.001903300
     33        1           0.007453042   -0.011161364    0.006047410
     34        1          -0.006240885    0.011227980   -0.006538011
     35        1          -0.007319395   -0.011962160    0.002766675
     36        1          -0.013892432   -0.001399510   -0.003419442
     37        1           0.008816366    0.011961843    0.002523466
     38        1          -0.003931675   -0.005834016    0.011048879
     39        1          -0.011833585   -0.006266018   -0.002855358
     40        1           0.006085888    0.005999437   -0.009462419
     41        1           0.009385680   -0.009069901    0.006075165
     42        1           0.005110626    0.009790741   -0.008805798
     43        1          -0.004766306   -0.010211004    0.008739583
     44        1          -0.013955061   -0.000474557    0.002384765
     45        1           0.010378433    0.000210769    0.009491790
     46        1           0.001661638   -0.010855528    0.008383410
     47        1          -0.002218791    0.011208079   -0.008410024
     48        1          -0.010497381   -0.000270625   -0.009147350
     49        1          -0.000370158   -0.004239310    0.015337875
     50        1          -0.003359834   -0.000575262   -0.016570774
     51        1           0.012048942    0.013899954    0.012653425
 -------------------------------------------------------------------
 Cartesian Forces:  Max     0.027452105 RMS     0.008022940
 Leave Link  716 at Thu Sep  8 03:37:01 2022, MaxMem=  209715200 cpu:       0.2
 (Enter /opt/gaussian/l103.exe)

 GradGradGradGradGradGradGradGradGradGradGradGradGradGradGradGradGradGrad
 Berny optimization.
 Internal  Forces:  Max     0.022324091 RMS     0.005692423
 Search for a local minimum.
 Step number   1 out of a maximum of  288
 All quantities printed in internal units (Hartrees-Bohrs-Radians)
 RMS Force = .56924D-02 SwitMx=.10000D-02 MixMth= 1
 Mixed Optimization -- RFO/linear search
 Second derivative matrix not updated -- first step.
 ITU=  0
     Eigenvalues ---    0.00489   0.00580   0.00649   0.01095   0.01181
     Eigenvalues ---    0.01220   0.01254   0.01327   0.01541   0.01586
     Eigenvalues ---    0.01772   0.01840   0.01940   0.02046   0.02051
     Eigenvalues ---    0.02068   0.02104   0.02158   0.02164   0.02168
     Eigenvalues ---    0.02169   0.02195   0.02196   0.02212   0.02223
     Eigenvalues ---    0.02225   0.02230   0.02246   0.02249   0.02254
     Eigenvalues ---    0.02255   0.02262   0.02265   0.02274   0.02274
     Eigenvalues ---    0.02283   0.02308   0.02308   0.02311   0.02337
     Eigenvalues ---    0.02344   0.02364   0.02387   0.02416   0.04826
     Eigenvalues ---    0.05290   0.06418   0.06631   0.09704   0.10114
[...]
 90,-0.00261011,0.00162448,0.00491585,-0.00159710,0.00499666,0.00197276
 ,-0.00017720,0.00159137,0.00257884,-0.01534250,-0.00234914,-0.00658150
 ,-0.14594528,0.00495190,-0.15324774,-0.00002248,0.00015063,-0.00002731
 ,0.00012695,-0.00001917,-0.00003628,0.00000806,0.00004938,-0.00004898,
 -0.00004791,-0.00006387,-0.00000159,-0.00003361,-0.00005057,0.00000025
 ,-0.00000706,-0.00000833,0.00000325,-0.00000822,0.00001447,-0.00000635
 ,-0.00002060,-0.00000855,0.00000473,-0.00002219,-0.00000971,0.00000470
 ,-0.00019910,-0.00002324,-0.00008742,-0.00003474,-0.00007792,-0.000009
 49,0.00004837,-0.00003022,-0.00003778,0.00000956,-0.00000389,-0.000090
 22,0.00000127,-0.00000033,-0.00000146,0.00000824,-0.00000609,-0.000019
 61,-0.00000120,-0.00000032,-0.00000118,-0.00000611,0.00001563,-0.00000
 678,0.00031708,-0.00027752,-0.00049606,-0.00087494,-0.00002318,-0.0002
 7329,0.00214736,-0.00136575,-0.00192831,0.16090623,-0.00795091,0.15448
 036,-0.00001111,-0.00000633,-0.00000236,0.00000556,-0.00000061,-0.0000
 0031,0.00000170,-0.00000203,0.00000182,-0.00000702,0.00000105,-0.00000
 218,0.00000232,-0.00000019,0.00000149,0.00000195,0.00000503,-0.0000002
 1,0.00000939,-0.00000688,0.00001016,0.00000341,0.00000038,0.00000527,0
 .00001006,0.00001526,0.00000662,-0.00002599,-0.00000926,-0.00000754,-0
 .00000398,-0.00003051,0.00001380,0.00006822,-0.00000199,-0.00003621,0.
 00001470,0.00005084,0.00000488,0.00000871,-0.00003738,-0.00002841,0.00
 005709,-0.00000132,-0.00001246,-0.00001315,0.00000130,0.00000123,-0.00
 001032,0.00001103,-0.00000286,0.00000193,-0.00000224,0.00000309,0.0000
 0609,0.00000130,0.00000672,-0.00000905,0.00000410,0.00000265,-0.000037
 82,-0.00000337,0.00000719,-0.00010210,0.00015473,0.00014991,-0.0002940
 3,0.00167657,0.00114292,-0.00031753,-0.00016224,0.00016149,-0.00045964
 ,-0.00028437,-0.00016475,0.00011704,-0.00015960,0.00022186,0.00009038,
 0.00029552,-0.00008705,0.00275788,0.01042839,-0.00950395,-0.05527136,0
 .01721698,-0.07287708,-0.00059114,-0.00294930,-0.00467909,0.00388964,-
 0.00350469,0.01719623,0.00234419,-0.00541926,-0.00104276,-0.00000186,-
 0.00000133,-0.00000092,0.00000035,-0.00000157,-0.00000037,0.00000157,0
 .00000140,-0.00000045,0.00000234,0.00000037,0.00000014,-0.00000305,-0.
 00000173,-0.00000893,-0.00000105,-0.00000337,0.00000214,0.00000137,0.0
 0000488,-0.00000368,-0.00000136,-0.00000083,-0.00000263,0.00000040,0.0
 0000182,-0.00000120,0.00000693,-0.00000204,-0.00000101,-0.00000100,-0.
 00000069,-0.00000062,0.00000024,-0.00000594,0.00000029,0.00036425,-0.0
 0045316,-0.00037410,-0.00000458,-0.00001245,-0.00000979,0.00003726,-0.
 00000001,0.00003085,0.00000315,-0.00001149,-0.00001006,0.04735151,-0.0
 0001314,-0.00000926,0.00000227,0.00000033,-0.00000374,0.00000377,0.000
 00341,0.00000321,-0.00000102,0.00000007,0.00000151,-0.00000079,-0.0000
 0217,-0.00000004,-0.00000179,0.00000145,-0.00000174,0.00000032,0.00000
 682,-0.00001747,0.00000439,0.00001814,-0.00000780,0.00000563,0.0000036
 2,0.00001979,-0.00002036,-0.00001596,0.00000489,-0.00000469,-0.0000852
 8,-0.00001744,0.00004206,0.00006516,0.00002002,0.00001147,0.00004120,0
 .00002513,-0.00000965,0.00000647,0.00000029,-0.00000614,-0.00000754,-0
 .00000183,0.00000478,0.00000467,-0.00000038,0.00000148,0.00000335,0.00
 000314,0.00000316,-0.00000140,-0.00000073,0.00000325,-0.00000529,0.000
 00358,0.00000081,-0.00000069,0.00000116,0.00000159,0.00000917,0.000005
 29,0.00000002,-0.00039733,-0.00022353,-0.00037600,0.00115235,-0.000636
 30,-0.00005794,0.00023998,-0.00004896,0.00014890,0.00004107,0.00010129
 ,0.00009670,-0.00008606,0.00000045,-0.00007590,0.00001523,-0.00008163,
 0.00009792,0.00107644,0.00914329,-0.00768071,0.01340917,-0.09981095,0.
 11225743,-0.00424317,-0.00038266,-0.00164821,0.01176824,-0.00805881,0.
 02527031,-0.00478534,-0.00233934,0.00170425,-0.00000391,-0.00000069,0.
 00000198,0.00000062,-0.00000019,0.00000124,-0.00000006,0.00000054,0.00
 000026,0.00000094,0.00000028,0.00000069,-0.00000690,0.00000656,0.00000
 489,0.00000267,0.00000012,0.00000134,0.00000042,0.00000278,0.00000134,
 -0.00000139,-0.00000276,-0.00000339,-0.00000093,-0.00000231,-0.0000011
 3,-0.00000124,-0.00000246,-0.00000723,0.00000037,0.00000022,-0.0000018
 7,-0.00000033,-0.00000108,-0.00000095,-0.00051614,-0.00094295,-0.00024
 981,-0.00001475,-0.00002325,-0.00002050,0.00006151,-0.00000097,0.00003
 283,0.00000648,-0.00000474,-0.00000270,-0.01835199,0.10240578,-0.00001
 203,-0.00000813,0.00000167,0.00000151,-0.00000303,0.00000310,0.0000032
 4,0.00000239,-0.00000096,-0.00000076,0.00000168,-0.00000094,-0.0000014
 7,-0.00000006,-0.00000151,0.00000153,-0.00000096,0.00000041,0.00000628
 ,-0.00001732,0.00000300,0.00001565,-0.00000590,0.00000639,0.00000342,0
 .00001812,-0.00001643,-0.00001604,0.00000212,-0.00000354,-0.00009488,-
 0.00002051,0.00004892,0.00008410,0.00003085,0.00002312,0.00004603,0.00
 003384,-0.00001271,0.00001389,-0.00000303,-0.00000686,-0.00001262,-0.0
 0000263,0.00000700,0.00000495,-0.00000028,-0.00000077,0.00000416,0.000
 00225,0.00000435,-0.00000105,-0.00000100,0.00000115,-0.00000540,0.0000
 0288,0.00000193,0.00000029,0.00000099,0.00000039,0.00001134,0.00000568
 ,-0.00000194,-0.00063053,0.00026365,-0.00034072,0.00110246,0.00004835,
 -0.00038830,0.00034958,-0.00017176,0.00026890,-0.00009192,-0.00012361,
 -0.00002425,-0.00001980,-0.00000487,-0.00007857,-0.00000771,0.00002038
 ,0.00005681,0.00289861,0.00936075,-0.00494861,-0.06903216,0.11965811,-
 0.28621958,-0.00290601,0.00084455,-0.00165212,-0.00080344,-0.00226710,
 -0.00247129,-0.00208887,0.00069955,0.00196310,-0.00000379,-0.00000065,
 0.00000210,0.00000078,-0.00000033,0.00000090,0.00000012,0.00000051,0.0
 0000028,0.00000099,0.00000028,0.00000055,-0.00000640,0.00000386,0.0000
 0724,0.00000549,0.00000115,0.00000127,-0.00000034,0.00000507,0.0000019
 2,-0.00000194,-0.00000244,-0.00000480,-0.00000141,-0.00000079,-0.00000
 011,-0.00000177,-0.00000256,-0.00000859,0.00000105,0.00000172,-0.00000
 151,0.00000047,-0.00000114,-0.00000021,0.00018600,-0.00041270,0.000504
 95,-0.00002833,-0.00000965,-0.00000072,0.00008317,-0.00001091,0.000039
 66,-0.00000332,-0.00001256,-0.00000174,0.07031275,-0.12872058,0.293727
 30,-0.00000187,0.00000774,-0.00000251,0.00000008,0.00000290,-0.0000001
 3,-0.00000079,-0.00000392,0.00000112,-0.00000740,-0.00000085,-0.000002
 17,0.00000548,-0.00000090,0.00000199,0.00000145,0.00000698,-0.00000210
 ,0.00000741,0.00000850,0.00000009,-0.00001292,0.00000519,-0.00001022,0
 .00002021,-0.00001320,0.00000556,-0.00000310,-0.00000606,0.00000285,-0
 .00003255,-0.00001696,0.00000905,0.00003485,0.00003204,-0.00003792,0.0
 0001954,0.00003788,0.00000281,0.00002130,-0.00002792,-0.00001935,0.000
 02926,-0.00000062,-0.00000550,-0.00000809,0.00000125,0.00000067,-0.000
 00352,0.00001094,-0.00000586,0.00000058,-0.00000198,0.00000235,0.00000
 539,-0.00000284,0.00000689,-0.00000585,0.00000275,0.00000066,-0.000020
 22,-0.00000156,0.00000520,0.00010900,0.00019155,-0.00013387,-0.0011898
 4,0.00043658,0.00032505,-0.00014438,-0.00005785,-0.00006152,-0.0001651
 5,-0.00033778,0.00030625,0.00007906,-0.00008297,0.00010024,-0.00008055
 ,0.00025603,-0.00006520,0.00457141,0.00059059,0.00497895,0.00153320,-0
 .00316794,-0.00028360,-0.09678258,0.00462574,-0.12036782,0.00102535,-0
 .00549069,-0.00399494,-0.01216725,0.00614678,-0.01540115,-0.00000109,0
 .00000004,0.00000003,-0.00000151,-0.00000130,0.00000013,0.00000151,0.0
 0000158,-0.00000025,0.00000187,0.00000046,0.00000037,-0.00000088,-0.00
 000116,0.00000419,0.00000189,0.00000243,-0.00000001,0.00000023,0.00000
 572,-0.00000038,-0.00000020,-0.00000211,-0.00000096,-0.00000013,0.0000
 0029,-0.00000075,0.00000471,-0.00000055,-0.00000233,-0.00000068,0.,-0.
 00000047,0.00000065,-0.00000465,0.00000100,-0.00000823,0.00004163,-0.0
 0002775,-0.00000711,0.00000527,-0.00000023,-0.00040439,-0.00086755,0.0
 0013168,-0.00001409,-0.00001277,0.00002059,0.00083110,-0.00005900,-0.0
 0006721,0.10163822,-0.00001325,-0.00000774,0.00000270,0.00000226,-0.00
 000223,0.00000497,0.00000318,0.00000100,-0.00000045,-0.00000327,0.0000
 0239,-0.00000232,-0.00000050,-0.00000044,-0.00000139,0.00000204,0.0000
 0008,-0.00000044,0.00000717,-0.00002042,0.00000458,0.00001529,-0.00000
 707,0.00000201,0.00000850,0.00001777,-0.00002384,-0.00001542,0.0000009
 5,-0.00000230,-0.00009581,-0.00003473,0.00005286,0.00000431,0.00006807
 ,-0.00000679,0.00004467,0.00003413,-0.00001412,0.00001185,-0.00000662,
 0.00000585,0.00001428,-0.00000060,-0.00000132,-0.00000250,0.00000182,-
 0.00000172,-0.00000752,-0.00000380,0.00000739,0.00000103,-0.00000035,0
 .00000012,0.00000436,0.,-0.00000177,-0.00000452,0.00000306,-0.00000110
 ,-0.00000648,0.00000314,-0.00000106,-0.00008974,-0.00054816,0.00005708
 ,0.00124463,0.00098284,-0.00070038,0.00023322,0.00017945,0.00003651,0.
 00012504,-0.00025275,0.00010284,-0.00016963,0.00005751,-0.00019398,-0.
 00011691,-0.00022254,-0.00024682,0.01051569,0.00441448,0.01475449,-0.0
 0264224,-0.00371575,0.00390922,0.00762524,-0.05418744,0.03996425,-0.00
 721515,-0.00102180,-0.00265221,-0.00591257,0.00360212,-0.02283675,-0.0
 0000408,-0.00000072,0.00000243,0.00000074,-0.00000019,0.00000155,0.000
 00028,0.00000076,0.00000040,0.00000134,0.00000060,0.00000080,-0.000005
 06,0.00000500,0.00001007,0.00000539,0.00000040,0.00000060,-0.00000248,
 0.00000537,0.00000178,0.00000105,-0.00000367,-0.00000629,-0.00000092,0
 .00000103,-0.00000056,0.00000335,-0.00000403,-0.00000295,0.00000033,0.
 00000210,-0.00000165,0.00000070,-0.00000177,0.00000032,-0.00003055,0.0
 0007592,-0.00004762,-0.00001709,0.00000135,0.00001340,-0.00088396,-0.0
 0012853,0.00031376,-0.00001752,-0.00001629,0.00001454,0.00052701,0.001
 00901,0.00079929,-0.00206671,0.04839053,-0.00000008,-0.00000922,0.0000
 0269,-0.00000148,-0.00000430,-0.00000020,0.00000110,0.00000442,-0.0000
 0115,0.00000800,0.00000028,0.00000222,-0.00000602,0.00000085,-0.000002
 02,-0.00000165,-0.00000731,0.00000205,-0.00000713,-0.00000488,-0.00000
 031,0.00001382,-0.00000630,0.00000886,-0.00001978,0.00001432,-0.000003
 04,0.00000111,0.00000514,-0.00000566,0.00003442,0.00001923,-0.00001061
 ,-0.00003081,-0.00006871,0.00005901,-0.00001891,-0.00003135,-0.0000017
 7,-0.00000817,0.00002659,0.00001124,-0.00002066,0.00000043,0.00000365,
 0.00000527,-0.00000117,0.00000050,0.00000487,-0.00000415,0.00000063,-0
 .00000053,0.00000101,-0.00000092,-0.00000351,0.00000107,-0.00000283,0.
 00000347,-0.00000230,0.00000021,0.00001381,0.00000032,-0.00000234,0.00
 018497,0.00021479,0.00000322,0.00000982,-0.00097293,-0.00046471,-0.000
 02575,-0.00003502,0.00002551,-0.00052709,0.00064412,-0.00034940,0.0000
 0760,0.00002491,-0.00008774,0.00027589,-0.00029816,0.00029114,-0.00696
 787,-0.00405435,-0.00613818,-0.00100419,0.00277061,-0.00097548,-0.1247
 0749,0.03494679,-0.28649646,-0.00221993,0.00060447,0.00249291,-0.00045
 850,-0.00151871,-0.00629334,0.00000099,-0.00000021,-0.00000026,0.00000
 099,0.00000139,0.00000002,-0.00000142,-0.00000140,0.00000012,-0.000001
 81,-0.00000051,-0.00000028,0.00000071,0.00000306,-0.00000550,-0.000001
 82,-0.00000232,0.00000052,-0.00000096,-0.00000121,0.00000206,0.0000012
 8,0.00000234,0.00000076,0.00000031,-0.00000089,0.00000038,-0.00000314,
 0.00000160,0.00000180,0.00000013,-0.00000067,0.00000050,-0.00000091,0.
 00000330,-0.00000072,0.00004413,-0.00007635,0.00004828,0.00001428,0.00
 001505,0.00000171,0.00051247,-0.00014041,0.00058954,0.00000119,0.00003
 250,0.00000475,-0.00073232,-0.00017959,-0.00006052,0.13622188,-0.03262
 251,0.29694440,-0.00001882,-0.00000431,-0.00000303,0.00000508,-0.00000
 049,0.00000205,0.00000295,-0.00000322,0.00000133,-0.00001201,0.0000008
 3,-0.00000388,0.00000516,-0.00000151,0.00000175,0.00000333,0.00000922,
 -0.00000185,0.00001554,-0.00000990,0.00000697,0.00000091,0.00000132,0.
 00000090,0.00002863,0.00001169,-0.00000122,-0.00002792,-0.00001046,-0.
 00000426,-0.00011671,-0.00005307,0.00004425,0.00006792,0.00006399,-0.0
 0003826,0.00006663,0.00009477,-0.00000239,0.00005625,-0.00005106,-0.00
 002440,0.00007372,-0.00000192,-0.00001391,-0.00001772,0.00000231,0.000
 00104,-0.00001626,0.00001229,0.00000043,0.00000303,-0.00000374,0.00000
 444,0.00001095,-0.00000411,0.00000967,-0.00001371,0.00000771,0.0000003
 9,-0.00004628,0.00000111,0.00000844,-0.00000947,0.00010581,0.00000620,
 0.00098100,-0.00087470,-0.00088427,-0.00003261,-0.00000301,0.00000583,
 0.00012853,0.00010824,0.00011875,-0.00001382,-0.00003943,0.00000082,-0
 .00015936,0.00010842,0.00018436,0.00248259,-0.00259705,0.00127692,-0.0
 0730875,0.00301417,-0.00338064,0.00358912,0.00127793,-0.00309624,-0.20
 261914,-0.16867879,-0.14890655,-0.01156281,0.00082527,0.00022739,-0.00
 000530,-0.00000158,0.00000116,-0.00000070,-0.00000251,0.00000023,0.000
 00257,0.00000291,-0.00000032,0.00000406,0.00000070,0.00000090,-0.00000
 690,0.00000256,0.00000877,0.00000684,0.00000102,0.00000203,-0.00000226
 ,0.00001887,0.00000194,-0.00000257,-0.00000455,-0.00000871,-0.00000062
 ,0.00000212,-0.00000204,0.00000951,-0.00000534,-0.00000697,-0.00000065
 ,0.00000138,-0.00000221,0.00000146,-0.00000946,0.00000125,0.00004073,-
 0.00002564,-0.00003440,0.00000719,0.00001557,-0.00000943,0.00001174,-0
 .00003068,-0.00012479,0.00002286,0.00000467,-0.00000148,-0.00082364,0.
 00066066,0.00070129,0.00112065,-0.00107902,-0.00059054,0.21406909,-0.0
 0002266,-0.00001242,0.00000171,0.00000189,-0.00000495,0.00000479,0.000
 00563,0.00000258,-0.00000084,-0.00000451,0.00000277,-0.00000316,-0.000
 00084,-0.00000037,-0.00000187,0.00000306,0.00000080,-0.00000039,0.0000
 1513,-0.00002526,0.00000780,0.00002317,-0.00000940,0.00000707,0.000012
 68,0.00003019,-0.00002343,-0.00002878,0.00000045,-0.00001083,-0.000137
 56,-0.00003026,0.00006789,0.00006527,0.00002530,-0.00001811,0.00007581
 ,0.00005931,-0.00001566,0.00003366,-0.00000703,-0.00000857,-0.00000446
 ,-0.00000086,0.00000398,0.00000252,0.00000158,-0.00000075,0.00000032,0
 .00000147,0.00000457,-0.00000043,-0.00000167,0.00000313,0.00000112,-0.
 00000009,0.00000450,-0.00000350,0.00000435,-0.00000071,0.00000606,0.00
 000584,-0.00000129,-0.00000989,0.00017057,-0.00007216,-0.00135742,0.00
 081612,-0.00070153,0.00008407,-0.00002419,0.00003739,0.00002816,-0.000
 41414,0.00012232,-0.00003347,0.00006801,-0.00006903,-0.00012848,-0.000
 09683,-0.00016639,-0.00247352,-0.00393468,0.00413965,-0.00986395,-0.00
 473233,-0.01993826,0.00130076,0.00130921,0.00554654,-0.17116711,-0.177
 77757,-0.09515801,0.01568441,0.00912045,0.00270761,-0.00000669,-0.0000
 0131,0.00000309,0.00000054,-0.00000108,0.00000201,0.00000073,0.0000017
 1,0.00000036,0.00000270,0.00000086,0.00000136,-0.00000618,0.00000758,0
 .00001021,0.00000756,0.00000064,0.00000232,-0.00000265,0.00001342,0.00
 000378,-0.00000169,-0.00000518,-0.00000987,-0.00000192,-0.00000152,-0.
 00000107,0.00000055,-0.00000387,-0.00000765,0.00000071,0.00000177,-0.0
 0000296,0.00000065,-0.00000364,-0.00000003,0.00000366,0.00000305,0.000
 03494,-0.00000663,0.00000034,-0.00000495,-0.00005724,0.00000544,0.0000
 1438,-0.00002046,-0.00003149,0.00001493,0.00103019,-0.00013427,-0.0000
 0361,-0.00019101,0.00132676,0.00070636,0.16714002,0.17427383,-0.000028
 83,-0.00001462,0.00000313,0.00000376,-0.00000489,0.00000738,0.00000694
 ,0.00000257,-0.00000181,-0.00000571,0.00000247,-0.00000356,-0.00000016
 ,-0.00000109,-0.00000243,0.00000443,0.00000192,-0.00000085,0.00001679,
 -0.00003056,0.00000530,0.00002662,-0.00001046,0.00000713,0.00001938,0.
 00003242,-0.00003359,-0.00003557,-0.00000547,-0.00001123,-0.00022111,-
 0.00004734,0.00011106,0.00008839,0.00005349,-0.00003518,0.00011722,0.0
 0010287,-0.00002768,0.00007532,-0.00002758,-0.00001927,0.00003101,-0.0
 0000224,-0.00000342,-0.00000749,0.00000275,-0.00000258,-0.00000772,0.0
 0000625,0.00000372,0.00000191,-0.00000417,0.00000263,0.00000900,-0.000
 00517,0.00001017,-0.00001094,0.00000739,-0.00000226,-0.00001819,0.0000
 0435,0.00000103,0.00014097,0.00009494,-0.00001833,-0.00067257,-0.00013
 869,0.00107759,0.00003747,-0.00004808,-0.00000231,0.00016678,0.0003257
 7,-0.00006884,-0.00001946,0.00003985,-0.00005501,0.00003321,-0.0001702
 1,-0.00001490,0.00141987,0.00443800,0.00084804,0.01121107,0.00218038,0
 .00960687,-0.00298410,0.00513046,-0.00660494,-0.14635365,-0.09070571,-
 0.15072744,-0.01624916,-0.02268460,-0.01403984,-0.00000904,-0.00000151
 ,0.00000498,0.00000058,-0.00000113,0.00000253,0.00000128,0.00000226,0.
 00000077,0.00000301,0.00000087,0.00000179,-0.00001032,0.00001216,0.000
 02291,0.00001587,0.00000504,0.00000306,-0.00000680,0.00002742,0.000007
 71,-0.00000163,-0.00000736,-0.00001648,-0.00000218,0.00000181,-0.00000
 036,0.00000603,-0.00000499,-0.00000924,0.00000072,0.00000421,-0.000002
 85,0.00000185,-0.00000719,0.00000200,-0.00003950,-0.00001175,0.0000244
 4,0.00000520,0.00002481,-0.00000677,0.00002592,-0.00003296,0.00006666,
 0.00001686,0.00002235,0.00001768,0.00030976,-0.00063410,-0.00042912,-0
 .00163541,-0.00069345,0.00040475,0.15452229,0.10276847,0.15989698\\0.0
 0000629,0.00000286,0.00000503,0.00000648,0.00001087,-0.00000483,0.0000
 0084,-0.00000144,-0.00000389,-0.00000216,-0.00000180,-0.00000399,0.000
 00034,-0.00000977,0.00000206,-0.00000622,0.00000322,-0.00000510,-0.000
 00469,0.00000253,-0.00000802,-0.00000221,-0.00000794,0.00000746,0.0000
 0296,-0.00000138,-0.00000634,0.00000063,-0.00000059,0.00000593,-0.0000
 0061,0.00000211,0.00000828,0.00000313,0.00000896,-0.00000651,-0.000002
 86,-0.00000551,-0.00000083,-0.00000390,-0.00000078,-0.00000075,-0.0000
 1084,0.00000017,0.00000469,-0.00000002,0.00000203,0.00000040,0.0000003
 7,-0.00000121,0.00000422,0.00000193,-0.00000580,0.00000670,0.00000703,
 0.00000154,-0.00000156,-0.00000950,0.00000259,-0.00000243,0.00001135,0
 .00000041,-0.00000035,0.00000374,0.00000302,0.00000507,-0.00000301,-0.
 00000753,0.00000224,0.00000107,-0.00000160,0.00000241,0.00000186,0.000
 00400,-0.00000215,-0.00000413,-0.00001061,0.00000084,-0.00000240,0.000
 00265,-0.00000121,0.00000415,0.00000735,-0.00000448,-0.00000384,-0.000
 00507,0.00000148,-0.00000712,-0.00000518,0.00000121,0.00000187,0.00000
 974,-0.00000939,0.00000779,0.00000181,0.00000794,-0.00000223,-0.000001
 35,0.00000092,-0.00000127,-0.00000141,-0.00000182,0.00000092,-0.000000
 21,-0.00000119,0.00000065,0.00000030,-0.00000204,-0.00000044,-0.000001
 18,-0.00000176,0.00000033,0.00000147,-0.00000458,0.00000400,0.00000245
 ,0.00000275,-0.00000151,-0.00000206,-0.00000089,0.00000054,-0.00000140
 ,0.00000431,0.00000026,0.00000157,-0.00000063,0.00000192,0.00000088,0.
 00000094,0.00000093,-0.00000068,0.00000236,-0.00000113,-0.00000113,-0.
 00000042,0.,0.00000167,0.00000159,-0.00000024,-0.00000108,-0.00000116,
 0.00000116,-0.00000127,-0.00000108,-0.00000241,0.00000026,-0.00000039,
 0.00000265,0.00000319,0.00000064,-0.00000247,0.00000030,-0.00000166\\\
 @


 A ROPE OVER THE TOP OF A FENCE HAS THE SAME LENGTH ON EACH SIDE.
 WEIGHS 1/3 POUND PER FOOT.  ON ONE END HANGS A MONKEY HOLDING A
 BANANA, AND ON THE OTHER END A WEIGHT EQUAL TO THE WEIGHT
 OF THE MONKEY.  THE BANANA WEIGHS TWO OUNCES PER INCH.
 THE ROPE IS AS LONG AS THE AGE OF THE MONKEY, 
 AND THE WEIGHT OF THE MONKEY (IN OUNCES) IS AS MUCH
 AS THE AGE OF THE MONKEY'S MOTHER.  THE COMBINED AGES OF MONKEY
 AND MOTHER ARE THIRTY YEARS.  HALF THE WEIGHT OF THE MONKEY,
  PLUS THE WEIGHT OF THE BANANA, IS ONE FOURTH AS MUCH AS THE WEIGHT
 OF THE WEIGHT AND THE ROPE.
 THE MONKEY'S MOTHER IS HALF AS OLD AS THE MONKEY WILL BE
 WHEN IT IS 3 TIMES AS OLD AS ITS MOTHER WAS WHEN
 SHE WAS HALF AS OLD AS THE MONKEY WILL BE WHEN IT IS
 AS OLD AS ITS MOTHER WILL BE WHEN SHE IS 4 TIMES AS
 OLD AS THE MONKEY WAS WHEN IT WAS TWICE AS OLD AS 
 ITS MOTHER WAS WHEN SHE WAS ONE THIRD AS OLD AS THE
 MONKEY WAS WHEN IT WAS AS OLD AS ITS MOTHER WAS WHEN 
 SHE WAS 3 TIMES AS OLD AS THE MONKEY WAS WHEN IT WAS AS OLD AS ITS
 MOTHER WAS WHEN SHE WAS 3 TIMES AS OLD AS THE MONKEY 
 WAS WHEN IT WAS ONE FOURTH WAS OLD AS IT IS NOW.

 HOW LONG IS THE BANANA?
 Job cpu time:  0 days 22 hours 17 minutes 20.1 seconds.
 File lengths (MBytes):  RWF=   1726 Int=      0 D2E=      0 Chk=     24 Scr=      1
 Normal termination of Gaussian 09 at Thu Sep  8 09:36:17 2022.
