 Entering Gaussian System, Link 0=g09
 Input=Mol35.gjf
 Output=Mol35.log
 Initial command:
 /opt/gaussian/l1.exe /home/scr/lqcapf-6/Gau-312207.inp -scrdir=/home/scr/lqcapf-6/
 Entering Link 1 = /opt/gaussian/l1.exe PID=    312209.
  
 Copyright (c) 1988,1990,1992,1993,1995,1998,2003,2009,2011,
            Gaussian, Inc.  All Rights Reserved.
  
 This is part of the Gaussian(R) 09 program.  It is based on
 the Gaussian(R) 03 system (copyright 2003, Gaussian, Inc.),
 the Gaussian(R) 98 system (copyright 1998, Gaussian, Inc.),
 the Gaussian(R) 94 system (copyright 1995, Gaussian, Inc.),
 the Gaussian 92(TM) system (copyright 1992, Gaussian, Inc.),
 the Gaussian 90(TM) system (copyright 1990, Gaussian, Inc.),
 the Gaussian 88(TM) system (copyright 1988, Gaussian, Inc.),
 the Gaussian 86(TM) system (copyright 1986, Carnegie Mellon
 University), and the Gaussian 82(TM) system (copyright 1983,
 Carnegie Mellon University). Gaussian is a federally registered
 trademark of Gaussian, Inc.
  
 This software contains proprietary and confidential information,
 including trade secrets, belonging to Gaussian, Inc.
  
 This software is provided under written license and may be
 used, copied, transmitted, or stored only in accord with that
 written license.
  
 The following legend is applicable only to US Government
 contracts under FAR:
  
                    RESTRICTED RIGHTS LEGEND
  
 Use, reproduction and disclosure by the US Government is
 subject to restrictions as set forth in subparagraphs (a)
 and (c) of the Commercial Computer Software - Restricted
 Rights clause in FAR 52.227-19.
  
 Gaussian, Inc.
 340 Quinnipiac St., Bldg. 40, Wallingford CT 06492
  
  
 ---------------------------------------------------------------
 Warning -- This program may not be used in any manner that
 competes with the business of Gaussian, Inc. or will provide
 assistance to any competitor of Gaussian, Inc.  The licensee
 of this program is prohibited from giving any competitor of
 Gaussian, Inc. access to this program.  By using this program,
 the user acknowledges that Gaussian, Inc. is engaged in the
 business of creating and licensing software in the field of
 computational chemistry and represents and warrants to the
 licensee that it is not a competitor of Gaussian, Inc. and that
 it will not use this program in any manner prohibited above.
 ---------------------------------------------------------------
  

 Cite this work as:
 Gaussian 09, Revision C.01,
 M. J. Frisch, G. W. Trucks, H. B. Schlegel, G. E. Scuseria, 
 M. A. Robb, J. R. Cheeseman, G. Scalmani, V. Barone, B. Mennucci, 
 G. A. Petersson, H. Nakatsuji, M. Caricato, X. Li, H. P. Hratchian, 
 A. F. Izmaylov, J. Bloino, G. Zheng, J. L. Sonnenberg, M. Hada, 
 M. Ehara, K. Toyota, R. Fukuda, J. Hasegawa, M. Ishida, T. Nakajima, 
 Y. Honda, O. Kitao, H. Nakai, T. Vreven, J. A. Montgomery, Jr., 
 J. E. Peralta, F. Ogliaro, M. Bearpark, J. J. Heyd, E. Brothers, 
 K. N. Kudin, V. N. Staroverov, T. Keith, R. Kobayashi, J. Normand, 
 K. Raghavachari, A. Rendell, J. C. Burant, S. S. Iyengar, J. Tomasi, 
 M. Cossi, N. Rega, J. M. Millam, M. Klene, J. E. Knox, J. B. Cross, 
 V. Bakken, C. Adamo, J. Jaramillo, R. Gomperts, R. E. Stratmann, 
 O. Yazyev, A. J. Austin, R. Cammi, C. Pomelli, J. W. Ochterski, 
 R. L. Martin, K. Morokuma, V. G. Zakrzewski, G. A. Voth, 
 P. Salvador, J. J. Dannenberg, S. Dapprich, A. D. Daniels, 
 O. Farkas, J. B. Foresman, J. V. Ortiz, J. Cioslowski, 
 and D. J. Fox, Gaussian, Inc., Wallingford CT, 2010.
 
 ******************************************
 Gaussian 09:  EM64L-G09RevC.01 23-Sep-2011
                 7-Sep-2022 
 ******************************************
 %nprocshared=8
 Will use up to    8 processors via shared memory.
 %mem=1600MB
 -------------------------
 #p opt freq b3lyp/cc-pvdz
 -------------------------
 1/14=-1,18=20,19=15,26=3,38=1/1,3;
 2/9=110,12=2,17=6,18=5,40=1/2;
 3/5=16,11=2,16=1,25=1,30=1,71=1,74=-5/1,2,3;
 4//1;
 5/5=2,38=5/2;
 6/7=2,8=2,9=2,10=2,28=1/1;
 7//1,2,3,16;
 1/14=-1,18=20,19=15/3(2);
 2/9=110/2;
 99//99;
 2/9=110/2;
 3/5=16,11=2,16=1,25=1,30=1,71=1,74=-5/1,2,3;
 4/5=5,16=3/1;
 5/5=2,38=5/2;
 7//1,2,3,16;
 1/14=-1,18=20,19=15/3(-5);
 2/9=110/2;
 6/7=2,8=2,9=2,10=2,19=2,28=1/1;
 99/9=1/99;
 Leave Link    1 at Wed Sep  7 13:44:58 2022, MaxMem=  209715200 cpu:       0.2
 (Enter /opt/gaussian/l101.exe)
 ---------
 Mol35.log
 ---------
 Charge =  0 Multiplicity = 1
 Symbolic Z-Matrix:
 Cl                   -3.53044   5.80019  -0.59665 
 C                    -2.69685   4.34074   0.07024 
 C                    -2.76893   4.0877    1.42595 
 C                    -2.12694   2.96363   1.91914 
 C                    -1.42769   2.11667   1.06799 
 C                    -1.36216   2.38404  -0.29403 
 C                    -2.01244   3.51217  -0.79135 
 C                    -0.59282   1.50894  -1.27425 
 N                    -0.15392   0.21326  -0.75412 
 C                    -1.01579  -0.84068  -0.58262 
 O                    -0.68246  -1.88548  -0.04638 
 C                    -2.43868  -0.65741  -1.09762 
 N                    -3.22581  -1.84173  -0.94422 
 N                    -3.44498  -2.64757  -2.02213 
 N                    -4.12939  -3.65356  -1.66651 
 C                    -4.39039  -3.56117  -0.30862 
 C                    -5.10132  -4.40973   0.53897 
 C                    -5.1959   -4.04496   1.85949 
 C                    -4.59085  -2.85883   2.33209 
 C                    -3.88601  -2.01873   1.50373 
 C                    -3.79895  -2.39533   0.16106 
 C                     1.24374   0.04954  -0.45749 
 C                     1.90632   0.98061   0.32712 
 C                     3.26803   0.85435   0.55909 
 C                     3.99429  -0.20763   0.02936 
 C                     3.31624  -1.13235  -0.7676 
 C                     1.96158  -1.00546  -1.00891 
 C                     5.43812  -0.35378   0.33803 
 C                     5.92757  -0.13401   1.58385 
 C                     7.3191   -0.24124   1.89897 
 C                     8.16631  -0.58169   0.91384 
 N                     7.68751  -0.81701  -0.34376 
 C                     6.36387  -0.73913  -0.72292 
 O                     6.05634  -0.99148  -1.89262 
 H                    -3.31027   4.7463    2.07305 
 H                    -2.16973   2.74759   2.96874 
 H                    -0.93314   1.25379   1.46793 
 H                    -1.98457   3.7413   -1.83875 
 H                    -1.19011   1.36868  -2.16696 
 H                     0.29679   2.03278  -1.5925 
 H                    -2.92008   0.16824  -0.59182 
 H                    -2.42045  -0.43687  -2.15474 
 H                    -5.54907  -5.30637   0.16058 
 H                    -5.73126  -4.66562   2.55047 
 H                    -4.68197  -2.61327   3.37247 
 H                    -3.41688  -1.1305    1.8761 
 H                     1.37568   1.80914   0.75232 
 H                     3.7659    1.60283   1.14487 
 H                     3.85486  -1.93817  -1.21847 
 H                     1.46032  -1.73394  -1.61116 
 H                     5.24643   0.11807   2.37325 
 H                     7.67042  -0.06063   2.8925 
 H                     9.22216  -0.68942   1.04717 
 H                     8.31084  -1.0728   -1.0759 
 
 NAtoms=     54 NQM=        0 NQMF=       0 NMMI=     54 NMMIF=      0
                NMic=       0 NMicF=      0.
                    Isotopes and Nuclear Properties:
 (Nuclear quadrupole moments (NQMom) in fm**2, nuclear magnetic moments (NMagM)
  in nuclear magnetons)

  Atom         1           2           3           4           5           6           7           8           9          10
 IAtWgt=          35          12          12          12          12          12          12          12          14          12
 AtmWgt=  34.9688527  12.0000000  12.0000000  12.0000000  12.0000000  12.0000000  12.0000000  12.0000000  14.0030740  12.0000000
 NucSpn=           3           0           0           0           0           0           0           0           2           0
 AtZEff=   0.0000000   0.0000000   0.0000000   0.0000000   0.0000000   0.0000000   0.0000000   0.0000000   0.0000000   0.0000000
 NQMom=   -8.1650000   0.0000000   0.0000000   0.0000000   0.0000000   0.0000000   0.0000000   0.0000000   2.0440000   0.0000000
 NMagM=    0.8218740   0.0000000   0.0000000   0.0000000   0.0000000   0.0000000   0.0000000   0.0000000   0.4037610   0.0000000

  Atom        11          12          13          14          15          16          17          18          19          20
 IAtWgt=          16          12          14          14          14          12          12          12          12          12
 AtmWgt=  15.9949146  12.0000000  14.0030740  14.0030740  14.0030740  12.0000000  12.0000000  12.0000000  12.0000000  12.0000000
 NucSpn=           0           0           2           2           2           0           0           0           0           0
 AtZEff=   0.0000000   0.0000000   0.0000000   0.0000000   0.0000000   0.0000000   0.0000000   0.0000000   0.0000000   0.0000000
 NQMom=    0.0000000   0.0000000   2.0440000   2.0440000   2.0440000   0.0000000   0.0000000   0.0000000   0.0000000   0.0000000
 NMagM=    0.0000000   0.0000000   0.4037610   0.4037610   0.4037610   0.0000000   0.0000000   0.0000000   0.0000000   0.0000000

  Atom        21          22          23          24          25          26          27          28          29          30
 IAtWgt=          12          12          12          12          12          12          12          12          12          12
 AtmWgt=  12.0000000  12.0000000  12.0000000  12.0000000  12.0000000  12.0000000  12.0000000  12.0000000  12.0000000  12.0000000
 NucSpn=           0           0           0           0           0           0           0           0           0           0
 AtZEff=   0.0000000   0.0000000   0.0000000   0.0000000   0.0000000   0.0000000   0.0000000   0.0000000   0.0000000   0.0000000
 NQMom=    0.0000000   0.0000000   0.0000000   0.0000000   0.0000000   0.0000000   0.0000000   0.0000000   0.0000000   0.0000000
 NMagM=    0.0000000   0.0000000   0.0000000   0.0000000   0.0000000   0.0000000   0.0000000   0.0000000   0.0000000   0.0000000

  Atom        31          32          33          34          35          36          37          38          39          40
 IAtWgt=          12          14          12          16           1           1           1           1           1           1
 AtmWgt=  12.0000000  14.0030740  12.0000000  15.9949146   1.0078250   1.0078250   1.0078250   1.0078250   1.0078250   1.0078250
 NucSpn=           0           2           0           0           1           1           1           1           1           1
 AtZEff=   0.0000000   0.0000000   0.0000000   0.0000000   0.0000000   0.0000000   0.0000000   0.0000000   0.0000000   0.0000000
 NQMom=    0.0000000   2.0440000   0.0000000   0.0000000   0.0000000   0.0000000   0.0000000   0.0000000   0.0000000   0.0000000
 NMagM=    0.0000000   0.4037610   0.0000000   0.0000000   2.7928460   2.7928460   2.7928460   2.7928460   2.7928460   2.7928460

  Atom        41          42          43          44          45          46          47          48          49          50
 IAtWgt=           1           1           1           1           1           1           1           1           1           1
 AtmWgt=   1.0078250   1.0078250   1.0078250   1.0078250   1.0078250   1.0078250   1.0078250   1.0078250   1.0078250   1.0078250
 NucSpn=           1           1           1           1           1           1           1           1           1           1
 AtZEff=   0.0000000   0.0000000   0.0000000   0.0000000   0.0000000   0.0000000   0.0000000   0.0000000   0.0000000   0.0000000
 NQMom=    0.0000000   0.0000000   0.0000000   0.0000000   0.0000000   0.0000000   0.0000000   0.0000000   0.0000000   0.0000000
 NMagM=    2.7928460   2.7928460   2.7928460   2.7928460   2.7928460   2.7928460   2.7928460   2.7928460   2.7928460   2.7928460

  Atom        51          52          53          54
 IAtWgt=           1           1           1           1
 AtmWgt=   1.0078250   1.0078250   1.0078250   1.0078250
 NucSpn=           1           1           1           1
 AtZEff=   0.0000000   0.0000000   0.0000000   0.0000000
 NQMom=    0.0000000   0.0000000   0.0000000   0.0000000
 NMagM=    2.7928460   2.7928460   2.7928460   2.7928460
 Leave Link  101 at Wed Sep  7 13:44:58 2022, MaxMem=  209715200 cpu:       0.9
 (Enter /opt/gaussian/l103.exe)

 GradGradGradGradGradGradGradGradGradGradGradGradGradGradGradGradGradGrad
 Berny optimization.
 Initialization pass.
                           ----------------------------
                           !    Initial Parameters    !
                           ! (Angstroms and Degrees)  !
 --------------------------                            --------------------------
 ! Name  Definition              Value          Derivative Info.                !
 --------------------------------------------------------------------------------
 ! R1    R(1,2)                  1.8082         estimate D2E/DX2                !
 ! R2    R(2,3)                  1.381          estimate D2E/DX2                !
 ! R3    R(2,7)                  1.3774         estimate D2E/DX2                !
 ! R4    R(3,4)                  1.3853         estimate D2E/DX2                !
 ! R5    R(3,35)                 1.0703         estimate D2E/DX2                !
 ! R6    R(4,5)                  1.3895         estimate D2E/DX2                !
 ! R7    R(4,36)                 1.0725         estimate D2E/DX2                !
 ! R8    R(5,6)                  1.3896         estimate D2E/DX2                !
 ! R9    R(5,37)                 1.072          estimate D2E/DX2                !
 ! R10   R(6,7)                  1.3939         estimate D2E/DX2                !
 ! R11   R(6,8)                  1.5227         estimate D2E/DX2                !
 ! R12   R(7,38)                 1.0725         estimate D2E/DX2                !
 ! R13   R(8,9)                  1.4635         estimate D2E/DX2                !
 ! R14   R(8,39)                 1.0832         estimate D2E/DX2                !
 ! R15   R(8,40)                 1.0803         estimate D2E/DX2                !
 ! R16   R(9,10)                 1.3722         estimate D2E/DX2                !
 ! R17   R(9,22)                 1.4381         estimate D2E/DX2                !
 ! R18   R(10,11)                1.2208         estimate D2E/DX2                !
 ! R19   R(10,12)                1.5243         estimate D2E/DX2                !
 ! R20   R(12,13)                1.4303         estimate D2E/DX2                !
 ! R21   R(12,41)                1.0813         estimate D2E/DX2                !
 ! R22   R(12,42)                1.08           estimate D2E/DX2                !
 ! R23   R(13,14)                1.3636         estimate D2E/DX2                !
 ! R24   R(13,21)                1.3626         estimate D2E/DX2                !
 ! R25   R(14,15)                1.2676         estimate D2E/DX2                !
 ! R26   R(15,16)                1.3858         estimate D2E/DX2                !
 ! R27   R(16,17)                1.3942         estimate D2E/DX2                !
 ! R28   R(16,21)                1.3891         estimate D2E/DX2                !
 ! R29   R(17,18)                1.3732         estimate D2E/DX2                !
 ! R30   R(17,43)                1.0713         estimate D2E/DX2                !
 ! R31   R(18,19)                1.4129         estimate D2E/DX2                !
 ! R32   R(18,44)                1.072          estimate D2E/DX2                !
 ! R33   R(19,20)                1.3743         estimate D2E/DX2                !
 ! R34   R(19,45)                1.0728         estimate D2E/DX2                !
 ! R35   R(20,21)                1.3972         estimate D2E/DX2                !
 ! R36   R(20,46)                1.0713         estimate D2E/DX2                !
 ! R37   R(22,23)                1.3862         estimate D2E/DX2                !
 ! R38   R(22,27)                1.3901         estimate D2E/DX2                !
 ! R39   R(23,24)                1.3871         estimate D2E/DX2                !
 ! R40   R(23,47)                1.0718         estimate D2E/DX2                !
 ! R41   R(24,25)                1.3914         estimate D2E/DX2                !
 ! R42   R(24,48)                1.073          estimate D2E/DX2                !
 ! R43   R(25,26)                1.3964         estimate D2E/DX2                !
 ! R44   R(25,28)                1.4837         estimate D2E/DX2                !
 ! R45   R(26,27)                1.3818         estimate D2E/DX2                !
 ! R46   R(26,49)                1.069          estimate D2E/DX2                !
 ! R47   R(27,50)                1.0699         estimate D2E/DX2                !
 ! R48   R(28,29)                1.3564         estimate D2E/DX2                !
 ! R49   R(28,33)                1.4598         estimate D2E/DX2                !
 ! R50   R(29,30)                1.4308         estimate D2E/DX2                !
 ! R51   R(29,51)                1.0727         estimate D2E/DX2                !
 ! R52   R(30,31)                1.3432         estimate D2E/DX2                !
 ! R53   R(30,52)                1.0692         estimate D2E/DX2                !
 ! R54   R(31,32)                1.3661         estimate D2E/DX2                !
 ! R55   R(31,53)                1.0697         estimate D2E/DX2                !
 ! R56   R(32,33)                1.3791         estimate D2E/DX2                !
 ! R57   R(32,54)                0.995          estimate D2E/DX2                !
 ! R58   R(33,34)                1.2355         estimate D2E/DX2                !
 ! A1    A(1,2,3)              119.0705         estimate D2E/DX2                !
 ! A2    A(1,2,7)              118.9394         estimate D2E/DX2                !
 ! A3    A(3,2,7)              121.9898         estimate D2E/DX2                !
 ! A4    A(2,3,4)              118.2943         estimate D2E/DX2                !
 ! A5    A(2,3,35)             120.4757         estimate D2E/DX2                !
 ! A6    A(4,3,35)             121.2298         estimate D2E/DX2                !
 ! A7    A(3,4,5)              120.647          estimate D2E/DX2                !
 ! A8    A(3,4,36)             119.5652         estimate D2E/DX2                !
 ! A9    A(5,4,36)             119.7877         estimate D2E/DX2                !
 ! A10   A(4,5,6)              120.4549         estimate D2E/DX2                !
 ! A11   A(4,5,37)             119.6223         estimate D2E/DX2                !
 ! A12   A(6,5,37)             119.9224         estimate D2E/DX2                !
 ! A13   A(5,6,7)              118.9109         estimate D2E/DX2                !
 ! A14   A(5,6,8)              122.9726         estimate D2E/DX2                !
 ! A15   A(7,6,8)              118.1109         estimate D2E/DX2                !
 ! A16   A(2,7,6)              119.7019         estimate D2E/DX2                !
 ! A17   A(2,7,38)             119.6866         estimate D2E/DX2                !
 ! A18   A(6,7,38)             120.6115         estimate D2E/DX2                !
 ! A19   A(6,8,9)              115.565          estimate D2E/DX2                !
 ! A20   A(6,8,39)             109.0474         estimate D2E/DX2                !
 ! A21   A(6,8,40)             109.0886         estimate D2E/DX2                !
 ! A22   A(9,8,39)             110.0972         estimate D2E/DX2                !
 ! A23   A(9,8,40)             106.6798         estimate D2E/DX2                !
 ! A24   A(39,8,40)            105.9066         estimate D2E/DX2                !
 ! A25   A(8,9,10)             122.413          estimate D2E/DX2                !
 ! A26   A(8,9,22)             117.7448         estimate D2E/DX2                !
 ! A27   A(10,9,22)            119.814          estimate D2E/DX2                !
 ! A28   A(9,10,11)            122.7341         estimate D2E/DX2                !
 ! A29   A(9,10,12)            116.8547         estimate D2E/DX2                !
 ! A30   A(11,10,12)           120.4112         estimate D2E/DX2                !
 ! A31   A(10,12,13)           112.2056         estimate D2E/DX2                !
 ! A32   A(10,12,41)           110.4473         estimate D2E/DX2                !
 ! A33   A(10,12,42)           109.8459         estimate D2E/DX2                !
 ! A34   A(13,12,41)           109.6986         estimate D2E/DX2                !
 ! A35   A(13,12,42)           106.46           estimate D2E/DX2                !
 ! A36   A(41,12,42)           108.025          estimate D2E/DX2                !
 ! A37   A(12,13,14)           119.5395         estimate D2E/DX2                !
 ! A38   A(12,13,21)           130.9125         estimate D2E/DX2                !
 ! A39   A(14,13,21)           109.4825         estimate D2E/DX2                !
 ! A40   A(13,14,15)           109.5126         estimate D2E/DX2                !
 ! A41   A(14,15,16)           108.8844         estimate D2E/DX2                !
 ! A42   A(15,16,17)           130.6267         estimate D2E/DX2                !
 ! A43   A(15,16,21)           107.8826         estimate D2E/DX2                !
 ! A44   A(17,16,21)           121.4906         estimate D2E/DX2                !
 ! A45   A(16,17,18)           117.2608         estimate D2E/DX2                !
 ! A46   A(16,17,43)           120.5175         estimate D2E/DX2                !
 ! A47   A(18,17,43)           122.2217         estimate D2E/DX2                !
 ! A48   A(17,18,19)           121.007          estimate D2E/DX2                !
 ! A49   A(17,18,44)           120.0271         estimate D2E/DX2                !
 ! A50   A(19,18,44)           118.9653         estimate D2E/DX2                !
 ! A51   A(18,19,20)           122.0853         estimate D2E/DX2                !
 ! A52   A(18,19,45)           118.6946         estimate D2E/DX2                !
 ! A53   A(20,19,45)           119.219          estimate D2E/DX2                !
 ! A54   A(19,20,21)           116.5136         estimate D2E/DX2                !
 ! A55   A(19,20,46)           121.4601         estimate D2E/DX2                !
 ! A56   A(21,20,46)           122.0197         estimate D2E/DX2                !
 ! A57   A(13,21,16)           104.2298         estimate D2E/DX2                !
 ! A58   A(13,21,20)           134.1238         estimate D2E/DX2                !
 ! A59   A(16,21,20)           121.6421         estimate D2E/DX2                !
 ! A60   A(9,22,23)            120.3191         estimate D2E/DX2                !
 ! A61   A(9,22,27)            120.4269         estimate D2E/DX2                !
 ! A62   A(23,22,27)           119.1736         estimate D2E/DX2                !
 ! A63   A(22,23,24)           120.1829         estimate D2E/DX2                !
 ! A64   A(22,23,47)           120.4714         estimate D2E/DX2                !
 ! A65   A(24,23,47)           119.3431         estimate D2E/DX2                !
 ! A66   A(23,24,25)           121.214          estimate D2E/DX2                !
 ! A67   A(23,24,48)           118.9033         estimate D2E/DX2                !
 ! A68   A(25,24,48)           119.8743         estimate D2E/DX2                !
 ! A69   A(24,25,26)           117.9873         estimate D2E/DX2                !
 ! A70   A(24,25,28)           120.2611         estimate D2E/DX2                !
 ! A71   A(26,25,28)           121.7373         estimate D2E/DX2                !
 ! A72   A(25,26,27)           120.9889         estimate D2E/DX2                !
 ! A73   A(25,26,49)           119.6853         estimate D2E/DX2                !
 ! A74   A(27,26,49)           119.3091         estimate D2E/DX2                !
 ! A75   A(22,27,26)           120.4418         estimate D2E/DX2                !
 ! A76   A(22,27,50)           119.8751         estimate D2E/DX2                !
 ! A77   A(26,27,50)           119.6754         estimate D2E/DX2                !
 ! A78   A(25,28,29)           121.7533         estimate D2E/DX2                !
 ! A79   A(25,28,33)           119.4669         estimate D2E/DX2                !
 ! A80   A(29,28,33)           118.7793         estimate D2E/DX2                !
 ! A81   A(28,29,30)           122.7567         estimate D2E/DX2                !
 ! A82   A(28,29,51)           119.0024         estimate D2E/DX2                !
 ! A83   A(30,29,51)           118.2356         estimate D2E/DX2                !
 ! A84   A(29,30,31)           118.093          estimate D2E/DX2                !
 ! A85   A(29,30,52)           120.7685         estimate D2E/DX2                !
 ! A86   A(31,30,52)           121.1375         estimate D2E/DX2                !
 ! A87   A(30,31,32)           119.8529         estimate D2E/DX2                !
 ! A88   A(30,31,53)           123.8281         estimate D2E/DX2                !
 ! A89   A(32,31,53)           116.3185         estimate D2E/DX2                !
 ! A90   A(31,32,33)           125.435          estimate D2E/DX2                !
 ! A91   A(31,32,54)           120.1395         estimate D2E/DX2                !
 ! A92   A(33,32,54)           114.4248         estimate D2E/DX2                !
 ! A93   A(28,33,32)           115.0715         estimate D2E/DX2                !
 ! A94   A(28,33,34)           125.7411         estimate D2E/DX2                !
 ! A95   A(32,33,34)           119.1874         estimate D2E/DX2                !
 ! D1    D(1,2,3,4)            179.8592         estimate D2E/DX2                !
 ! D2    D(1,2,3,35)            -0.022          estimate D2E/DX2                !
 ! D3    D(7,2,3,4)              0.0817         estimate D2E/DX2                !
 ! D4    D(7,2,3,35)          -179.7995         estimate D2E/DX2                !
 ! D5    D(1,2,7,6)            179.8886         estimate D2E/DX2                !
 ! D6    D(1,2,7,38)            -0.09           estimate D2E/DX2                !
 ! D7    D(3,2,7,6)             -0.3336         estimate D2E/DX2                !
 ! D8    D(3,2,7,38)           179.6877         estimate D2E/DX2                !
 ! D9    D(2,3,4,5)              0.1092         estimate D2E/DX2                !
 ! D10   D(2,3,4,36)          -179.9989         estimate D2E/DX2                !
 ! D11   D(35,3,4,5)           179.9895         estimate D2E/DX2                !
 ! D12   D(35,3,4,36)           -0.1186         estimate D2E/DX2                !
 ! D13   D(3,4,5,6)             -0.0461         estimate D2E/DX2                !
 ! D14   D(3,4,5,37)           179.7195         estimate D2E/DX2                !
 ! D15   D(36,4,5,6)          -179.9378         estimate D2E/DX2                !
 ! D16   D(36,4,5,37)           -0.1722         estimate D2E/DX2                !
 ! D17   D(4,5,6,7)             -0.2035         estimate D2E/DX2                !
 ! D18   D(4,5,6,8)            178.9145         estimate D2E/DX2                !
 ! D19   D(37,5,6,7)          -179.9685         estimate D2E/DX2                !
 ! D20   D(37,5,6,8)            -0.8505         estimate D2E/DX2                !
 ! D21   D(5,6,7,2)              0.3881         estimate D2E/DX2                !
 ! D22   D(5,6,7,38)          -179.6334         estimate D2E/DX2                !
 ! D23   D(8,6,7,2)           -178.7729         estimate D2E/DX2                !
 ! D24   D(8,6,7,38)             1.2055         estimate D2E/DX2                !
 ! D25   D(5,6,8,9)             12.3063         estimate D2E/DX2                !
 ! D26   D(5,6,8,39)           136.9261         estimate D2E/DX2                !
 ! D27   D(5,6,8,40)          -107.8414         estimate D2E/DX2                !
 ! D28   D(7,6,8,9)           -168.5691         estimate D2E/DX2                !
 ! D29   D(7,6,8,39)           -43.9493         estimate D2E/DX2                !
 ! D30   D(7,6,8,40)            71.2833         estimate D2E/DX2                !
 ! D31   D(6,8,9,10)            75.7314         estimate D2E/DX2                !
 ! D32   D(6,8,9,22)          -106.2035         estimate D2E/DX2                !
 ! D33   D(39,8,9,10)          -48.3422         estimate D2E/DX2                !
 ! D34   D(39,8,9,22)          129.7229         estimate D2E/DX2                !
 ! D35   D(40,8,9,10)         -162.8169         estimate D2E/DX2                !
 ! D36   D(40,8,9,22)           15.2482         estimate D2E/DX2                !
 ! D37   D(8,9,10,11)         -173.6949         estimate D2E/DX2                !
 ! D38   D(8,9,10,12)            6.3136         estimate D2E/DX2                !
 ! D39   D(22,9,10,11)           8.2787         estimate D2E/DX2                !
 ! D40   D(22,9,10,12)        -171.7128         estimate D2E/DX2                !
 ! D41   D(8,9,22,23)           50.5783         estimate D2E/DX2                !
 ! D42   D(8,9,22,27)         -126.1346         estimate D2E/DX2                !
 ! D43   D(10,9,22,23)        -131.3042         estimate D2E/DX2                !
 ! D44   D(10,9,22,27)          51.9829         estimate D2E/DX2                !
 ! D45   D(9,10,12,13)         176.3362         estimate D2E/DX2                !
 ! D46   D(9,10,12,41)         -60.9292         estimate D2E/DX2                !
 ! D47   D(9,10,12,42)          58.1264         estimate D2E/DX2                !
 ! D48   D(11,10,12,13)         -3.6555         estimate D2E/DX2                !
 ! D49   D(11,10,12,41)        119.0791         estimate D2E/DX2                !
 ! D50   D(11,10,12,42)       -121.8653         estimate D2E/DX2                !
 ! D51   D(10,12,13,14)       -101.4386         estimate D2E/DX2                !
 ! D52   D(10,12,13,21)         75.2807         estimate D2E/DX2                !
 ! D53   D(41,12,13,14)        135.4046         estimate D2E/DX2                !
 ! D54   D(41,12,13,21)        -47.8761         estimate D2E/DX2                !
 ! D55   D(42,12,13,14)         18.7577         estimate D2E/DX2                !
 ! D56   D(42,12,13,21)       -164.523          estimate D2E/DX2                !
 ! D57   D(12,13,14,15)        178.2388         estimate D2E/DX2                !
 ! D58   D(21,13,14,15)          0.8682         estimate D2E/DX2                !
 ! D59   D(12,13,21,16)       -177.8712         estimate D2E/DX2                !
 ! D60   D(12,13,21,20)          2.9024         estimate D2E/DX2                !
 ! D61   D(14,13,21,16)         -0.8986         estimate D2E/DX2                !
 ! D62   D(14,13,21,20)        179.8751         estimate D2E/DX2                !
 ! D63   D(13,14,15,16)         -0.4383         estimate D2E/DX2                !
 ! D64   D(14,15,16,17)        179.7227         estimate D2E/DX2                !
 ! D65   D(14,15,16,21)         -0.1331         estimate D2E/DX2                !
 ! D66   D(15,16,17,18)       -179.7237         estimate D2E/DX2                !
 ! D67   D(15,16,17,43)          0.3213         estimate D2E/DX2                !
 ! D68   D(21,16,17,18)          0.1153         estimate D2E/DX2                !
 ! D69   D(21,16,17,43)       -179.8396         estimate D2E/DX2                !
 ! D70   D(15,16,21,13)          0.6328         estimate D2E/DX2                !
 ! D71   D(15,16,21,20)        179.9805         estimate D2E/DX2                !
 ! D72   D(17,16,21,13)       -179.2389         estimate D2E/DX2                !
 ! D73   D(17,16,21,20)          0.1088         estimate D2E/DX2                !
 ! D74   D(16,17,18,19)         -0.197          estimate D2E/DX2                !
 ! D75   D(16,17,18,44)       -179.922          estimate D2E/DX2                !
 ! D76   D(43,17,18,19)        179.7572         estimate D2E/DX2                !
 ! D77   D(43,17,18,44)          0.0322         estimate D2E/DX2                !
 ! D78   D(17,18,19,20)          0.0603         estimate D2E/DX2                !
 ! D79   D(17,18,19,45)       -179.5555         estimate D2E/DX2                !
 ! D80   D(44,18,19,20)        179.7881         estimate D2E/DX2                !
 ! D81   D(44,18,19,45)          0.1724         estimate D2E/DX2                !
 ! D82   D(18,19,20,21)          0.1595         estimate D2E/DX2                !
 ! D83   D(18,19,20,46)       -178.926          estimate D2E/DX2                !
 ! D84   D(45,19,20,21)        179.7733         estimate D2E/DX2                !
 ! D85   D(45,19,20,46)          0.6878         estimate D2E/DX2                !
 ! D86   D(19,20,21,13)        178.8774         estimate D2E/DX2                !
 ! D87   D(19,20,21,16)         -0.2418         estimate D2E/DX2                !
 ! D88   D(46,20,21,13)         -2.0426         estimate D2E/DX2                !
 ! D89   D(46,20,21,16)        178.8382         estimate D2E/DX2                !
 ! D90   D(9,22,23,24)        -176.935          estimate D2E/DX2                !
 ! D91   D(9,22,23,47)           2.4668         estimate D2E/DX2                !
 ! D92   D(27,22,23,24)         -0.1811         estimate D2E/DX2                !
 ! D93   D(27,22,23,47)        179.2206         estimate D2E/DX2                !
 ! D94   D(9,22,27,26)         177.3777         estimate D2E/DX2                !
 ! D95   D(9,22,27,50)          -3.636          estimate D2E/DX2                !
 ! D96   D(23,22,27,26)          0.6274         estimate D2E/DX2                !
 ! D97   D(23,22,27,50)        179.6137         estimate D2E/DX2                !
 ! D98   D(22,23,24,25)         -0.7726         estimate D2E/DX2                !
 ! D99   D(22,23,24,48)        178.1716         estimate D2E/DX2                !
 ! D100  D(47,23,24,25)        179.8189         estimate D2E/DX2                !
 ! D101  D(47,23,24,48)         -1.2369         estimate D2E/DX2                !
 ! D102  D(23,24,25,26)          1.2444         estimate D2E/DX2                !
 ! D103  D(23,24,25,28)       -177.4025         estimate D2E/DX2                !
 ! D104  D(48,24,25,26)       -177.6897         estimate D2E/DX2                !
 ! D105  D(48,24,25,28)          3.6634         estimate D2E/DX2                !
 ! D106  D(24,25,26,27)         -0.7921         estimate D2E/DX2                !
 ! D107  D(24,25,26,49)        177.7112         estimate D2E/DX2                !
 ! D108  D(28,25,26,27)        177.8336         estimate D2E/DX2                !
 ! D109  D(28,25,26,49)         -3.663          estimate D2E/DX2                !
 ! D110  D(24,25,28,29)         41.4849         estimate D2E/DX2                !
 ! D111  D(24,25,28,33)       -138.2788         estimate D2E/DX2                !
 ! D112  D(26,25,28,29)       -137.1101         estimate D2E/DX2                !
 ! D113  D(26,25,28,33)         43.1262         estimate D2E/DX2                !
 ! D114  D(25,26,27,22)         -0.133          estimate D2E/DX2                !
 ! D115  D(25,26,27,50)       -179.1213         estimate D2E/DX2                !
 ! D116  D(49,26,27,22)       -178.6419         estimate D2E/DX2                !
 ! D117  D(49,26,27,50)          2.3698         estimate D2E/DX2                !
 ! D118  D(25,28,29,30)       -178.649          estimate D2E/DX2                !
 ! D119  D(25,28,29,51)          2.2072         estimate D2E/DX2                !
 ! D120  D(33,28,29,30)          1.1163         estimate D2E/DX2                !
 ! D121  D(33,28,29,51)       -178.0275         estimate D2E/DX2                !
 ! D122  D(25,28,33,32)        178.5046         estimate D2E/DX2                !
 ! D123  D(25,28,33,34)         -1.527          estimate D2E/DX2                !
 ! D124  D(29,28,33,32)         -1.2662         estimate D2E/DX2                !
 ! D125  D(29,28,33,34)        178.7022         estimate D2E/DX2                !
 ! D126  D(28,29,30,31)         -0.3813         estimate D2E/DX2                !
 ! D127  D(28,29,30,52)        179.9798         estimate D2E/DX2                !
 ! D128  D(51,29,30,31)        178.7687         estimate D2E/DX2                !
 ! D129  D(51,29,30,52)         -0.8702         estimate D2E/DX2                !
 ! D130  D(29,30,31,32)         -0.166          estimate D2E/DX2                !
 ! D131  D(29,30,31,53)       -179.8979         estimate D2E/DX2                !
 ! D132  D(52,30,31,32)        179.4715         estimate D2E/DX2                !
 ! D133  D(52,30,31,53)         -0.2604         estimate D2E/DX2                !
 ! D134  D(30,31,32,33)         -0.0884         estimate D2E/DX2                !
 ! D135  D(30,31,32,54)       -179.77           estimate D2E/DX2                !
 ! D136  D(53,31,32,33)        179.6631         estimate D2E/DX2                !
 ! D137  D(53,31,32,54)         -0.0184         estimate D2E/DX2                !
 ! D138  D(31,32,33,28)          0.7963         estimate D2E/DX2                !
 ! D139  D(31,32,33,34)       -179.1744         estimate D2E/DX2                !
 ! D140  D(54,32,33,28)       -179.5062         estimate D2E/DX2                !
 ! D141  D(54,32,33,34)          0.5232         estimate D2E/DX2                !
 --------------------------------------------------------------------------------
 Trust Radius=3.00D-01 FncErr=1.00D-07 GrdErr=1.00D-06
 Number of steps in this run=    304 maximum allowed number of steps=    324.
 GradGradGradGradGradGradGradGradGradGradGradGradGradGradGradGradGradGrad

 Leave Link  103 at Wed Sep  7 13:44:58 2022, MaxMem=  209715200 cpu:       0.1
 (Enter /opt/gaussian/l202.exe)
 Stoichiometry    C26H20ClN5O2
 Framework group  C1[X(C26H20ClN5O2)]
 Deg. of freedom   156
 Full point group                 C1      NOp   1
 Largest Abelian subgroup         C1      NOp   1
 Largest concise Abelian subgroup C1      NOp   1
                         Standard orientation:                         
 ---------------------------------------------------------------------
 Center     Atomic      Atomic             Coordinates (Angstroms)
 Number     Number       Type             X           Y           Z
 ---------------------------------------------------------------------
      1         17           0       -3.530442    5.800189   -0.596650
      2          6           0       -2.696852    4.340739    0.070240
      3          6           0       -2.768932    4.087699    1.425950
      4          6           0       -2.126941    2.963629    1.919140
      5          6           0       -1.427691    2.116670    1.067990
      6          6           0       -1.362161    2.384040   -0.294030
      7          6           0       -2.012441    3.512169   -0.791350
      8          6           0       -0.592821    1.508940   -1.274250
      9          7           0       -0.153920    0.213260   -0.754120
     10          6           0       -1.015790   -0.840680   -0.582620
     11          8           0       -0.682459   -1.885480   -0.046380
     12          6           0       -2.438680   -0.657411   -1.097620
     13          7           0       -3.225809   -1.841731   -0.944220
     14          7           0       -3.444979   -2.647571   -2.022130
     15          7           0       -4.129389   -3.653561   -1.666510
     16          6           0       -4.390389   -3.561172   -0.308620
     17          6           0       -5.101318   -4.409732    0.538970
     18          6           0       -5.195898   -4.044962    1.859490
     19          6           0       -4.590849   -2.858832    2.332090
     20          6           0       -3.886009   -2.018731    1.503730
     21          6           0       -3.798949   -2.395331    0.161060
     22          6           0        1.243740    0.049541   -0.457490
     23          6           0        1.906320    0.980611    0.327120
     24          6           0        3.268030    0.854351    0.559090
     25          6           0        3.994290   -0.207628    0.029360
     26          6           0        3.316240   -1.132349   -0.767600
     27          6           0        1.961580   -1.005459   -1.008910
     28          6           0        5.438120   -0.353778    0.338030
     29          6           0        5.927570   -0.134008    1.583850
     30          6           0        7.319100   -0.241237    1.898970
     31          6           0        8.166310   -0.581687    0.913840
     32          7           0        7.687510   -0.817007   -0.343760
     33          6           0        6.363870   -0.739128   -0.722920
     34          8           0        6.056340   -0.991478   -1.892620
     35          1           0       -3.310272    4.746299    2.073050
     36          1           0       -2.169731    2.747589    2.968740
     37          1           0       -0.933140    1.253790    1.467930
     38          1           0       -1.984571    3.741299   -1.838750
     39          1           0       -1.190111    1.368680   -2.166960
     40          1           0        0.296789    2.032780   -1.592500
     41          1           0       -2.920080    0.168239   -0.591820
     42          1           0       -2.420450   -0.436871   -2.154740
     43          1           0       -5.549068   -5.306372    0.160580
     44          1           0       -5.731258   -4.665622    2.550470
     45          1           0       -4.681969   -2.613272    3.372470
     46          1           0       -3.416880   -1.130501    1.876100
     47          1           0        1.375679    1.809141    0.752320
     48          1           0        3.765899    1.602832    1.144870
     49          1           0        3.854861   -1.938168   -1.218470
     50          1           0        1.460321   -1.733939   -1.611160
     51          1           0        5.246430    0.118072    2.373250
     52          1           0        7.670420   -0.060627    2.892500
     53          1           0        9.222160   -0.689416    1.047170
     54          1           0        8.310840   -1.072797   -1.075900
 ---------------------------------------------------------------------
 Rotational constants (GHZ):      0.1242705      0.0585960      0.0443524
 Leave Link  202 at Wed Sep  7 13:44:58 2022, MaxMem=  209715200 cpu:       0.0
 (Enter /opt/gaussian/l301.exe)
 Standard basis: CC-pVDZ (5D, 7F)
 Ernie: Thresh=  0.10000D-02 Tol=  0.10000D-05 Strict=F.
 Ernie:  76 primitive shells out of 876 were deleted.
 There are   580 symmetry adapted basis functions of A   symmetry.
 Integral buffers will be    131072 words long.
 Raffenetti 2 integral format.
 Two-electron integral symmetry is turned on.
   580 basis functions,  1300 primitive gaussians,   614 cartesian basis functions
   122 alpha electrons      122 beta electrons
       nuclear repulsion energy      3323.2045823176 Hartrees.
 IExCor=  402 DFT=T Ex+Corr=B3LYP ExCW=0 ScaHFX=  0.200000
 ScaDFX=  0.800000  0.720000  1.000000  0.810000 ScalE2=  1.000000  1.000000
 IRadAn=      0 IRanWt=     -1 IRanGd=            0 ICorTp=0
 NAtoms=   54 NActive=   54 NUniq=   54 SFac= 1.00D+00 NAtFMM=   60 NAOKFM=F Big=F
 Leave Link  301 at Wed Sep  7 13:44:58 2022, MaxMem=  209715200 cpu:       0.3
 (Enter /opt/gaussian/l302.exe)
 NPDir=0 NMtPBC=     1 NCelOv=     1 NCel=       1 NClECP=     1 NCelD=      1
         NCelK=      1 NCelE2=     1 NClLst=     1 CellRange=     0.0.
 One-electron integrals computed using PRISM.
 NBasis=   580 RedAO= T  NBF=   580
 NBsUse=   580 1.00D-06 NBFU=   580
 Precomputing XC quadrature grid using
 IXCGrd= 2 IRadAn=           0 IRanWt=          -1 IRanGd=           0 AccXCQ= 0.00D+00.
 NRdTot=    3489 NPtTot=      446024 NUsed=      471162 NTot=      471194
 NSgBfM=   585   585   585   585   588 NAtAll=    54    54.
 Leave Link  302 at Wed Sep  7 13:44:59 2022, MaxMem=  209715200 cpu:       9.0
 (Enter /opt/gaussian/l303.exe)
 DipDrv:  MaxL=1.
 Leave Link  303 at Wed Sep  7 13:44:59 2022, MaxMem=  209715200 cpu:       1.3
 (Enter /opt/gaussian/l401.exe)
 Harris functional with IExCor=  402 diagonalized for initial guess.
 ExpMin= 1.22D-01 ExpMax= 1.28D+05 ExpMxC= 1.24D+03 IAcc=2 IRadAn=         4 AccDes= 0.00D+00
 HarFok:  IExCor=  402 AccDes= 0.00D+00 IRadAn=         4 IDoV= 1
 ScaDFX=  1.000000  1.000000  1.000000  1.000000
 FoFCou: FMM=F IPFlag=           0 FMFlag=      100000 FMFlg1=           0
         NFxFlg=           0 DoJE=T BraDBF=F KetDBF=T FulRan=T
         Omega=  0.000000  0.000000  1.000000  0.000000  0.000000 ICntrl=     500 IOpCl=  0
         NMat0=    1 NMatS0=    1 NMatT0=    0 NMatD0=    1 NMtDS0=    0 NMtDT0=    0
         I1Cent=           4 NGrid=           0.
 Petite list used in FoFCou.
 Harris En= -1887.06509273996    
 Initial guess orbital symmetries:
       Occupied  (A) (A) (A) (A) (A) (A) (A) (A) (A) (A) (A) (A)
                 (A) (A) (A) (A) (A) (A) (A) (A) (A) (A) (A) (A)
                 (A) (A) (A) (A) (A) (A) (A) (A) (A) (A) (A) (A)
                 (A) (A) (A) (A) (A) (A) (A) (A) (A) (A) (A) (A)
                 (A) (A) (A) (A) (A) (A) (A) (A) (A) (A) (A) (A)
                 (A) (A) (A) (A) (A) (A) (A) (A) (A) (A) (A) (A)
                 (A) (A) (A) (A) (A) (A) (A) (A) (A) (A) (A) (A)
                 (A) (A) (A) (A) (A) (A) (A) (A) (A) (A) (A) (A)
                 (A) (A) (A) (A) (A) (A) (A) (A) (A) (A) (A) (A)
                 (A) (A) (A) (A) (A) (A) (A) (A) (A) (A) (A) (A)
                 (A) (A)
       Virtual   (A) (A) (A) (A) (A) (A) (A) (A) (A) (A) (A) (A)
                 (A) (A) (A) (A) (A) (A) (A) (A) (A) (A) (A) (A)
                 (A) (A) (A) (A) (A) (A) (A) (A) (A) (A) (A) (A)
                 (A) (A) (A) (A) (A) (A) (A) (A) (A) (A) (A) (A)
                 (A) (A) (A) (A) (A) (A) (A) (A) (A) (A) (A) (A)
                 (A) (A) (A) (A) (A) (A) (A) (A) (A) (A) (A) (A)
                 (A) (A) (A) (A) (A) (A) (A) (A) (A) (A) (A) (A)
                 (A) (A) (A) (A) (A) (A) (A) (A) (A) (A) (A) (A)
                 (A) (A) (A) (A) (A) (A) (A) (A) (A) (A) (A) (A)
                 (A) (A) (A) (A) (A) (A) (A) (A) (A) (A) (A) (A)
                 (A) (A) (A) (A) (A) (A) (A) (A) (A) (A) (A) (A)
                 (A) (A) (A) (A) (A) (A) (A) (A) (A) (A) (A) (A)
                 (A) (A) (A) (A) (A) (A) (A) (A) (A) (A) (A) (A)
                 (A) (A) (A) (A) (A) (A) (A) (A) (A) (A) (A) (A)
                 (A) (A) (A) (A) (A) (A) (A) (A) (A) (A) (A) (A)
                 (A) (A) (A) (A) (A) (A) (A) (A) (A) (A) (A) (A)
                 (A) (A) (A) (A) (A) (A) (A) (A) (A) (A) (A) (A)
                 (A) (A) (A) (A) (A) (A) (A) (A) (A) (A) (A) (A)
                 (A) (A) (A) (A) (A) (A) (A) (A) (A) (A) (A) (A)
                 (A) (A) (A) (A) (A) (A) (A) (A) (A) (A) (A) (A)
                 (A) (A) (A) (A) (A) (A) (A) (A) (A) (A) (A) (A)
                 (A) (A) (A) (A) (A) (A) (A) (A) (A) (A) (A) (A)
                 (A) (A) (A) (A) (A) (A) (A) (A) (A) (A) (A) (A)
                 (A) (A) (A) (A) (A) (A) (A) (A) (A) (A) (A) (A)
                 (A) (A) (A) (A) (A) (A) (A) (A) (A) (A) (A) (A)
                 (A) (A) (A) (A) (A) (A) (A) (A) (A) (A) (A) (A)
                 (A) (A) (A) (A) (A) (A) (A) (A) (A) (A) (A) (A)
                 (A) (A) (A) (A) (A) (A) (A) (A) (A) (A) (A) (A)
                 (A) (A) (A) (A) (A) (A) (A) (A) (A) (A) (A) (A)
                 (A) (A) (A) (A) (A) (A) (A) (A) (A) (A) (A) (A)
                 (A) (A) (A) (A) (A) (A) (A) (A) (A) (A) (A) (A)
                 (A) (A) (A) (A) (A) (A) (A) (A) (A) (A) (A) (A)
                 (A) (A) (A) (A) (A) (A) (A) (A) (A) (A) (A) (A)
                 (A) (A) (A) (A) (A) (A) (A) (A) (A) (A) (A) (A)
                 (A) (A) (A) (A) (A) (A) (A) (A) (A) (A) (A) (A)
                 (A) (A) (A) (A) (A) (A) (A) (A) (A) (A) (A) (A)
                 (A) (A) (A) (A) (A) (A) (A) (A) (A) (A) (A) (A)
                 (A) (A) (A) (A) (A) (A) (A) (A) (A) (A) (A) (A)
                 (A) (A)
 The electronic state of the initial guess is 1-A.
 Leave Link  401 at Wed Sep  7 13:45:03 2022, MaxMem=  209715200 cpu:      27.0
 (Enter /opt/gaussian/l502.exe)
 Closed shell SCF:
 Requested convergence on RMS density matrix=1.00D-08 within 128 cycles.
 Requested convergence on MAX density matrix=1.00D-06.
 Requested convergence on             energy=1.00D-06.
 No special actions if energy rises.
 Using DIIS extrapolation, IDIIS=  1040.
 Integral symmetry usage will be decided dynamically.
       470663 words used for storage of precomputed grid.
 IEnd=     1629347 IEndB=     1629347 NGot=   209715200 MDV=   208480104
 LenX=   208480104 LenY=   208102494
 Fock matrices will be formed incrementally for  20 cycles.
 Integral accuracy reduced to 1.0D-05 until final iterations.

 Cycle   1  Pass 0  IDiag  1:
 FoFCou: FMM=F IPFlag=           0 FMFlag=      100000 FMFlg1=           0
         NFxFlg=           0 DoJE=F BraDBF=F KetDBF=F FulRan=T
         Omega=  0.000000  0.000000  1.000000  0.000000  0.000000 ICntrl=       0 IOpCl=  0
         NMat0=    1 NMatS0=    1 NMatT0=    0 NMatD0=    1 NMtDS0=    0 NMtDT0=    0
         I1Cent=           0 NGrid=           0.
 Symmetry not used in FoFCou.
 E= -1886.61182309774    
 DIIS: error= 1.78D-02 at cycle   1 NSaved=   1.
 NSaved= 1 IEnMin= 1 EnMin= -1886.61182309774     IErMin= 1 ErrMin= 1.78D-02
 ErrMax= 1.78D-02 EMaxC= 1.00D-01 BMatC= 6.52D-01 BMatP= 6.52D-01
 IDIUse=3 WtCom= 8.22D-01 WtEn= 1.78D-01
 Coeff-Com:  0.100D+01
 Coeff-En:   0.100D+01
 Coeff:      0.100D+01
 Gap=     0.340 Goal=   None    Shift=    0.000
 GapD=    0.340 DampG=1.000 DampE=0.500 DampFc=0.5000 IDamp=-1.
 Damping current iteration by 5.00D-01
 RMSDP=4.47D-03 MaxDP=2.19D-01              OVMax= 3.15D-01

 Cycle   2  Pass 0  IDiag  1:
 RMSU=  1.57D-03    CP:  9.78D-01
 E= -1886.76744585078     Delta-E=       -0.155622753035 Rises=F Damp=T
 DIIS: error= 1.25D-02 at cycle   2 NSaved=   2.
 NSaved= 2 IEnMin= 2 EnMin= -1886.76744585078     IErMin= 2 ErrMin= 1.25D-02
 ErrMax= 1.25D-02 EMaxC= 1.00D-01 BMatC= 1.44D-01 BMatP= 6.52D-01
 IDIUse=3 WtCom= 8.75D-01 WtEn= 1.25D-01
 Coeff-Com:  0.257D+00 0.743D+00
 Coeff-En:   0.377D+00 0.623D+00
 Coeff:      0.272D+00 0.728D+00
 Gap=     0.269 Goal=   None    Shift=    0.000
 RMSDP=1.52D-03 MaxDP=8.61D-02 DE=-1.56D-01 OVMax= 3.00D-01

 Cycle   3  Pass 0  IDiag  1:
 RMSU=  9.75D-04    CP:  9.60D-01  7.40D-01
 E= -1887.18802023789     Delta-E=       -0.420574387110 Rises=F Damp=F
 DIIS: error= 1.25D-02 at cycle   3 NSaved=   3.
 NSaved= 3 IEnMin= 3 EnMin= -1887.18802023789     IErMin= 2 ErrMin= 1.25D-02
 ErrMax= 1.25D-02 EMaxC= 1.00D-01 BMatC= 1.22D-01 BMatP= 1.44D-01
 IDIUse=3 WtCom= 8.75D-01 WtEn= 1.25D-01
 Coeff-Com:  0.755D-01 0.468D+00 0.456D+00
 Coeff-En:   0.000D+00 0.000D+00 0.100D+01
 Coeff:      0.661D-01 0.410D+00 0.524D+00
 Gap=     0.162 Goal=   None    Shift=    0.000
 RMSDP=8.57D-04 MaxDP=5.79D-02 DE=-4.21D-01 OVMax= 1.10D-01

 Cycle   4  Pass 0  IDiag  1:
 RMSU=  4.02D-04    CP:  9.66D-01  8.73D-01  5.91D-01
 E= -1887.28046261717     Delta-E=       -0.092442379282 Rises=F Damp=F
 DIIS: error= 5.07D-03 at cycle   4 NSaved=   4.
 NSaved= 4 IEnMin= 4 EnMin= -1887.28046261717     IErMin= 4 ErrMin= 5.07D-03
 ErrMax= 5.07D-03 EMaxC= 1.00D-01 BMatC= 2.41D-02 BMatP= 1.22D-01
 IDIUse=3 WtCom= 9.49D-01 WtEn= 5.07D-02
 Coeff-Com:  0.202D-01 0.119D+00 0.322D+00 0.539D+00
 Coeff-En:   0.000D+00 0.000D+00 0.193D+00 0.807D+00
 Coeff:      0.191D-01 0.113D+00 0.315D+00 0.553D+00
 Gap=     0.162 Goal=   None    Shift=    0.000
 RMSDP=3.39D-04 MaxDP=1.98D-02 DE=-9.24D-02 OVMax= 4.11D-02

 Cycle   5  Pass 0  IDiag  1:
 RMSU=  1.27D-04    CP:  9.64D-01  8.18D-01  7.00D-01  6.29D-01
 E= -1887.30034617746     Delta-E=       -0.019883560293 Rises=F Damp=F
 DIIS: error= 1.47D-03 at cycle   5 NSaved=   5.
 NSaved= 5 IEnMin= 5 EnMin= -1887.30034617746     IErMin= 5 ErrMin= 1.47D-03
 ErrMax= 1.47D-03 EMaxC= 1.00D-01 BMatC= 1.82D-03 BMatP= 2.41D-02
 IDIUse=3 WtCom= 9.85D-01 WtEn= 1.47D-02
 Coeff-Com:  0.424D-02 0.221D-01 0.142D+00 0.337D+00 0.494D+00
 Coeff-En:   0.000D+00 0.000D+00 0.000D+00 0.281D-01 0.972D+00
 Coeff:      0.418D-02 0.217D-01 0.140D+00 0.333D+00 0.502D+00
 Gap=     0.161 Goal=   None    Shift=    0.000
 RMSDP=1.10D-04 MaxDP=5.33D-03 DE=-1.99D-02 OVMax= 1.43D-02

 Cycle   6  Pass 0  IDiag  1:
 RMSU=  3.94D-05    CP:  9.64D-01  8.25D-01  7.03D-01  6.84D-01  5.08D-01
 E= -1887.30211068177     Delta-E=       -0.001764504309 Rises=F Damp=F
 DIIS: error= 4.91D-04 at cycle   6 NSaved=   6.
 NSaved= 6 IEnMin= 6 EnMin= -1887.30211068177     IErMin= 6 ErrMin= 4.91D-04
 ErrMax= 4.91D-04 EMaxC= 1.00D-01 BMatC= 2.37D-04 BMatP= 1.82D-03
 IDIUse=3 WtCom= 9.95D-01 WtEn= 4.91D-03
 Coeff-Com:  0.170D-03-0.217D-02 0.429D-01 0.127D+00 0.312D+00 0.520D+00
 Coeff-En:   0.000D+00 0.000D+00 0.000D+00 0.000D+00 0.111D+00 0.889D+00
 Coeff:      0.169D-03-0.216D-02 0.427D-01 0.126D+00 0.311D+00 0.522D+00
 Gap=     0.161 Goal=   None    Shift=    0.000
 RMSDP=3.35D-05 MaxDP=1.57D-03 DE=-1.76D-03 OVMax= 3.68D-03

 Cycle   7  Pass 0  IDiag  1:
 RMSU=  1.36D-05    CP:  9.64D-01  8.25D-01  7.05D-01  6.83D-01  5.79D-01
                    CP:  5.66D-01
 E= -1887.30235410103     Delta-E=       -0.000243419258 Rises=F Damp=F
 DIIS: error= 1.54D-04 at cycle   7 NSaved=   7.
 NSaved= 7 IEnMin= 7 EnMin= -1887.30235410103     IErMin= 7 ErrMin= 1.54D-04
 ErrMax= 1.54D-04 EMaxC= 1.00D-01 BMatC= 2.08D-05 BMatP= 2.37D-04
 IDIUse=3 WtCom= 9.98D-01 WtEn= 1.54D-03
 Coeff-Com: -0.155D-03-0.332D-02 0.116D-01 0.400D-01 0.134D+00 0.306D+00
 Coeff-Com:  0.512D+00
 Coeff-En:   0.000D+00 0.000D+00 0.000D+00 0.000D+00 0.000D+00 0.000D+00
 Coeff-En:   0.100D+01
 Coeff:     -0.155D-03-0.331D-02 0.116D-01 0.400D-01 0.134D+00 0.305D+00
 Coeff:      0.512D+00
 Gap=     0.161 Goal=   None    Shift=    0.000
 RMSDP=1.01D-05 MaxDP=5.67D-04 DE=-2.43D-04 OVMax= 1.03D-03

 Cycle   8  Pass 0  IDiag  1:
 RMSU=  3.90D-06    CP:  9.64D-01  8.24D-01  7.05D-01  6.84D-01  5.91D-01
                    CP:  6.28D-01  6.20D-01
 E= -1887.30237492964     Delta-E=       -0.000020828616 Rises=F Damp=F
 DIIS: error= 4.88D-05 at cycle   8 NSaved=   8.
 NSaved= 8 IEnMin= 8 EnMin= -1887.30237492964     IErMin= 8 ErrMin= 4.88D-05
 ErrMax= 4.88D-05 EMaxC= 1.00D-01 BMatC= 1.97D-06 BMatP= 2.08D-05
 IDIUse=1 WtCom= 1.00D+00 WtEn= 0.00D+00
 Coeff-Com: -0.390D-04-0.196D-02 0.370D-02 0.138D-01 0.563D-01 0.142D+00
 Coeff-Com:  0.302D+00 0.484D+00
 Coeff:     -0.390D-04-0.196D-02 0.370D-02 0.138D-01 0.563D-01 0.142D+00
 Coeff:      0.302D+00 0.484D+00
 Gap=     0.161 Goal=   None    Shift=    0.000
 RMSDP=3.44D-06 MaxDP=2.33D-04 DE=-2.08D-05 OVMax= 4.19D-04

 Initial convergence to 1.0D-05 achieved.  Increase integral accuracy.
 Cycle   9  Pass 1  IDiag  1:
 E= -1887.30246181342     Delta-E=       -0.000086883773 Rises=F Damp=F
 DIIS: error= 1.47D-04 at cycle   1 NSaved=   1.
 NSaved= 1 IEnMin= 1 EnMin= -1887.30246181342     IErMin= 1 ErrMin= 1.47D-04
 ErrMax= 1.47D-04 EMaxC= 1.00D-01 BMatC= 1.22D-05 BMatP= 1.22D-05
 IDIUse=3 WtCom= 9.99D-01 WtEn= 1.47D-03
 Coeff-Com:  0.100D+01
 Coeff-En:   0.100D+01
 Coeff:      0.100D+01
 Gap=     0.161 Goal=   None    Shift=    0.000
 RMSDP=3.44D-06 MaxDP=2.33D-04 DE=-8.69D-05 OVMax= 4.74D-04

 Cycle  10  Pass 1  IDiag  1:
 RMSU=  8.13D-05    CP:  1.00D+00
 E= -1887.30247222069     Delta-E=       -0.000010407270 Rises=F Damp=F
 DIIS: error= 5.71D-05 at cycle   2 NSaved=   2.
 NSaved= 2 IEnMin= 2 EnMin= -1887.30247222069     IErMin= 2 ErrMin= 5.71D-05
 ErrMax= 5.71D-05 EMaxC= 1.00D-01 BMatC= 1.36D-06 BMatP= 1.22D-05
 IDIUse=1 WtCom= 1.00D+00 WtEn= 0.00D+00
 Coeff-Com:  0.128D+00 0.872D+00
 Coeff:      0.128D+00 0.872D+00
 Gap=     0.161 Goal=   None    Shift=    0.000
 RMSDP=6.59D-06 MaxDP=6.33D-04 DE=-1.04D-05 OVMax= 9.69D-04

 Cycle  11  Pass 1  IDiag  1:
 RMSU=  4.58D-06    CP:  1.00D+00  1.01D+00
 E= -1887.30246926379     Delta-E=        0.000002956893 Rises=F Damp=F
 DIIS: error= 1.13D-04 at cycle   3 NSaved=   3.
 NSaved= 3 IEnMin= 2 EnMin= -1887.30247222069     IErMin= 2 ErrMin= 5.71D-05
 ErrMax= 1.13D-04 EMaxC= 1.00D-01 BMatC= 4.74D-06 BMatP= 1.36D-06
 IDIUse=3 WtCom= 4.85D-01 WtEn= 5.15D-01
 Coeff-Com: -0.431D-02 0.654D+00 0.350D+00
 Coeff-En:   0.000D+00 0.715D+00 0.285D+00
 Coeff:     -0.209D-02 0.685D+00 0.317D+00
 Gap=     0.161 Goal=   None    Shift=    0.000
 RMSDP=3.78D-06 MaxDP=3.81D-04 DE= 2.96D-06 OVMax= 5.74D-04

 Cycle  12  Pass 1  IDiag  1:
 RMSU=  3.49D-07    CP:  1.00D+00  1.01D+00  4.25D-01
 E= -1887.30247338673     Delta-E=       -0.000004122940 Rises=F Damp=F
 DIIS: error= 8.45D-06 at cycle   4 NSaved=   4.
 NSaved= 4 IEnMin= 4 EnMin= -1887.30247338673     IErMin= 4 ErrMin= 8.45D-06
 ErrMax= 8.45D-06 EMaxC= 1.00D-01 BMatC= 6.87D-08 BMatP= 1.36D-06
 IDIUse=1 WtCom= 1.00D+00 WtEn= 0.00D+00
 Coeff-Com: -0.374D-02 0.388D+00 0.160D+00 0.456D+00
 Coeff:     -0.374D-02 0.388D+00 0.160D+00 0.456D+00
 Gap=     0.161 Goal=   None    Shift=    0.000
 RMSDP=5.12D-07 MaxDP=3.72D-05 DE=-4.12D-06 OVMax= 6.22D-05

 Cycle  13  Pass 1  IDiag  1:
 RMSU=  1.34D-07    CP:  1.00D+00  1.01D+00  3.56D-01  6.86D-01
 E= -1887.30247345437     Delta-E=       -0.000000067637 Rises=F Damp=F
 DIIS: error= 1.41D-06 at cycle   5 NSaved=   5.
 NSaved= 5 IEnMin= 5 EnMin= -1887.30247345437     IErMin= 5 ErrMin= 1.41D-06
 ErrMax= 1.41D-06 EMaxC= 1.00D-01 BMatC= 7.77D-10 BMatP= 6.87D-08
 IDIUse=1 WtCom= 1.00D+00 WtEn= 0.00D+00
 Coeff-Com: -0.189D-02 0.186D+00 0.721D-01 0.258D+00 0.486D+00
 Coeff:     -0.189D-02 0.186D+00 0.721D-01 0.258D+00 0.486D+00
 Gap=     0.161 Goal=   None    Shift=    0.000
 RMSDP=6.68D-08 MaxDP=3.34D-06 DE=-6.76D-08 OVMax= 1.19D-05

 Cycle  14  Pass 1  IDiag  1:
 RMSU=  4.21D-08    CP:  1.00D+00  1.01D+00  3.57D-01  6.97D-01  8.45D-01
 E= -1887.30247345512     Delta-E=       -0.000000000750 Rises=F Damp=F
 DIIS: error= 3.42D-07 at cycle   6 NSaved=   6.
 NSaved= 6 IEnMin= 6 EnMin= -1887.30247345512     IErMin= 6 ErrMin= 3.42D-07
 ErrMax= 3.42D-07 EMaxC= 1.00D-01 BMatC= 7.91D-11 BMatP= 7.77D-10
 IDIUse=1 WtCom= 1.00D+00 WtEn= 0.00D+00
 Coeff-Com: -0.436D-03 0.397D-01 0.138D-01 0.696D-01 0.268D+00 0.609D+00
 Coeff:     -0.436D-03 0.397D-01 0.138D-01 0.696D-01 0.268D+00 0.609D+00
 Gap=     0.161 Goal=   None    Shift=    0.000
 RMSDP=2.23D-08 MaxDP=1.12D-06 DE=-7.50D-10 OVMax= 2.44D-06

 Cycle  15  Pass 1  IDiag  1:
 RMSU=  9.58D-09    CP:  1.00D+00  1.01D+00  3.56D-01  7.08D-01  8.76D-01
                    CP:  7.41D-01
 E= -1887.30247345519     Delta-E=       -0.000000000065 Rises=F Damp=F
 DIIS: error= 7.27D-08 at cycle   7 NSaved=   7.
 NSaved= 7 IEnMin= 7 EnMin= -1887.30247345519     IErMin= 7 ErrMin= 7.27D-08
 ErrMax= 7.27D-08 EMaxC= 1.00D-01 BMatC= 1.20D-11 BMatP= 7.91D-11
 IDIUse=1 WtCom= 1.00D+00 WtEn= 0.00D+00
 Coeff-Com: -0.234D-04 0.626D-03-0.775D-03 0.953D-02 0.962D-01 0.349D+00
 Coeff-Com:  0.545D+00
 Coeff:     -0.234D-04 0.626D-03-0.775D-03 0.953D-02 0.962D-01 0.349D+00
 Coeff:      0.545D+00
 Gap=     0.161 Goal=   None    Shift=    0.000
 RMSDP=8.21D-09 MaxDP=6.14D-07 DE=-6.55D-11 OVMax= 9.18D-07

 SCF Done:  E(RB3LYP) =  -1887.30247346     A.U. after   15 cycles
             Convg  =    0.8214D-08             -V/T =  2.0048
 KE= 1.878309966659D+03 PE=-1.105951079747D+04 EE= 3.970693775039D+03
 Leave Link  502 at Wed Sep  7 13:58:04 2022, MaxMem=  209715200 cpu:    6233.6
 (Enter /opt/gaussian/l601.exe)
 Copying SCF densities to generalized density rwf, IOpCl= 0 IROHF=0.

 **********************************************************************

            Population analysis using the SCF density.

 **********************************************************************

 Orbital symmetries:
       Occupied  (A) (A) (A) (A) (A) (A) (A) (A) (A) (A) (A) (A)
                 (A) (A) (A) (A) (A) (A) (A) (A) (A) (A) (A) (A)
                 (A) (A) (A) (A) (A) (A) (A) (A) (A) (A) (A) (A)
                 (A) (A) (A) (A) (A) (A) (A) (A) (A) (A) (A) (A)
                 (A) (A) (A) (A) (A) (A) (A) (A) (A) (A) (A) (A)
                 (A) (A) (A) (A) (A) (A) (A) (A) (A) (A) (A) (A)
                 (A) (A) (A) (A) (A) (A) (A) (A) (A) (A) (A) (A)
                 (A) (A) (A) (A) (A) (A) (A) (A) (A) (A) (A) (A)
                 (A) (A) (A) (A) (A) (A) (A) (A) (A) (A) (A) (A)
                 (A) (A) (A) (A) (A) (A) (A) (A) (A) (A) (A) (A)
                 (A) (A)
       Virtual   (A) (A) (A) (A) (A) (A) (A) (A) (A) (A) (A) (A)
                 (A) (A) (A) (A) (A) (A) (A) (A) (A) (A) (A) (A)
                 (A) (A) (A) (A) (A) (A) (A) (A) (A) (A) (A) (A)
                 (A) (A) (A) (A) (A) (A) (A) (A) (A) (A) (A) (A)
                 (A) (A) (A) (A) (A) (A) (A) (A) (A) (A) (A) (A)
                 (A) (A) (A) (A) (A) (A) (A) (A) (A) (A) (A) (A)
                 (A) (A) (A) (A) (A) (A) (A) (A) (A) (A) (A) (A)
                 (A) (A) (A) (A) (A) (A) (A) (A) (A) (A) (A) (A)
                 (A) (A) (A) (A) (A) (A) (A) (A) (A) (A) (A) (A)
                 (A) (A) (A) (A) (A) (A) (A) (A) (A) (A) (A) (A)
                 (A) (A) (A) (A) (A) (A) (A) (A) (A) (A) (A) (A)
                 (A) (A) (A) (A) (A) (A) (A) (A) (A) (A) (A) (A)
                 (A) (A) (A) (A) (A) (A) (A) (A) (A) (A) (A) (A)
                 (A) (A) (A) (A) (A) (A) (A) (A) (A) (A) (A) (A)
                 (A) (A) (A) (A) (A) (A) (A) (A) (A) (A) (A) (A)
                 (A) (A) (A) (A) (A) (A) (A) (A) (A) (A) (A) (A)
                 (A) (A) (A) (A) (A) (A) (A) (A) (A) (A) (A) (A)
                 (A) (A) (A) (A) (A) (A) (A) (A) (A) (A) (A) (A)
                 (A) (A) (A) (A) (A) (A) (A) (A) (A) (A) (A) (A)
                 (A) (A) (A) (A) (A) (A) (A) (A) (A) (A) (A) (A)
                 (A) (A) (A) (A) (A) (A) (A) (A) (A) (A) (A) (A)
                 (A) (A) (A) (A) (A) (A) (A) (A) (A) (A) (A) (A)
                 (A) (A) (A) (A) (A) (A) (A) (A) (A) (A) (A) (A)
                 (A) (A) (A) (A) (A) (A) (A) (A) (A) (A) (A) (A)
                 (A) (A) (A) (A) (A) (A) (A) (A) (A) (A) (A) (A)
                 (A) (A) (A) (A) (A) (A) (A) (A) (A) (A) (A) (A)
                 (A) (A) (A) (A) (A) (A) (A) (A) (A) (A) (A) (A)
                 (A) (A) (A) (A) (A) (A) (A) (A) (A) (A) (A) (A)
                 (A) (A) (A) (A) (A) (A) (A) (A) (A) (A) (A) (A)
                 (A) (A) (A) (A) (A) (A) (A) (A) (A) (A) (A) (A)
                 (A) (A) (A) (A) (A) (A) (A) (A) (A) (A) (A) (A)
                 (A) (A) (A) (A) (A) (A) (A) (A) (A) (A) (A) (A)
                 (A) (A) (A) (A) (A) (A) (A) (A) (A) (A) (A) (A)
                 (A) (A) (A) (A) (A) (A) (A) (A) (A) (A) (A) (A)
                 (A) (A) (A) (A) (A) (A) (A) (A) (A) (A) (A) (A)
                 (A) (A) (A) (A) (A) (A) (A) (A) (A) (A) (A) (A)
                 (A) (A) (A) (A) (A) (A) (A) (A) (A) (A) (A) (A)
                 (A) (A) (A) (A) (A) (A) (A) (A) (A) (A) (A) (A)
                 (A) (A)
 The electronic state is 1-A.
 Alpha  occ. eigenvalues -- -101.55208 -19.11890 -19.09958 -14.40559 -14.39447
 Alpha  occ. eigenvalues --  -14.38519 -14.38198 -14.34246 -10.30094 -10.28990
 Alpha  occ. eigenvalues --  -10.26720 -10.25480 -10.25372 -10.25071 -10.23593
 Alpha  occ. eigenvalues --  -10.22825 -10.22537 -10.21731 -10.21715 -10.21545
 Alpha  occ. eigenvalues --  -10.21461 -10.21194 -10.20925 -10.20398 -10.20334
 Alpha  occ. eigenvalues --  -10.20261 -10.19755 -10.19661 -10.19591 -10.19384
 Alpha  occ. eigenvalues --  -10.19171 -10.19032 -10.18841 -10.18766  -9.46948
 Alpha  occ. eigenvalues --   -7.23221  -7.22236  -7.22205  -1.09922  -1.05392
 Alpha  occ. eigenvalues --   -1.04081  -0.96564  -0.96505  -0.92664  -0.90759
 Alpha  occ. eigenvalues --   -0.87388  -0.86830  -0.85112  -0.83546  -0.80237
 Alpha  occ. eigenvalues --   -0.79006  -0.77973  -0.77007  -0.76216  -0.75853
 Alpha  occ. eigenvalues --   -0.75284  -0.73977  -0.72098  -0.67186  -0.65765
 Alpha  occ. eigenvalues --   -0.64885  -0.63859  -0.63583  -0.62556  -0.62142
 Alpha  occ. eigenvalues --   -0.61348  -0.59579  -0.57135  -0.56496  -0.54685
 Alpha  occ. eigenvalues --   -0.53304  -0.52818  -0.52597  -0.52478  -0.51891
 Alpha  occ. eigenvalues --   -0.50032  -0.49600  -0.48907  -0.48102  -0.47509
 Alpha  occ. eigenvalues --   -0.46837  -0.46540  -0.46153  -0.45672  -0.45099
 Alpha  occ. eigenvalues --   -0.44780  -0.44683  -0.44442  -0.44169  -0.43857
 Alpha  occ. eigenvalues --   -0.43421  -0.42795  -0.41789  -0.40740  -0.40556
 Alpha  occ. eigenvalues --   -0.39689  -0.39226  -0.38076  -0.37847  -0.37708
 Alpha  occ. eigenvalues --   -0.37361  -0.36726  -0.36545  -0.35732  -0.35589
 Alpha  occ. eigenvalues --   -0.34743  -0.34212  -0.33065  -0.32325  -0.32108
 Alpha  occ. eigenvalues --   -0.30942  -0.28845  -0.28110  -0.27065  -0.26759
 Alpha  occ. eigenvalues --   -0.26121  -0.25834  -0.25170  -0.24944  -0.24617
 Alpha  occ. eigenvalues --   -0.23321  -0.21831
 Alpha virt. eigenvalues --   -0.05762  -0.03948  -0.03561  -0.03342  -0.01493
 Alpha virt. eigenvalues --   -0.01185   0.00266   0.00618   0.01221   0.02010
 Alpha virt. eigenvalues --    0.03957   0.03985   0.04583   0.05807   0.06923
 Alpha virt. eigenvalues --    0.07559   0.07727   0.08244   0.08878   0.09871
 Alpha virt. eigenvalues --    0.10427   0.10993   0.11115   0.11376   0.12203
 Alpha virt. eigenvalues --    0.12793   0.12958   0.13176   0.13787   0.14561
 Alpha virt. eigenvalues --    0.14717   0.15446   0.16043   0.16482   0.16890
 Alpha virt. eigenvalues --    0.17632   0.18544   0.20302   0.20918   0.21170
 Alpha virt. eigenvalues --    0.21840   0.22579   0.24383   0.24567   0.24926
 Alpha virt. eigenvalues --    0.25227   0.25807   0.27166   0.27754   0.27941
 Alpha virt. eigenvalues --    0.28244   0.28972   0.29220   0.30010   0.30710
 Alpha virt. eigenvalues --    0.31282   0.31399   0.31439   0.32961   0.34366
 Alpha virt. eigenvalues --    0.34917   0.35446   0.37163   0.37948   0.38852
 Alpha virt. eigenvalues --    0.39347   0.39957   0.40648   0.41357   0.42015
 Alpha virt. eigenvalues --    0.42932   0.43646   0.44036   0.44848   0.45238
 Alpha virt. eigenvalues --    0.45600   0.45937   0.46299   0.46505   0.46711
 Alpha virt. eigenvalues --    0.47088   0.47339   0.47637   0.47729   0.48003
 Alpha virt. eigenvalues --    0.48420   0.48610   0.48737   0.48972   0.49295
 Alpha virt. eigenvalues --    0.49792   0.49992   0.50640   0.50669   0.50849
 Alpha virt. eigenvalues --    0.50863   0.51546   0.51550   0.51728   0.52170
 Alpha virt. eigenvalues --    0.52348   0.53257   0.53386   0.53718   0.54340
 Alpha virt. eigenvalues --    0.55041   0.55521   0.55892   0.55944   0.55965
 Alpha virt. eigenvalues --    0.56296   0.56994   0.57549   0.58235   0.58881
 Alpha virt. eigenvalues --    0.59215   0.59470   0.60067   0.60549   0.60731
 Alpha virt. eigenvalues --    0.61348   0.61547   0.61725   0.62139   0.62875
 Alpha virt. eigenvalues --    0.63222   0.63565   0.63968   0.64796   0.65266
 Alpha virt. eigenvalues --    0.65380   0.65707   0.65922   0.66047   0.66655
 Alpha virt. eigenvalues --    0.66867   0.67182   0.67771   0.68142   0.68564
 Alpha virt. eigenvalues --    0.69329   0.69714   0.70118   0.70576   0.71086
 Alpha virt. eigenvalues --    0.71468   0.71749   0.72263   0.72567   0.73337
 Alpha virt. eigenvalues --    0.73629   0.73908   0.74822   0.75316   0.75985
 Alpha virt. eigenvalues --    0.76376   0.77129   0.78648   0.79498   0.80115
 Alpha virt. eigenvalues --    0.80617   0.81144   0.82545   0.83010   0.83738
 Alpha virt. eigenvalues --    0.84149   0.84480   0.85094   0.85328   0.85730
 Alpha virt. eigenvalues --    0.87317   0.88057   0.88422   0.89050   0.89320
 Alpha virt. eigenvalues --    0.89847   0.90042   0.90664   0.91125   0.91929
 Alpha virt. eigenvalues --    0.92623   0.93065   0.93381   0.93874   0.94949
 Alpha virt. eigenvalues --    0.95223   0.95609   0.96068   0.96636   0.96823
 Alpha virt. eigenvalues --    0.97935   0.99172   0.99310   0.99731   1.00723
 Alpha virt. eigenvalues --    1.00968   1.01097   1.01480   1.01897   1.02096
 Alpha virt. eigenvalues --    1.02574   1.02868   1.03400   1.03652   1.03870
 Alpha virt. eigenvalues --    1.04235   1.04516   1.04850   1.05594   1.06013
 Alpha virt. eigenvalues --    1.06646   1.06972   1.07095   1.07976   1.08287
 Alpha virt. eigenvalues --    1.09386   1.10281   1.11338   1.12043   1.12901
 Alpha virt. eigenvalues --    1.13123   1.13856   1.14801   1.15609   1.16298
 Alpha virt. eigenvalues --    1.17177   1.18013   1.18886   1.19537   1.19850
 Alpha virt. eigenvalues --    1.20977   1.21714   1.22221   1.23612   1.24028
 Alpha virt. eigenvalues --    1.25185   1.25352   1.26573   1.27528   1.29709
 Alpha virt. eigenvalues --    1.30736   1.32480   1.33359   1.33834   1.34310
 Alpha virt. eigenvalues --    1.35496   1.36291   1.36490   1.38655   1.39130
 Alpha virt. eigenvalues --    1.40632   1.41604   1.41975   1.42907   1.44411
 Alpha virt. eigenvalues --    1.45347   1.45877   1.46750   1.47130   1.47456
 Alpha virt. eigenvalues --    1.48463   1.49128   1.49270   1.49435   1.50383
 Alpha virt. eigenvalues --    1.51162   1.51233   1.51705   1.52233   1.52640
 Alpha virt. eigenvalues --    1.52894   1.53670   1.56278   1.56569   1.56935
 Alpha virt. eigenvalues --    1.57321   1.57835   1.58049   1.59021   1.59506
 Alpha virt. eigenvalues --    1.59711   1.60505   1.60655   1.61590   1.62022
 Alpha virt. eigenvalues --    1.62433   1.63283   1.63481   1.63896   1.64340
 Alpha virt. eigenvalues --    1.65267   1.65390   1.65601   1.66251   1.66330
 Alpha virt. eigenvalues --    1.66510   1.66688   1.67621   1.68107   1.68375
 Alpha virt. eigenvalues --    1.69140   1.69958   1.70226   1.71188   1.71270
 Alpha virt. eigenvalues --    1.71992   1.72726   1.73034   1.73856   1.74303
 Alpha virt. eigenvalues --    1.75087   1.75449   1.75811   1.76196   1.76483
 Alpha virt. eigenvalues --    1.76918   1.77827   1.78577   1.79098   1.79659
 Alpha virt. eigenvalues --    1.80058   1.80480   1.80699   1.81098   1.81597
 Alpha virt. eigenvalues --    1.81989   1.82703   1.82996   1.83775   1.84195
 Alpha virt. eigenvalues --    1.84501   1.84605   1.85332   1.85651   1.86528
 Alpha virt. eigenvalues --    1.86789   1.87331   1.87458   1.88010   1.88711
 Alpha virt. eigenvalues --    1.88859   1.89648   1.89984   1.90868   1.91573
 Alpha virt. eigenvalues --    1.92230   1.92716   1.94065   1.94628   1.94830
 Alpha virt. eigenvalues --    1.95549   1.97931   1.98314   1.99366   1.99538
 Alpha virt. eigenvalues --    2.00218   2.00815   2.01687   2.01986   2.02877
 Alpha virt. eigenvalues --    2.03292   2.04990   2.05330   2.05756   2.06433
 Alpha virt. eigenvalues --    2.06998   2.07581   2.09187   2.10049   2.11227
 Alpha virt. eigenvalues --    2.12192   2.13184   2.13752   2.14565   2.17158
 Alpha virt. eigenvalues --    2.17994   2.18237   2.18438   2.19898   2.20407
 Alpha virt. eigenvalues --    2.20839   2.23385   2.23645   2.25917   2.27310
 Alpha virt. eigenvalues --    2.28453   2.30814   2.30980   2.32374   2.32679
 Alpha virt. eigenvalues --    2.33481   2.34851   2.37092   2.37252   2.37619
 Alpha virt. eigenvalues --    2.40999   2.41434   2.41916   2.43384   2.43723
 Alpha virt. eigenvalues --    2.44044   2.44981   2.46196   2.47386   2.48139
 Alpha virt. eigenvalues --    2.49135   2.49598   2.49905   2.51799   2.54063
 Alpha virt. eigenvalues --    2.54538   2.55136   2.55476   2.56641   2.58511
 Alpha virt. eigenvalues --    2.61447   2.62901   2.64601   2.65069   2.66242
 Alpha virt. eigenvalues --    2.68340   2.68982   2.69627   2.70445   2.71195
 Alpha virt. eigenvalues --    2.72964   2.74437   2.74605   2.75108   2.77050
 Alpha virt. eigenvalues --    2.78342   2.78643   2.79214   2.79922   2.80693
 Alpha virt. eigenvalues --    2.81635   2.81960   2.83209   2.86567   2.91178
 Alpha virt. eigenvalues --    2.93042   2.96829   2.97792   2.99725   3.00642
 Alpha virt. eigenvalues --    3.02085   3.08844   3.11025   3.13273   3.16772
 Alpha virt. eigenvalues --    3.42114   3.44242   3.44723   3.45826   3.49166
 Alpha virt. eigenvalues --    3.54225   3.60727   3.65375
          Condensed to atoms (all electrons):
 Mulliken atomic charges:
              1
     1  Cl  -0.098229
     2  C   -0.160661
     3  C    0.143687
     4  C    0.062358
     5  C    0.034663
     6  C   -0.107260
     7  C    0.150174
     8  C    0.183254
     9  N   -0.282573
    10  C    0.102787
    11  O   -0.242053
    12  C    0.156035
    13  N   -0.229886
    14  N   -0.054860
    15  N   -0.180204
    16  C   -0.002570
    17  C    0.064044
    18  C    0.049572
    19  C    0.051777
    20  C    0.046007
    21  C    0.212185
    22  C    0.080077
    23  C    0.047533
    24  C    0.036178
    25  C    0.045151
    26  C    0.076480
    27  C    0.101650
    28  C   -0.100331
    29  C    0.115368
    30  C   -0.033459
    31  C    0.147525
    32  N   -0.027556
    33  C    0.116847
    34  O   -0.274760
    35  H   -0.025717
    36  H   -0.023743
    37  H   -0.022257
    38  H   -0.041507
    39  H    0.037557
    40  H    0.049762
    41  H    0.046079
    42  H    0.051702
    43  H   -0.033884
    44  H   -0.038877
    45  H   -0.038344
    46  H   -0.045480
    47  H   -0.047394
    48  H   -0.052323
    49  H   -0.037057
    50  H   -0.033407
    51  H   -0.034004
    52  H   -0.030242
    53  H    0.006492
    54  H    0.083694
 Sum of Mulliken atomic charges =   0.00000
 Mulliken charges with hydrogens summed into heavy atoms:
              1
     1  Cl  -0.098229
     2  C   -0.160661
     3  C    0.117971
     4  C    0.038615
     5  C    0.012406
     6  C   -0.107260
     7  C    0.108667
     8  C    0.270573
     9  N   -0.282573
    10  C    0.102787
    11  O   -0.242053
    12  C    0.253816
    13  N   -0.229886
    14  N   -0.054860
    15  N   -0.180204
    16  C   -0.002570
    17  C    0.030160
    18  C    0.010695
    19  C    0.013434
    20  C    0.000527
    21  C    0.212185
    22  C    0.080077
    23  C    0.000139
    24  C   -0.016145
    25  C    0.045151
    26  C    0.039423
    27  C    0.068243
    28  C   -0.100331
    29  C    0.081364
    30  C   -0.063701
    31  C    0.154018
    32  N    0.056138
    33  C    0.116847
    34  O   -0.274760
 Sum of Mulliken charges with hydrogens summed into heavy atoms =   0.00000
 Electronic spatial extent (au):  <R**2>=          22924.9435
 Charge=              0.0000 electrons
 Dipole moment (field-independent basis, Debye):
    X=              4.8926    Y=              4.2297    Z=              4.9182  Tot=              8.1251
 Quadrupole moment (field-independent basis, Debye-Ang):
   XX=           -159.3023   YY=           -218.8418   ZZ=           -197.6562
   XY=             -6.3208   XZ=              2.0274   YZ=             -7.4348
 Traceless Quadrupole moment (field-independent basis, Debye-Ang):
   XX=             32.6311   YY=            -26.9083   ZZ=             -5.7228
   XY=             -6.3208   XZ=              2.0274   YZ=             -7.4348
 Octapole moment (field-independent basis, Debye-Ang**2):
  XXX=            581.2961  YYY=            -29.2664  ZZZ=             35.7632  XYY=             36.8842
  XXY=            -48.5075  XXZ=            152.4594  XZZ=            -12.5729  YZZ=             44.2190
  YYZ=             43.5739  XYZ=             36.1161
 Hexadecapole moment (field-independent basis, Debye-Ang**3):
 XXXX=         -15379.4697 YYYY=          -9004.1219 ZZZZ=          -1890.1499 XXXY=           -500.1580
 XXXZ=            233.9140 YYYX=             96.4443 YYYZ=            -73.0707 ZZZX=            -18.8766
 ZZZY=            -69.5704 XXYY=          -4904.2323 XXZZ=          -3753.7524 YYZZ=          -1767.7783
 XXYZ=           -189.4047 YYXZ=           -281.9598 ZZXY=            -95.3487
 N-N= 3.323204582318D+03 E-N=-1.105951085581D+04  KE= 1.878309966659D+03
 No NMR shielding tensors so no spin-rotation constants.
 Leave Link  601 at Wed Sep  7 13:58:04 2022, MaxMem=  209715200 cpu:       4.4
 (Enter /opt/gaussian/l701.exe)
 Compute integral first derivatives.
 ... and contract with generalized density number  0.
 Leave Link  701 at Wed Sep  7 13:58:05 2022, MaxMem=  209715200 cpu:       3.7
 (Enter /opt/gaussian/l702.exe)
 L702 exits ... SP integral derivatives will be done elsewhere.
 Leave Link  702 at Wed Sep  7 13:58:05 2022, MaxMem=  209715200 cpu:       0.2
 (Enter /opt/gaussian/l703.exe)
 Compute integral first derivatives, UseDBF=F ICtDFT=           0.
 Integral derivatives from FoFDir, PRISM(SPDF).
 Calling FoFJK, ICntrl=      2127 FMM=F ISym2X=0 I1Cent= 0 IOpClX= 0 NMat=1 NMatS=1 NMatT=0.
 FoFCou: FMM=F IPFlag=           0 FMFlag=      100000 FMFlg1=         800
         NFxFlg=           0 DoJE=F BraDBF=F KetDBF=F FulRan=T
         Omega=  0.000000  0.000000  1.000000  0.000000  0.000000 ICntrl=    2127 IOpCl=  0
         NMat0=    1 NMatS0=    1 NMatT0=    0 NMatD0=    1 NMtDS0=    0 NMtDT0=    0
         I1Cent=           0 NGrid=           0.
 Symmetry not used in FoFCou.
 Leave Link  703 at Wed Sep  7 14:02:44 2022, MaxMem=  209715200 cpu:    2224.6
 (Enter /opt/gaussian/l716.exe)
 Dipole        = 1.92491157D+00 1.66409103D+00 1.93497467D+00
 ***** Axes restored to original set *****
 -------------------------------------------------------------------
 Center     Atomic                   Forces (Hartrees/Bohr)
 Number     Number              X              Y              Z
 -------------------------------------------------------------------
      1       17           0.007818417   -0.013734727    0.006212789
      2        6          -0.013065952    0.022941211   -0.010007917
      3        6           0.000435152   -0.001206191    0.001894221
      4        6           0.000710675    0.000334549   -0.004713971
      5        6          -0.000904566    0.002196985   -0.000505090
      6        6           0.002895062   -0.003099865   -0.005262731
      7        6           0.001653700   -0.002301062   -0.000570711
      8        6          -0.003655383   -0.004654974    0.013660047
      9        7           0.004834456    0.007938351   -0.003158807
     10        6           0.003830063   -0.014126240    0.007940723
     11        8          -0.000231946    0.001009478   -0.001642625
     12        6           0.001354443   -0.004665486    0.003370213
     13        7           0.000042185    0.000302246    0.000020416
     14        7           0.009370120    0.012501969   -0.009405763
     15        7          -0.012129823   -0.019454046    0.001720101
     16        6          -0.000411050   -0.006625792   -0.014924068
     17        6           0.001379029    0.001904034   -0.001621030
     18        6           0.003537490    0.006798978    0.002196470
     19        6          -0.003567271   -0.006409953   -0.001956102
     20        6           0.000857239   -0.000171039   -0.004862862
     21        6           0.005724629    0.010563357    0.005933954
     22        6          -0.009731786    0.000006685   -0.002118365
     23        6           0.003298830   -0.000743574   -0.000279459
     24        6          -0.003155626   -0.001348895   -0.000834938
     25        6           0.011236262   -0.001768969    0.001663247
     26        6          -0.002204604    0.003367444   -0.000149800
     27        6           0.001960809    0.000345707    0.002961800
     28        6          -0.007851126   -0.001227571   -0.009841748
     29        6           0.014876590    0.000995541    0.008837243
     30        6          -0.018760011    0.003114253    0.001999165
     31        6           0.000373093   -0.003333068   -0.014107574
     32        7           0.002749478    0.004728686    0.019270290
     33        6          -0.014889859   -0.004099588   -0.021076283
     34        8           0.001314284    0.000576211    0.004559289
     35        1          -0.007372542    0.008926133    0.008633491
     36        1          -0.000638377   -0.002766512    0.013923331
     37        1           0.006273130   -0.011507728    0.005081303
     38        1           0.000372674    0.002919282   -0.013647125
     39        1          -0.007011153   -0.001826475   -0.010510672
[...]
 .00018491,-0.00001464,0.00012401,0.00021143,0.01721739,-0.01492115,-0.
 00940807,0.10010102,-0.09504585,-0.15511681,-0.00591511,0.00311613,0.0
 0744629,-0.00224587,-0.00151559,0.00171726,0.00010892,0.00026160,-0.00
 015088,-0.00553566,-0.00489580,0.00145038,0.00138615,-0.00032110,-0.00
 208605,0.00000071,-0.00000266,0.00000018,-0.00000019,-0.00000049,-0.00
 000245,-0.00001221,-0.00000913,0.00001243,-0.00000333,0.00000103,-0.00
 000020,0.00001571,-0.00000353,0.00000310,-0.00000343,0.00000206,-0.000
 02229,0.00000611,0.00000407,0.00000234,0.00000227,-0.00000047,-0.00000
 431,0.00000101,0.00000106,0.00000051,0.00000156,0.00000161,-0.00000139
 ,0.00000009,-0.00000052,-0.00000175,-0.00000148,0.00000124,0.00000475,
 -0.00004775,-0.00003428,0.00001543,-0.00055258,0.00107410,-0.00008143,
 0.00016069,0.00013961,-0.00005101,0.00001259,0.00001080,-0.00001690,-0
 .10561043,0.10813639,0.15731441,-0.00000693,0.00001222,-0.00000260,0.0
 0000773,-0.00001330,0.00000542,-0.00000431,0.00000905,0.00000134,0.000
 00409,-0.00000281,-0.00001109,-0.00000664,0.00000189,0.00001159,0.0000
 0798,-0.00000259,-0.00001550,-0.00000480,0.00000507,0.00001107,0.00000
 491,-0.00006185,-0.00000528,-0.00014905,-0.00001406,-0.00002445,0.0000
 7538,0.00011040,-0.00000446,-0.00003604,-0.00005196,0.00002499,0.00001
 206,0.00001510,-0.00000716,-0.00001755,-0.00001307,-0.00000762,0.00000
 467,0.00001307,0.00002336,-0.00001005,-0.00001540,0.00000346,-0.000001
 85,-0.00000261,-0.00000444,0.00000117,0.00000181,-0.00000027,-0.000000
 95,-0.00000140,0.00000142,0.00000072,0.00000192,-0.00000260,-0.0000014
 2,-0.00000059,0.00000430,0.00001065,0.00000630,-0.00002011,0.00009974,
 0.00000909,0.00002448,-0.00005509,-0.00000188,0.00003146,-0.00003380,-
 0.00010570,0.00003809,0.00033653,-0.00083343,-0.00106981,-0.00041590,0
 .00020925,-0.00004310,-0.00003464,-0.00011912,-0.00000303,-0.00480240,
 0.00194747,-0.00007154,-0.00567291,-0.01514229,-0.02423532,-0.09395809
 ,-0.04691367,-0.08912792,0.01056619,0.00888671,0.01666497,-0.00196372,
 0.00346762,0.00202961,-0.00170705,0.00056088,0.00048490,0.00057126,-0.
 00023148,-0.00005922,-0.00000213,0.00000133,-0.00000033,-0.00000267,-0
 .00000042,0.00000312,0.00000456,-0.00000025,-0.00001157,0.00000117,-0.
 00000236,-0.00000003,-0.00001318,0.00001228,-0.00000375,0.00000236,-0.
 00000171,0.00000847,-0.00000719,-0.00000376,-0.00000105,-0.00000309,-0
 .00000011,0.00000168,-0.00000038,-0.00000066,-0.00000023,-0.00000089,-
 0.00000110,0.00000078,-0.00000043,-0.00000010,0.00000170,0.00000145,-0
 .00000084,-0.00000370,-0.00002212,0.00001185,-0.00000367,0.00002981,0.
 00003182,-0.00002340,-0.00000397,0.00000945,-0.00000915,-0.00003727,0.
 00000772,-0.00001374,0.00110537,-0.00032604,0.00057030,0.09502930,-0.0
 0000277,0.00000338,-0.00000087,0.00000324,-0.00000539,0.00000222,-0.00
 000159,0.00000149,-0.00000019,-0.00000009,-0.00000157,-0.00000431,-0.0
 0000469,0.00000065,0.00000273,0.00000112,-0.00000234,-0.00000335,-0.00
 000232,0.00000092,0.00000301,0.00000154,-0.00001222,-0.00000376,-0.000
 06127,-0.00002111,-0.00001077,0.00003372,0.00006715,-0.00000938,-0.000
 00784,-0.00003690,0.00001553,0.00000695,0.00000974,-0.00000251,-0.0000
 0868,-0.00000842,-0.00000377,0.00000305,0.00000621,0.00001330,-0.00000
 542,-0.00000864,0.00000175,-0.00000115,-0.00000135,-0.00000247,0.00000
 084,0.00000079,-0.00000040,-0.00000003,-0.00000098,0.00000096,0.000000
 74,0.00000040,-0.00000141,0.00000047,-0.00000026,0.00000269,0.00000481
 ,0.00000352,-0.00001089,0.00001945,0.00002680,0.00001251,-0.00002167,-
 0.00003449,0.00001449,-0.00004044,0.00000479,0.00003355,0.00041608,0.0
 0046834,-0.00007357,-0.00000573,-0.00009606,0.00001445,0.00003496,0.00
 000438,0.00004466,0.00109781,0.00292380,-0.00148216,0.00203436,0.00221
 160,0.00411599,-0.04604349,-0.10144156,-0.12323919,-0.00902672,-0.0069
 7599,-0.01109357,0.00407136,0.00387742,-0.00407208,0.00025895,-0.00039
 002,0.00039604,-0.00014677,-0.00021666,0.00023130,0.00000064,0.0000008
 6,-0.00000010,0.00000058,0.00000111,0.00000074,0.00000289,0.00000139,-
 0.00000335,0.00000145,-0.00000018,0.00000042,-0.00000372,0.00000352,-0
 .00000197,0.00000059,-0.00000068,0.00000318,-0.00000186,-0.00000150,-0
 .00000084,-0.00000088,0.00000039,0.00000154,-0.00000049,-0.00000021,-0
 .00000028,-0.00000097,-0.00000051,0.00000048,-0.00000060,0.00000054,0.
 00000100,0.00000005,0.00000033,-0.00000195,0.00000181,0.00000376,0.000
 00079,0.00003729,-0.00000125,-0.00000968,-0.00000767,0.00002244,-0.000
 01265,0.00000911,0.00000227,-0.00000435,-0.00062832,-0.00142279,0.0013
 1085,0.04882443,0.10274061,-0.00000619,0.00001140,-0.00000384,0.000007
 59,-0.00001300,0.00000576,-0.00000268,0.00000557,-0.00000155,0.0000016
 7,-0.00000215,-0.00000379,-0.00000251,-0.00000089,0.00000479,0.0000037
 4,0.00000041,-0.00000628,-0.00000292,0.00000431,0.00000515,0.00000333,
 -0.00003518,0.00000013,-0.00007667,-0.00000217,-0.00000898,0.00003889,
 0.00004018,0.00000496,-0.00002139,-0.00001441,0.00000344,0.00000518,0.
 00000752,-0.00000367,-0.00000891,-0.00000640,-0.00000491,0.00000340,0.
 00000886,0.00001074,-0.00000632,-0.00000868,0.00000202,-0.00000054,-0.
 00000115,-0.00000264,0.00000021,0.00000088,0.00000075,-0.00000081,-0.0
 0000027,-0.00000072,0.00000025,0.00000190,-0.00000094,-0.00000107,0.00
 000065,0.00000253,0.00000465,0.00000161,-0.00000871,0.00007164,-0.0000
 2021,0.00001323,-0.00001689,0.00000361,-0.00002071,0.00000164,-0.00004
 545,-0.00003433,-0.00010539,-0.00045766,-0.00000819,-0.00006698,0.0001
 6952,-0.00001691,-0.00004396,-0.00000121,-0.00003927,-0.00063693,-0.00
 106899,0.00261599,0.00069569,-0.00136587,-0.00214642,-0.08734147,-0.12
 399298,-0.23621333,-0.00971454,-0.00497923,-0.01164186,0.00282737,-0.0
 0429897,0.00205538,0.00035357,0.00044476,0.00009145,-0.00010018,0.0002
 0106,-0.00013193,-0.00000101,0.00000045,0.00000032,0.00000020,-0.00000
 060,0.00000051,0.00000262,0.00000112,-0.00000413,0.00000008,-0.0000013
 5,-0.00000065,-0.00000730,0.00000577,-0.00000203,0.00000167,-0.0000011
 0,0.00000495,-0.00000356,-0.00000201,-0.00000011,-0.00000157,-0.000000
 39,0.00000064,0.,-0.00000061,-0.00000023,-0.00000007,-0.00000075,0.000
 00057,0.00000072,-0.00000012,0.00000023,0.00000119,-0.00000157,-0.0000
 0124,-0.00000985,0.00000498,0.00000093,-0.00002057,-0.00002004,0.00000
 340,0.00001427,-0.00000215,0.00001223,-0.00001520,-0.00000005,-0.00000
 069,0.00017327,0.00146910,-0.00028316,0.09414860,0.13262908,0.24645723
 ,-0.00000380,0.00000629,-0.00000207,0.00000478,-0.00000817,0.00000328,
 -0.00000139,0.00000251,-0.00000102,0.00000027,-0.00000149,-0.00000312,
 -0.00000270,-0.00000088,0.00000229,0.00000088,-0.00000105,-0.00000281,
 -0.00000217,0.00000221,0.00000255,0.00000233,-0.00000949,0.00000312,-0
 .00002506,-0.00000430,0.00000154,0.00002266,0.00001560,-0.00000294,-0.
 00001700,-0.00000705,0.00000496,0.00000390,0.00000674,-0.00000235,-0.0
 0000619,-0.00000556,-0.00000291,0.00000215,0.00000557,0.00000880,-0.00
 000457,-0.00000635,0.00000119,-0.00000057,-0.00000092,-0.00000158,0.00
 000049,0.00000077,0.00000006,-0.00000026,-0.00000024,0.00000012,0.0000
 0021,0.00000079,-0.00000093,-0.00000025,0.00000026,0.00000200,0.000003
 44,0.00000179,-0.00000694,0.00002458,-0.00001742,-0.00000091,0.0000224
 4,0.00000851,-0.00002340,-0.00001166,0.00007146,0.00006240,0.00014903,
 -0.00019996,0.00017130,-0.00004316,-0.00005100,-0.00008618,-0.00000989
 ,0.00000084,-0.00000722,0.00024143,0.00014973,0.00023105,0.00011347,0.
 00328640,0.00233303,-0.01063675,-0.00059885,-0.00595694,-0.33519072,0.
 03491002,-0.04184587,-0.01072357,0.00113803,-0.00242680,0.00521751,-0.
 00016994,-0.00024562,-0.00121181,-0.00042539,-0.00082307,-0.00000012,0
 .00000050,0.00000005,0.00000073,0.00000002,0.00000019,0.00000249,0.000
 00193,-0.00000193,0.00000070,-0.00000044,-0.00000009,-0.00000269,0.000
 00103,-0.00000089,0.00000058,-0.00000086,0.00000366,-0.00000165,-0.000
 00121,-0.00000034,-0.00000041,-0.00000015,0.00000089,-0.00000012,-0.00
 000034,-0.00000028,-0.00000037,-0.00000053,0.00000041,0.00000022,0.000
 00021,0.00000040,0.00000057,-0.00000061,-0.00000111,0.00000153,0.00000
 502,-0.00000203,0.00000298,-0.00004410,-0.00000169,0.00003440,0.000026
 43,0.00000770,-0.00000052,-0.00000007,-0.00000095,-0.00074610,-0.00007
 702,-0.00023736,0.00055916,-0.00066283,0.00060713,0.35171977,0.0000023
 2,-0.00000467,0.00000188,-0.00000303,0.00000496,-0.00000286,0.00000077
 ,-0.00000206,0.00000143,-0.00000062,0.00000114,0.00000085,0.00000068,0
 .00000120,-0.00000106,0.00000027,-0.00000065,0.00000066,0.00000056,-0.
 00000113,-0.00000119,-0.00000025,0.00000848,0.00000065,-0.00001173,-0.
 00000378,0.00000919,-0.00000164,0.00000984,-0.00000913,0.00000867,-0.0
 0000705,0.00000591,0.00000038,0.00000127,-0.00000005,0.00000097,-0.000
 00035,0.00000084,-0.00000039,-0.00000179,0.00000021,0.00000092,0.00000
 063,-0.00000027,-0.00000025,-0.00000003,0.00000036,0.00000037,-0.00000
 006,-0.00000056,0.00000048,-0.00000033,0.00000077,0.00000022,-0.000000
 77,0.00000017,0.00000065,-0.00000054,-0.00000027,-0.00000023,0.0000007
 1,-0.00000022,0.00000836,0.00002657,0.00001734,-0.00004844,-0.00002388
 ,-0.00001990,0.00006441,0.00009070,0.00015255,0.00024636,-0.00075436,0
 .00076682,-0.00010936,-0.00013834,-0.00016672,0.00004305,0.00004115,-0
 .00009492,-0.00064442,0.00013367,-0.00016078,0.00237299,0.00326769,-0.
 00587223,0.01542255,0.00507546,0.00383303,0.03872206,-0.04741921,-0.00
 564674,-0.01987813,0.00312346,-0.00501480,0.00271929,0.00175021,-0.003
 44815,-0.00121580,-0.00037292,-0.00065579,0.00000044,0.00000001,-0.000
 00016,-0.00000037,0.00000052,0.00000032,-0.00000090,-0.00000073,0.0000
 0042,0.00000048,0.00000043,0.00000042,0.00000198,-0.00000177,0.0000006
 2,-0.00000078,0.00000039,-0.00000167,0.00000060,-0.00000005,-0.0000003
 3,0.00000051,0.00000031,0.00000009,-0.00000031,0.00000024,-0.00000004,
 -0.00000043,0.00000022,-0.00000003,-0.00000062,0.00000031,0.00000027,-
 0.00000059,0.00000085,-0.00000013,0.00001037,0.00000076,-0.00000326,0.
 00001546,0.00002823,-0.00005670,-0.00000773,0.00001319,0.00007539,-0.0
 0000046,0.00000099,0.00000018,0.00071796,-0.00017344,0.00041748,-0.000
 98766,-0.00279227,0.00233994,-0.03672872,0.03934878,0.00000030,-0.0000
 0008,-0.00000019,-0.00000024,0.00000061,0.00000027,-0.00000002,0.00000
 031,-0.00000026,0.00000029,-0.00000011,0.00000097,0.00000043,0.0000004
 4,-0.00000031,-0.00000060,0.00000037,-0.00000008,0.00000047,-0.0000002
 5,-0.00000006,-0.00000245,0.00000265,0.00000086,0.00003715,0.00002044,
 0.00000029,-0.00000904,-0.00003109,0.00000603,-0.00000405,0.00001696,-
 0.00000470,-0.00000174,-0.00000286,0.00000002,0.00000200,0.00000223,0.
 00000071,-0.00000090,-0.00000094,-0.00000344,0.00000117,0.00000226,-0.
 00000027,0.00000038,0.00000021,0.00000050,-0.00000022,-0.00000001,0.00
 000026,-0.00000011,0.00000034,-0.00000047,-0.00000021,0.00000012,0.000
 00044,-0.00000039,0.00000002,-0.00000081,-0.00000108,-0.00000113,0.000
 00276,-0.00002210,-0.00001126,-0.00002765,0.00001305,0.00007877,0.0000
 4129,-0.00009056,-0.00009925,-0.00008934,-0.00004042,0.00073931,-0.000
 22186,0.00011697,-0.00006564,0.00006776,-0.00000267,0.00000814,0.00009
 275,-0.00026196,-0.00006873,-0.00004371,0.00083712,-0.00557942,0.00002
 048,0.01736710,-0.00133656,0.00926216,-0.03679400,-0.00690048,-0.05655
 038,-0.03231376,0.00180160,-0.00485274,0.00384496,-0.00401563,-0.00003
 320,-0.00199716,-0.00077524,-0.00155931,-0.00000009,-0.00000023,0.0000
 0014,-0.00000034,-0.00000014,-0.00000010,-0.00000068,-0.00000043,0.000
 00032,-0.00000051,-0.00000018,-0.00000015,0.00000082,-0.00000034,0.000
 00029,-0.00000006,-0.00000040,-0.00000054,0.00000030,0.00000049,0.0000
 0040,0.00000015,-0.00000036,-0.00000040,0.00000021,-0.00000002,0.00000
 010,0.00000036,0.00000009,-0.00000006,0.00000024,-0.00000025,-0.000000
 31,0.00000007,-0.00000025,0.00000053,-0.00001187,-0.00000201,0.0000025
 0,-0.00001545,0.00005168,0.00003223,0.00008771,0.00005628,-0.00007869,
 0.00000762,-0.00000166,0.00000209,0.00105462,0.00011497,0.00016247,0.0
 0016442,0.00249550,-0.00095288,0.04814174,0.01184803,0.05496758,0.0000
 1329,-0.00002198,0.00000757,-0.00001638,0.00002775,-0.00001179,0.00000
 588,-0.00000937,0.00000343,-0.00000197,0.00000445,0.00000818,0.0000073
 6,0.00000095,-0.00000882,-0.00000472,0.00000088,0.00001109,0.00000742,
 -0.00000857,-0.00000996,-0.00000854,0.00005886,0.00000021,0.00014746,0
 .00000330,0.00002451,-0.00009019,-0.00009320,-0.00000538,0.00004352,0.
 00003816,-0.00001204,-0.00001468,-0.00002219,0.00000972,0.00002179,0.0
 0001831,0.00001232,-0.00000863,-0.00002142,-0.00002874,0.00001566,0.00
 002138,-0.00000547,0.00000131,0.00000285,0.00000732,-0.00000087,-0.000
 00234,-0.00000154,0.00000171,0.00000090,0.00000147,-0.00000094,-0.0000
 0438,0.00000232,0.00000186,-0.00000150,-0.00000654,-0.00001126,-0.0000
 0417,0.00002241,-0.00007297,-0.00001058,-0.00000524,0.00005477,0.00019
 148,-0.00003056,-0.00047351,-0.00014560,-0.00010450,-0.00013923,0.0010
 2790,0.00141808,0.00015424,0.00015504,-0.00005045,-0.00000773,-0.00010
 343,-0.00004802,-0.00568916,-0.00010103,-0.00318901,-0.00175192,-0.000
 71386,-0.00126804,0.00084855,-0.00231148,-0.00445657,0.01391078,-0.010
 22823,-0.00853644,-0.20136995,0.12742023,0.12422457,-0.01555530,0.0228
 8964,0.02636160,0.00578092,-0.00283996,-0.00096350,0.00000039,-0.00000
 156,-0.00000065,-0.00000173,-0.00000002,-0.00000096,-0.00000627,-0.000
 00223,0.00000768,-0.00000203,0.00000207,0.00000058,0.00001171,-0.00001
 163,0.00000497,-0.00000331,0.00000138,-0.00000711,0.00000711,0.0000042
 3,0.00000044,0.00000330,0.00000065,-0.00000240,0.00000029,0.00000143,0
 .00000069,0.00000065,0.00000188,-0.00000167,-0.00000146,-0.00000011,-0
 .00000078,-0.00000233,0.00000323,0.00000324,-0.00003618,-0.00000312,-0
 .00001712,0.00000289,0.00000562,0.00003313,-0.00013307,-0.00012111,0.0
 0005114,-0.00000954,0.00000730,-0.00000392,0.00001090,-0.00007360,0.00
 005185,0.00054024,-0.00018029,-0.00075314,0.00051077,-0.00072128,-0.00
 010696,0.20330910,-0.00000768,0.00001103,-0.00000308,0.00000910,-0.000
 01507,0.00000564,-0.00000401,0.00000526,-0.00000031,0.00000072,-0.0000
 0286,-0.00000745,-0.00000832,0.,0.00000723,0.00000508,-0.00000537,-0.0
 0000961,-0.00000604,0.00000453,0.00000676,0.00000374,-0.00004092,-0.00
 001329,-0.00017275,-0.00004924,-0.00001651,0.00008650,0.00017107,-0.00
 001470,-0.00001807,-0.00009153,0.00002937,0.00001672,0.00002330,-0.000
 00738,-0.00002231,-0.00002098,-0.00001184,0.00001115,0.00001873,0.0000
 3120,-0.00001375,-0.00002404,0.00000535,-0.00000264,-0.00000259,-0.000
 00722,0.00000150,0.00000089,0.00000062,-0.00000044,-0.00000320,0.00000
 030,0.00000248,0.00000263,-0.00000178,0.00000097,0.00000037,0.00000718
 ,0.00001012,0.00000681,-0.00002515,0.00008024,0.00005694,0.00005660,-0
 .00008613,-0.00010217,-0.00008731,0.00007325,0.00000563,0.00010979,-0.
 00037722,-0.00043850,0.00018014,-0.00015401,0.00015587,0.00005664,0.00
 004996,0.00001171,-0.00001625,0.00056264,0.00315766,-0.00226671,0.0005
 6807,-0.00028632,0.00108104,-0.00313785,0.00346377,-0.00272216,0.00883
 218,-0.01020123,-0.00395739,0.12771115,-0.14608072,-0.14269147,0.00104
 306,0.00382350,0.00068075,-0.00097665,-0.00410048,0.00127198,0.0000002
 7,0.00000170,0.00000012,0.00000096,0.00000110,0.00000183,0.00000625,0.
 00000220,-0.00000698,0.00000306,-0.00000090,0.00000042,-0.00001119,0.0
 0001095,-0.00000519,0.00000154,-0.00000312,0.00000695,-0.00000476,-0.0
 0000427,-0.00000188,-0.00000252,0.00000144,0.00000353,-0.00000184,-0.0
 0000056,-0.00000060,-0.00000215,-0.00000094,0.00000144,-0.00000059,0.0
 0000117,0.00000138,0.00000030,-0.00000057,-0.00000376,0.00000884,0.000
 01361,-0.00000781,-0.00000647,-0.00001765,0.00000003,0.00006935,0.0000
 0722,-0.00003116,-0.00001255,0.00000188,-0.00000688,-0.00007545,-0.000
 37776,0.00025052,0.00069550,0.00108476,-0.00100713,-0.00061769,-0.0012
 3222,0.00165309,-0.13413165,0.15105749,-0.00000828,0.00001442,-0.00000
 592,0.00000982,-0.00001658,0.00000856,-0.00000353,0.00000628,-0.000003
 70,0.00000110,-0.00000339,-0.00000496,-0.00000359,-0.00000349,0.000004
 15,0.00000149,0.00000249,-0.00000615,-0.00000320,0.00000325,0.00000658
 ,0.00000413,-0.00003971,0.00000409,-0.00009034,-0.00001087,-0.00002373
 ,0.00004831,0.00005372,0.00000861,-0.00002651,-0.00002149,-0.00000102,
 0.00000537,0.00000996,-0.00000235,-0.00001161,-0.00000819,-0.00000871,
 0.00000859,0.00001486,0.00001244,-0.00000917,-0.00001364,0.00000355,-0
 .00000041,-0.00000072,-0.00000460,-0.00000061,0.00000008,0.00000270,-0
 .00000169,-0.00000107,-0.00000297,0.00000108,0.00000389,-0.00000127,-0
 .00000122,0.00000169,0.00000431,0.00000430,0.00000022,-0.00001002,0.00
 006048,0.00000674,0.00002600,-0.00003247,0.00003239,0.00003431,-0.0001
 2969,-0.00002388,-0.00011406,-0.00024806,0.00063876,0.00009164,0.00005
 159,0.00006485,0.00003116,0.00000189,-0.00001085,-0.00002087,-0.002262
 07,-0.00278212,0.00056908,0.00087651,0.00092153,0.00061559,-0.00587132
 ,-0.00246862,-0.00045283,0.01853870,-0.01021158,-0.01411504,0.12388353
 ,-0.14176725,-0.17903988,-0.00488318,0.00681581,0.01174152,0.00199662,
 0.00067871,-0.00368173,-0.00000026,0.00000074,0.00000049,0.00000140,-0
 .00000028,-0.00000026,0.00000421,0.00000256,-0.00000409,-0.00000003,-0
 .00000067,-0.00000087,-0.00001220,0.00000634,-0.00000315,0.00000352,-0
 .00000037,0.00000948,-0.00000396,-0.00000210,-0.00000038,-0.00000338,0
 .00000021,0.00000133,-0.00000018,-0.00000089,0.00000005,0.00000030,-0.
 00000077,0.00000063,0.00000139,-0.00000028,-0.00000055,0.00000144,-0.0
 0000269,-0.00000124,-0.00002463,0.00000582,0.00000128,0.00001616,0.000
 00177,0.00000467,0.00002274,-0.00002452,0.00001956,-0.00001105,-0.0000
 0336,0.00000085,0.00010306,0.00026796,-0.00018677,0.00052661,-0.001298
 95,0.00024674,0.00009952,0.00168211,-0.00024430,-0.13263121,0.14748113
 ,0.18449206\\-0.00000138,0.00000299,-0.00000281,0.00000915,-0.00001547
 ,0.00000491,-0.00000587,0.00001192,-0.00000388,0.00000306,-0.00000213,
 -0.00000292,-0.00000214,0.00000236,-0.00000417,0.00000291,-0.00000413,
 0.00000760,-0.00000530,0.00001097,-0.00000797,0.00000174,-0.00000006,-
 0.00000326,-0.00000432,-0.00000547,0.00000356,0.00000083,0.00001317,-0
 .00000454,0.00000015,-0.00000835,0.00000385,0.00000606,-0.00000336,0.0
 0000714,0.00000191,0.00000684,-0.00000601,-0.00000601,-0.00000585,0.00
 002123,-0.00000380,-0.00000832,-0.00001285,0.00000321,0.00000669,0.000
 00541,-0.00000044,0.00000102,0.00000588,-0.00000038,0.00000020,-0.0000
 0164,0.00000286,0.00000499,-0.00000043,-0.00000142,-0.00000066,0.00000
 507,-0.00000188,-0.00000445,-0.00000023,0.00000011,-0.00000498,-0.0000
 0213,0.00000116,-0.00000077,0.00000015,-0.00000057,0.00000034,-0.00000
 113,0.00000012,-0.00000342,-0.00000111,0.00000374,0.00000110,0.0000009
 1,-0.00000462,0.00000594,0.00000050,0.00000068,-0.00000824,-0.00001198
 ,0.00000461,0.00000276,0.00000105,-0.00000306,0.00000094,-0.00000291,-
 0.00000201,-0.00000589,-0.00000859,0.00000211,0.00000561,0.00000544,-0
 .00000292,0.00000740,0.00001116,-0.00000243,-0.00000604,-0.00000805,0.
 00000095,0.00000105,-0.00000055,0.00000146,0.00000013,0.00000208,0.000
 00215,-0.00000122,0.00000080,0.00000031,-0.00000071,-0.00000149,-0.000
 00283,-0.00000218,-0.00000046,0.00000248,0.00000076,-0.00000098,-0.000
 00158,0.00000314,0.00000208,-0.00000106,0.00000001,-0.00000256,-0.0000
 0180,-0.00000162,0.00000258,-0.00000065,0.00000030,0.00000584,0.000000
 39,0.00000148,0.00000512,0.00000221,0.00000330,0.00000227,-0.00000220,
 0.00000322,-0.00000176,0.00000147,0.00000277,-0.00000061,0.00000101,-0
 .00000276,-0.00000136,-0.00000098,-0.00000377,-0.00000074,-0.00000016,
 0.00000125,0.00000013,0.00000016,0.00000218,-0.00000021,0.00000317,-0.
 00000026,-0.00000166,-0.00000034,-0.00000473,-0.00000576\\\@


 The mind is not a vessel to be filled but a fire to be kindled.
                                  -- Plutarch
 Job cpu time:  0 days 21 hours 45 minutes  6.2 seconds.
 File lengths (MBytes):  RWF=   2043 Int=      0 D2E=      0 Chk=     27 Scr=      1
 Normal termination of Gaussian 09 at Wed Sep  7 20:54:56 2022.
