 Entering Gaussian System, Link 0=g09
 Input=Mol36.gjf
 Output=Mol36.log
 Initial command:
 /opt/gaussian/l1.exe /home/scr/lqcapf-6/Gau-314544.inp -scrdir=/home/scr/lqcapf-6/
 Entering Link 1 = /opt/gaussian/l1.exe PID=    314546.
  
 Copyright (c) 1988,1990,1992,1993,1995,1998,2003,2009,2011,
            Gaussian, Inc.  All Rights Reserved.
  
 This is part of the Gaussian(R) 09 program.  It is based on
 the Gaussian(R) 03 system (copyright 2003, Gaussian, Inc.),
 the Gaussian(R) 98 system (copyright 1998, Gaussian, Inc.),
 the Gaussian(R) 94 system (copyright 1995, Gaussian, Inc.),
 the Gaussian 92(TM) system (copyright 1992, Gaussian, Inc.),
 the Gaussian 90(TM) system (copyright 1990, Gaussian, Inc.),
 the Gaussian 88(TM) system (copyright 1988, Gaussian, Inc.),
 the Gaussian 86(TM) system (copyright 1986, Carnegie Mellon
 University), and the Gaussian 82(TM) system (copyright 1983,
 Carnegie Mellon University). Gaussian is a federally registered
 trademark of Gaussian, Inc.
  
 This software contains proprietary and confidential information,
 including trade secrets, belonging to Gaussian, Inc.
  
 This software is provided under written license and may be
 used, copied, transmitted, or stored only in accord with that
 written license.
  
 The following legend is applicable only to US Government
 contracts under FAR:
  
                    RESTRICTED RIGHTS LEGEND
  
 Use, reproduction and disclosure by the US Government is
 subject to restrictions as set forth in subparagraphs (a)
 and (c) of the Commercial Computer Software - Restricted
 Rights clause in FAR 52.227-19.
  
 Gaussian, Inc.
 340 Quinnipiac St., Bldg. 40, Wallingford CT 06492
  
  
 ---------------------------------------------------------------
 Warning -- This program may not be used in any manner that
 competes with the business of Gaussian, Inc. or will provide
 assistance to any competitor of Gaussian, Inc.  The licensee
 of this program is prohibited from giving any competitor of
 Gaussian, Inc. access to this program.  By using this program,
 the user acknowledges that Gaussian, Inc. is engaged in the
 business of creating and licensing software in the field of
 computational chemistry and represents and warrants to the
 licensee that it is not a competitor of Gaussian, Inc. and that
 it will not use this program in any manner prohibited above.
 ---------------------------------------------------------------
  

 Cite this work as:
 Gaussian 09, Revision C.01,
 M. J. Frisch, G. W. Trucks, H. B. Schlegel, G. E. Scuseria, 
 M. A. Robb, J. R. Cheeseman, G. Scalmani, V. Barone, B. Mennucci, 
 G. A. Petersson, H. Nakatsuji, M. Caricato, X. Li, H. P. Hratchian, 
 A. F. Izmaylov, J. Bloino, G. Zheng, J. L. Sonnenberg, M. Hada, 
 M. Ehara, K. Toyota, R. Fukuda, J. Hasegawa, M. Ishida, T. Nakajima, 
 Y. Honda, O. Kitao, H. Nakai, T. Vreven, J. A. Montgomery, Jr., 
 J. E. Peralta, F. Ogliaro, M. Bearpark, J. J. Heyd, E. Brothers, 
 K. N. Kudin, V. N. Staroverov, T. Keith, R. Kobayashi, J. Normand, 
 K. Raghavachari, A. Rendell, J. C. Burant, S. S. Iyengar, J. Tomasi, 
 M. Cossi, N. Rega, J. M. Millam, M. Klene, J. E. Knox, J. B. Cross, 
 V. Bakken, C. Adamo, J. Jaramillo, R. Gomperts, R. E. Stratmann, 
 O. Yazyev, A. J. Austin, R. Cammi, C. Pomelli, J. W. Ochterski, 
 R. L. Martin, K. Morokuma, V. G. Zakrzewski, G. A. Voth, 
 P. Salvador, J. J. Dannenberg, S. Dapprich, A. D. Daniels, 
 O. Farkas, J. B. Foresman, J. V. Ortiz, J. Cioslowski, 
 and D. J. Fox, Gaussian, Inc., Wallingford CT, 2010.
 
 ******************************************
 Gaussian 09:  EM64L-G09RevC.01 23-Sep-2011
                 7-Sep-2022 
 ******************************************
 %nprocshared=8
 Will use up to    8 processors via shared memory.
 %mem=1600MB
 -------------------------
 #p opt freq b3lyp/cc-pvdz
 -------------------------
 1/14=-1,18=20,19=15,26=3,38=1/1,3;
 2/9=110,12=2,17=6,18=5,40=1/2;
 3/5=16,11=2,16=1,25=1,30=1,71=1,74=-5/1,2,3;
 4//1;
 5/5=2,38=5/2;
 6/7=2,8=2,9=2,10=2,28=1/1;
 7//1,2,3,16;
 1/14=-1,18=20,19=15/3(2);
 2/9=110/2;
 99//99;
 2/9=110/2;
 3/5=16,11=2,16=1,25=1,30=1,71=1,74=-5/1,2,3;
 4/5=5,16=3/1;
 5/5=2,38=5/2;
 7//1,2,3,16;
 1/14=-1,18=20,19=15/3(-5);
 2/9=110/2;
 6/7=2,8=2,9=2,10=2,19=2,28=1/1;
 99/9=1/99;
 Leave Link    1 at Wed Sep  7 20:54:56 2022, MaxMem=  209715200 cpu:       0.2
 (Enter /opt/gaussian/l101.exe)
 ---------
 Mol36.log
 ---------
 Charge =  0 Multiplicity = 1
 Symbolic Z-Matrix:
 Cl                   -2.78009   5.93301  -0.47784 
 C                    -2.00726   4.42468   0.15176 
 C                    -2.04959   4.16392   1.50726 
 C                    -1.45498   3.00211   1.97169 
 C                    -0.83082   2.12565   1.09253 
 C                    -0.79438   2.40125  -0.26898 
 C                    -1.39737   3.56732  -0.73728 
 C                    -0.10468   1.49453  -1.27912 
 N                     0.26731   0.16721  -0.78644 
 C                    -0.6569   -0.83237  -0.60864 
 O                    -0.37802  -1.90739  -0.10155 
 C                    -2.07997  -0.54859  -1.0755 
 N                    -2.9262   -1.69508  -0.95417 
 N                    -3.21213  -2.43745  -2.06211 
 N                    -3.94295  -3.42033  -1.73581 
 C                    -4.16985  -3.3768   -0.36939 
 C                    -4.90836  -4.22431   0.45551 
 C                    -4.95444  -3.91688   1.79301 
 C                    -4.27453  -2.78873   2.30444 
 C                    -3.54227  -1.95027   1.4986 
 C                    -3.50526  -2.26769   0.13843 
 C                     1.65661  -0.08025  -0.5108 
 C                     2.39868   0.83686   0.22034 
 C                     3.75045   0.62783   0.4452 
 C                     4.39727  -0.49954  -0.05276 
 C                     3.63784  -1.41417  -0.78382 
 C                     2.28993  -1.21079  -1.01392 
 C                     5.83029  -0.72522   0.17961 
 C                     6.83355   0.20606   0.26654 
 N                     7.98199  -0.47043   0.48744 
 N                     7.78143  -1.80361   0.55101 
 C                     6.49341  -1.97092   0.36559 
 H                    -2.53292   4.84538   2.17625 
 H                    -1.47594   2.77955   3.02053 
 H                    -0.37206   1.23359   1.47065 
 H                    -1.39114   3.8035   -1.78349 
 H                    -0.73162   1.40238  -2.15732 
 H                     0.80648   1.96778  -1.61511 
 H                    -2.50067   0.27691  -0.51764 
 H                    -2.0798   -0.27933  -2.12108 
 H                    -5.41279  -5.07682   0.04764 
 H                    -5.5082   -4.53919   2.46776 
 H                    -4.32901  -2.58788   3.35686 
 H                    -3.01547  -1.10829   1.90006 
 H                     1.92993   1.70988   0.62899 
 H                     4.29563   1.33751   1.03706 
 H                     4.10872  -2.28499  -1.19625 
 H                     1.73132  -1.93376  -1.56976 
 H                     6.8092    1.26717   0.1692 
 H                     6.06697  -2.94726   0.38563 
 H                     8.89652  -0.11239   0.59437 
 
 NAtoms=     51 NQM=        0 NQMF=       0 NMMI=     51 NMMIF=      0
                NMic=       0 NMicF=      0.
                    Isotopes and Nuclear Properties:
 (Nuclear quadrupole moments (NQMom) in fm**2, nuclear magnetic moments (NMagM)
  in nuclear magnetons)

  Atom         1           2           3           4           5           6           7           8           9          10
 IAtWgt=          35          12          12          12          12          12          12          12          14          12
 AtmWgt=  34.9688527  12.0000000  12.0000000  12.0000000  12.0000000  12.0000000  12.0000000  12.0000000  14.0030740  12.0000000
 NucSpn=           3           0           0           0           0           0           0           0           2           0
 AtZEff=   0.0000000   0.0000000   0.0000000   0.0000000   0.0000000   0.0000000   0.0000000   0.0000000   0.0000000   0.0000000
 NQMom=   -8.1650000   0.0000000   0.0000000   0.0000000   0.0000000   0.0000000   0.0000000   0.0000000   2.0440000   0.0000000
 NMagM=    0.8218740   0.0000000   0.0000000   0.0000000   0.0000000   0.0000000   0.0000000   0.0000000   0.4037610   0.0000000

  Atom        11          12          13          14          15          16          17          18          19          20
 IAtWgt=          16          12          14          14          14          12          12          12          12          12
 AtmWgt=  15.9949146  12.0000000  14.0030740  14.0030740  14.0030740  12.0000000  12.0000000  12.0000000  12.0000000  12.0000000
 NucSpn=           0           0           2           2           2           0           0           0           0           0
 AtZEff=   0.0000000   0.0000000   0.0000000   0.0000000   0.0000000   0.0000000   0.0000000   0.0000000   0.0000000   0.0000000
 NQMom=    0.0000000   0.0000000   2.0440000   2.0440000   2.0440000   0.0000000   0.0000000   0.0000000   0.0000000   0.0000000
 NMagM=    0.0000000   0.0000000   0.4037610   0.4037610   0.4037610   0.0000000   0.0000000   0.0000000   0.0000000   0.0000000

  Atom        21          22          23          24          25          26          27          28          29          30
 IAtWgt=          12          12          12          12          12          12          12          12          12          14
 AtmWgt=  12.0000000  12.0000000  12.0000000  12.0000000  12.0000000  12.0000000  12.0000000  12.0000000  12.0000000  14.0030740
 NucSpn=           0           0           0           0           0           0           0           0           0           2
 AtZEff=   0.0000000   0.0000000   0.0000000   0.0000000   0.0000000   0.0000000   0.0000000   0.0000000   0.0000000   0.0000000
 NQMom=    0.0000000   0.0000000   0.0000000   0.0000000   0.0000000   0.0000000   0.0000000   0.0000000   0.0000000   2.0440000
 NMagM=    0.0000000   0.0000000   0.0000000   0.0000000   0.0000000   0.0000000   0.0000000   0.0000000   0.0000000   0.4037610

  Atom        31          32          33          34          35          36          37          38          39          40
 IAtWgt=          14          12           1           1           1           1           1           1           1           1
 AtmWgt=  14.0030740  12.0000000   1.0078250   1.0078250   1.0078250   1.0078250   1.0078250   1.0078250   1.0078250   1.0078250
 NucSpn=           2           0           1           1           1           1           1           1           1           1
 AtZEff=   0.0000000   0.0000000   0.0000000   0.0000000   0.0000000   0.0000000   0.0000000   0.0000000   0.0000000   0.0000000
 NQMom=    2.0440000   0.0000000   0.0000000   0.0000000   0.0000000   0.0000000   0.0000000   0.0000000   0.0000000   0.0000000
 NMagM=    0.4037610   0.0000000   2.7928460   2.7928460   2.7928460   2.7928460   2.7928460   2.7928460   2.7928460   2.7928460

  Atom        41          42          43          44          45          46          47          48          49          50
 IAtWgt=           1           1           1           1           1           1           1           1           1           1
 AtmWgt=   1.0078250   1.0078250   1.0078250   1.0078250   1.0078250   1.0078250   1.0078250   1.0078250   1.0078250   1.0078250
 NucSpn=           1           1           1           1           1           1           1           1           1           1
 AtZEff=   0.0000000   0.0000000   0.0000000   0.0000000   0.0000000   0.0000000   0.0000000   0.0000000   0.0000000   0.0000000
 NQMom=    0.0000000   0.0000000   0.0000000   0.0000000   0.0000000   0.0000000   0.0000000   0.0000000   0.0000000   0.0000000
 NMagM=    2.7928460   2.7928460   2.7928460   2.7928460   2.7928460   2.7928460   2.7928460   2.7928460   2.7928460   2.7928460

  Atom        51
 IAtWgt=           1
 AtmWgt=   1.0078250
 NucSpn=           1
 AtZEff=   0.0000000
 NQMom=    0.0000000
 NMagM=    2.7928460
 Leave Link  101 at Wed Sep  7 20:54:56 2022, MaxMem=  209715200 cpu:       0.9
 (Enter /opt/gaussian/l103.exe)

 GradGradGradGradGradGradGradGradGradGradGradGradGradGradGradGradGradGrad
 Berny optimization.
 Initialization pass.
                           ----------------------------
                           !    Initial Parameters    !
                           ! (Angstroms and Degrees)  !
 --------------------------                            --------------------------
 ! Name  Definition              Value          Derivative Info.                !
 --------------------------------------------------------------------------------
 ! R1    R(1,2)                  1.808          estimate D2E/DX2                !
 ! R2    R(2,3)                  1.381          estimate D2E/DX2                !
 ! R3    R(2,7)                  1.3775         estimate D2E/DX2                !
 ! R4    R(3,4)                  1.3853         estimate D2E/DX2                !
 ! R5    R(3,33)                 1.0703         estimate D2E/DX2                !
 ! R6    R(4,5)                  1.3895         estimate D2E/DX2                !
 ! R7    R(4,34)                 1.0724         estimate D2E/DX2                !
 ! R8    R(5,6)                  1.3896         estimate D2E/DX2                !
 ! R9    R(5,35)                 1.072          estimate D2E/DX2                !
 ! R10   R(6,7)                  1.3938         estimate D2E/DX2                !
 ! R11   R(6,8)                  1.5226         estimate D2E/DX2                !
 ! R12   R(7,36)                 1.0726         estimate D2E/DX2                !
 ! R13   R(8,9)                  1.4639         estimate D2E/DX2                !
 ! R14   R(8,37)                 1.0829         estimate D2E/DX2                !
 ! R15   R(8,38)                 1.0803         estimate D2E/DX2                !
 ! R16   R(9,10)                 1.3729         estimate D2E/DX2                !
 ! R17   R(9,22)                 1.4378         estimate D2E/DX2                !
 ! R18   R(10,11)                1.2209         estimate D2E/DX2                !
 ! R19   R(10,12)                1.5243         estimate D2E/DX2                !
 ! R20   R(12,13)                1.4301         estimate D2E/DX2                !
 ! R21   R(12,39)                1.0815         estimate D2E/DX2                !
 ! R22   R(12,40)                1.0797         estimate D2E/DX2                !
 ! R23   R(13,14)                1.364          estimate D2E/DX2                !
 ! R24   R(13,21)                1.3627         estimate D2E/DX2                !
 ! R25   R(14,15)                1.2675         estimate D2E/DX2                !
 ! R26   R(15,16)                1.3858         estimate D2E/DX2                !
 ! R27   R(16,17)                1.3943         estimate D2E/DX2                !
 ! R28   R(16,21)                1.3891         estimate D2E/DX2                !
 ! R29   R(17,18)                1.3732         estimate D2E/DX2                !
 ! R30   R(17,41)                1.0713         estimate D2E/DX2                !
 ! R31   R(18,19)                1.413          estimate D2E/DX2                !
 ! R32   R(18,42)                1.072          estimate D2E/DX2                !
 ! R33   R(19,20)                1.3743         estimate D2E/DX2                !
 ! R34   R(19,43)                1.0728         estimate D2E/DX2                !
 ! R35   R(20,21)                1.3972         estimate D2E/DX2                !
 ! R36   R(20,44)                1.0713         estimate D2E/DX2                !
 ! R37   R(22,23)                1.3879         estimate D2E/DX2                !
 ! R38   R(22,27)                1.3901         estimate D2E/DX2                !
 ! R39   R(23,24)                1.3862         estimate D2E/DX2                !
 ! R40   R(23,45)                1.0719         estimate D2E/DX2                !
 ! R41   R(24,25)                1.3919         estimate D2E/DX2                !
 ! R42   R(24,46)                1.0729         estimate D2E/DX2                !
 ! R43   R(25,26)                1.3956         estimate D2E/DX2                !
 ! R44   R(25,28)                1.4692         estimate D2E/DX2                !
 ! R45   R(26,27)                1.3825         estimate D2E/DX2                !
 ! R46   R(26,47)                1.0725         estimate D2E/DX2                !
 ! R47   R(27,48)                1.0694         estimate D2E/DX2                !
 ! R48   R(28,29)                1.3716         estimate D2E/DX2                !
 ! R49   R(28,32)                1.4234         estimate D2E/DX2                !
 ! R50   R(29,30)                1.3511         estimate D2E/DX2                !
 ! R51   R(29,49)                1.0658         estimate D2E/DX2                !
 ! R52   R(30,31)                1.3497         estimate D2E/DX2                !
 ! R53   R(30,51)                0.9879         estimate D2E/DX2                !
 ! R54   R(31,32)                1.312          estimate D2E/DX2                !
 ! R55   R(32,50)                1.0656         estimate D2E/DX2                !
 ! A1    A(1,2,3)              119.0932         estimate D2E/DX2                !
 ! A2    A(1,2,7)              118.9318         estimate D2E/DX2                !
 ! A3    A(3,2,7)              121.9746         estimate D2E/DX2                !
 ! A4    A(2,3,4)              118.3115         estimate D2E/DX2                !
 ! A5    A(2,3,33)             120.4726         estimate D2E/DX2                !
 ! A6    A(4,3,33)             121.2157         estimate D2E/DX2                !
 ! A7    A(3,4,5)              120.6439         estimate D2E/DX2                !
 ! A8    A(3,4,34)             119.5745         estimate D2E/DX2                !
 ! A9    A(5,4,34)             119.7815         estimate D2E/DX2                !
 ! A10   A(4,5,6)              120.4382         estimate D2E/DX2                !
 ! A11   A(4,5,35)             119.6008         estimate D2E/DX2                !
 ! A12   A(6,5,35)             119.9607         estimate D2E/DX2                !
 ! A13   A(5,6,7)              118.9328         estimate D2E/DX2                !
 ! A14   A(5,6,8)              122.9429         estimate D2E/DX2                !
 ! A15   A(7,6,8)              118.118          estimate D2E/DX2                !
 ! A16   A(2,7,6)              119.6978         estimate D2E/DX2                !
 ! A17   A(2,7,36)             119.6747         estimate D2E/DX2                !
 ! A18   A(6,7,36)             120.6275         estimate D2E/DX2                !
 ! A19   A(6,8,9)              115.5815         estimate D2E/DX2                !
 ! A20   A(6,8,37)             109.053          estimate D2E/DX2                !
 ! A21   A(6,8,38)             109.1183         estimate D2E/DX2                !
 ! A22   A(9,8,37)             110.0529         estimate D2E/DX2                !
 ! A23   A(9,8,38)             106.7117         estimate D2E/DX2                !
 ! A24   A(37,8,38)            105.8631         estimate D2E/DX2                !
 ! A25   A(8,9,10)             122.1866         estimate D2E/DX2                !
 ! A26   A(8,9,22)             117.7822         estimate D2E/DX2                !
 ! A27   A(10,9,22)            120.0207         estimate D2E/DX2                !
 ! A28   A(9,10,11)            122.7582         estimate D2E/DX2                !
 ! A29   A(9,10,12)            116.9517         estimate D2E/DX2                !
 ! A30   A(11,10,12)           120.29           estimate D2E/DX2                !
 ! A31   A(10,12,13)           112.159          estimate D2E/DX2                !
 ! A32   A(10,12,39)           110.3205         estimate D2E/DX2                !
 ! A33   A(10,12,40)           110.052          estimate D2E/DX2                !
 ! A34   A(13,12,39)           109.7532         estimate D2E/DX2                !
 ! A35   A(13,12,40)           106.3901         estimate D2E/DX2                !
 ! A36   A(39,12,40)           108.0128         estimate D2E/DX2                !
 ! A37   A(12,13,14)           119.4363         estimate D2E/DX2                !
 ! A38   A(12,13,21)           131.0202         estimate D2E/DX2                !
 ! A39   A(14,13,21)           109.4815         estimate D2E/DX2                !
 ! A40   A(13,14,15)           109.4999         estimate D2E/DX2                !
 ! A41   A(14,15,16)           108.8973         estimate D2E/DX2                !
 ! A42   A(15,16,17)           130.6142         estimate D2E/DX2                !
 ! A43   A(15,16,21)           107.8904         estimate D2E/DX2                !
 ! A44   A(17,16,21)           121.4952         estimate D2E/DX2                !
 ! A45   A(16,17,18)           117.2545         estimate D2E/DX2                !
 ! A46   A(16,17,41)           120.5219         estimate D2E/DX2                !
 ! A47   A(18,17,41)           122.2236         estimate D2E/DX2                !
 ! A48   A(17,18,19)           121.0078         estimate D2E/DX2                !
 ! A49   A(17,18,42)           120.0298         estimate D2E/DX2                !
 ! A50   A(19,18,42)           118.9617         estimate D2E/DX2                !
 ! A51   A(18,19,20)           122.0918         estimate D2E/DX2                !
 ! A52   A(18,19,43)           118.6929         estimate D2E/DX2                !
 ! A53   A(20,19,43)           119.2141         estimate D2E/DX2                !
 ! A54   A(19,20,21)           116.5093         estimate D2E/DX2                !
 ! A55   A(19,20,44)           121.4536         estimate D2E/DX2                !
 ! A56   A(21,20,44)           122.029          estimate D2E/DX2                !
 ! A57   A(13,21,16)           104.2225         estimate D2E/DX2                !
 ! A58   A(13,21,20)           134.1331         estimate D2E/DX2                !
 ! A59   A(16,21,20)           121.6406         estimate D2E/DX2                !
 ! A60   A(9,22,23)            120.257          estimate D2E/DX2                !
 ! A61   A(9,22,27)            120.7175         estimate D2E/DX2                !
 ! A62   A(23,22,27)           118.9781         estimate D2E/DX2                !
 ! A63   A(22,23,24)           120.4772         estimate D2E/DX2                !
 ! A64   A(22,23,45)           120.3458         estimate D2E/DX2                !
 ! A65   A(24,23,45)           119.1724         estimate D2E/DX2                !
 ! A66   A(23,24,25)           121.1497         estimate D2E/DX2                !
 ! A67   A(23,24,46)           119.0287         estimate D2E/DX2                !
 ! A68   A(25,24,46)           119.7998         estimate D2E/DX2                !
 ! A69   A(24,25,26)           117.733          estimate D2E/DX2                !
 ! A70   A(24,25,28)           121.4068         estimate D2E/DX2                !
 ! A71   A(26,25,28)           120.8602         estimate D2E/DX2                !
 ! A72   A(25,26,27)           121.4218         estimate D2E/DX2                !
 ! A73   A(25,26,47)           119.6481         estimate D2E/DX2                !
 ! A74   A(27,26,47)           118.9172         estimate D2E/DX2                !
 ! A75   A(22,27,26)           120.2397         estimate D2E/DX2                !
 ! A76   A(22,27,48)           119.9964         estimate D2E/DX2                !
 ! A77   A(26,27,48)           119.7585         estimate D2E/DX2                !
 ! A78   A(25,28,29)           128.2552         estimate D2E/DX2                !
 ! A79   A(25,28,32)           127.5535         estimate D2E/DX2                !
 ! A80   A(29,28,32)           104.1913         estimate D2E/DX2                !
 ! A81   A(28,29,30)           106.9863         estimate D2E/DX2                !
 ! A82   A(28,29,49)           130.8018         estimate D2E/DX2                !
 ! A83   A(30,29,49)           122.1976         estimate D2E/DX2                !
 ! A84   A(29,30,31)           112.0848         estimate D2E/DX2                !
 ! A85   A(29,30,51)           128.5438         estimate D2E/DX2                !
 ! A86   A(31,30,51)           119.37           estimate D2E/DX2                !
 ! A87   A(30,31,32)           105.3781         estimate D2E/DX2                !
 ! A88   A(28,32,31)           111.3592         estimate D2E/DX2                !
 ! A89   A(28,32,50)           128.1609         estimate D2E/DX2                !
 ! A90   A(31,32,50)           120.4679         estimate D2E/DX2                !
 ! D1    D(1,2,3,4)            179.8555         estimate D2E/DX2                !
 ! D2    D(1,2,3,33)            -0.0208         estimate D2E/DX2                !
 ! D3    D(7,2,3,4)              0.0826         estimate D2E/DX2                !
 ! D4    D(7,2,3,33)          -179.7938         estimate D2E/DX2                !
 ! D5    D(1,2,7,6)            179.8774         estimate D2E/DX2                !
 ! D6    D(1,2,7,36)            -0.1278         estimate D2E/DX2                !
 ! D7    D(3,2,7,6)             -0.3493         estimate D2E/DX2                !
 ! D8    D(3,2,7,36)           179.6455         estimate D2E/DX2                !
 ! D9    D(2,3,4,5)              0.1183         estimate D2E/DX2                !
 ! D10   D(2,3,4,34)          -179.9992         estimate D2E/DX2                !
 ! D11   D(33,3,4,5)           179.9937         estimate D2E/DX2                !
 ! D12   D(33,3,4,34)           -0.1238         estimate D2E/DX2                !
 ! D13   D(3,4,5,6)             -0.0502         estimate D2E/DX2                !
 ! D14   D(3,4,5,35)           179.72           estimate D2E/DX2                !
 ! D15   D(34,4,5,6)          -179.9325         estimate D2E/DX2                !
 ! D16   D(34,4,5,35)           -0.1623         estimate D2E/DX2                !
 ! D17   D(4,5,6,7)             -0.2144         estimate D2E/DX2                !
 ! D18   D(4,5,6,8)            178.8516         estimate D2E/DX2                !
 ! D19   D(35,5,6,7)          -179.9838         estimate D2E/DX2                !
 ! D20   D(35,5,6,8)            -0.9177         estimate D2E/DX2                !
 ! D21   D(5,6,7,2)              0.4087         estimate D2E/DX2                !
 ! D22   D(5,6,7,36)          -179.586          estimate D2E/DX2                !
 ! D23   D(8,6,7,2)           -178.7026         estimate D2E/DX2                !
 ! D24   D(8,6,7,36)             1.3026         estimate D2E/DX2                !
 ! D25   D(5,6,8,9)             12.9361         estimate D2E/DX2                !
 ! D26   D(5,6,8,37)           137.5134         estimate D2E/DX2                !
 ! D27   D(5,6,8,38)          -107.2866         estimate D2E/DX2                !
 ! D28   D(7,6,8,9)           -167.9907         estimate D2E/DX2                !
 ! D29   D(7,6,8,37)           -43.4134         estimate D2E/DX2                !
 ! D30   D(7,6,8,38)            71.7867         estimate D2E/DX2                !
 ! D31   D(6,8,9,10)            75.798          estimate D2E/DX2                !
 ! D32   D(6,8,9,22)          -105.3869         estimate D2E/DX2                !
 ! D33   D(37,8,9,10)          -48.2591         estimate D2E/DX2                !
 ! D34   D(37,8,9,22)          130.5561         estimate D2E/DX2                !
 ! D35   D(38,8,9,10)         -162.6779         estimate D2E/DX2                !
 ! D36   D(38,8,9,22)           16.1373         estimate D2E/DX2                !
 ! D37   D(8,9,10,11)         -174.1339         estimate D2E/DX2                !
 ! D38   D(8,9,10,12)            5.7944         estimate D2E/DX2                !
 ! D39   D(22,9,10,11)           7.0767         estimate D2E/DX2                !
 ! D40   D(22,9,10,12)        -172.9949         estimate D2E/DX2                !
 ! D41   D(8,9,22,23)           47.0347         estimate D2E/DX2                !
 ! D42   D(8,9,22,27)         -130.4336         estimate D2E/DX2                !
 ! D43   D(10,9,22,23)        -134.1234         estimate D2E/DX2                !
 ! D44   D(10,9,22,27)          48.4083         estimate D2E/DX2                !
 ! D45   D(9,10,12,13)         174.7019         estimate D2E/DX2                !
 ! D46   D(9,10,12,39)         -62.6174         estimate D2E/DX2                !
 ! D47   D(9,10,12,40)          56.4734         estimate D2E/DX2                !
 ! D48   D(11,10,12,13)         -5.3679         estimate D2E/DX2                !
 ! D49   D(11,10,12,39)        117.3128         estimate D2E/DX2                !
 ! D50   D(11,10,12,40)       -123.5964         estimate D2E/DX2                !
 ! D51   D(10,12,13,14)       -101.2818         estimate D2E/DX2                !
 ! D52   D(10,12,13,21)         75.5267         estimate D2E/DX2                !
 ! D53   D(39,12,13,14)        135.7171         estimate D2E/DX2                !
 ! D54   D(39,12,13,21)        -47.4745         estimate D2E/DX2                !
 ! D55   D(40,12,13,14)         19.0951         estimate D2E/DX2                !
 ! D56   D(40,12,13,21)       -164.0965         estimate D2E/DX2                !
 ! D57   D(12,13,14,15)        178.3204         estimate D2E/DX2                !
 ! D58   D(21,13,14,15)          0.8741         estimate D2E/DX2                !
 ! D59   D(12,13,21,16)       -177.9694         estimate D2E/DX2                !
 ! D60   D(12,13,21,20)          2.7622         estimate D2E/DX2                !
 ! D61   D(14,13,21,16)         -0.9175         estimate D2E/DX2                !
 ! D62   D(14,13,21,20)        179.8141         estimate D2E/DX2                !
 ! D63   D(13,14,15,16)         -0.4281         estimate D2E/DX2                !
 ! D64   D(14,15,16,17)        179.7219         estimate D2E/DX2                !
 ! D65   D(14,15,16,21)         -0.1554         estimate D2E/DX2                !
 ! D66   D(15,16,17,18)       -179.7597         estimate D2E/DX2                !
 ! D67   D(15,16,17,41)          0.2921         estimate D2E/DX2                !
 ! D68   D(21,16,17,18)          0.1034         estimate D2E/DX2                !
 ! D69   D(21,16,17,41)       -179.8449         estimate D2E/DX2                !
 ! D70   D(15,16,21,13)          0.6575         estimate D2E/DX2                !
 ! D71   D(15,16,21,20)       -179.9593         estimate D2E/DX2                !
 ! D72   D(17,16,21,13)       -179.2333         estimate D2E/DX2                !
 ! D73   D(17,16,21,20)          0.15           estimate D2E/DX2                !
 ! D74   D(16,17,18,19)         -0.2158         estimate D2E/DX2                !
 ! D75   D(16,17,18,42)       -179.9116         estimate D2E/DX2                !
 ! D76   D(41,17,18,19)        179.7314         estimate D2E/DX2                !
 ! D77   D(41,17,18,42)          0.0357         estimate D2E/DX2                !
 ! D78   D(17,18,19,20)          0.0827         estimate D2E/DX2                !
 ! D79   D(17,18,19,43)       -179.4995         estimate D2E/DX2                !
 ! D80   D(42,18,19,20)        179.7816         estimate D2E/DX2                !
 ! D81   D(42,18,19,43)          0.1994         estimate D2E/DX2                !
 ! D82   D(18,19,20,21)          0.1652         estimate D2E/DX2                !
 ! D83   D(18,19,20,44)       -178.8201         estimate D2E/DX2                !
 ! D84   D(43,19,20,21)        179.7453         estimate D2E/DX2                !
 ! D85   D(43,19,20,44)          0.76           estimate D2E/DX2                !
 ! D86   D(19,20,21,13)        178.8886         estimate D2E/DX2                !
 ! D87   D(19,20,21,16)         -0.2784         estimate D2E/DX2                !
 ! D88   D(44,20,21,13)         -2.1326         estimate D2E/DX2                !
 ! D89   D(44,20,21,16)        178.7005         estimate D2E/DX2                !
 ! D90   D(9,22,23,24)        -177.5251         estimate D2E/DX2                !
 ! D91   D(9,22,23,45)           3.2648         estimate D2E/DX2                !
 ! D92   D(27,22,23,24)         -0.013          estimate D2E/DX2                !
 ! D93   D(27,22,23,45)       -179.2231         estimate D2E/DX2                !
 ! D94   D(9,22,27,26)         177.6305         estimate D2E/DX2                !
 ! D95   D(9,22,27,48)          -3.215          estimate D2E/DX2                !
 ! D96   D(23,22,27,26)          0.1302         estimate D2E/DX2                !
 ! D97   D(23,22,27,48)        179.2848         estimate D2E/DX2                !
 ! D98   D(22,23,24,25)          0.0207         estimate D2E/DX2                !
 ! D99   D(22,23,24,46)       -178.2752         estimate D2E/DX2                !
 ! D100  D(45,23,24,25)        179.24           estimate D2E/DX2                !
 ! D101  D(45,23,24,46)          0.944          estimate D2E/DX2                !
 ! D102  D(23,24,25,26)         -0.1405         estimate D2E/DX2                !
 ! D103  D(23,24,25,28)        179.8618         estimate D2E/DX2                !
 ! D104  D(46,24,25,26)        178.1424         estimate D2E/DX2                !
 ! D105  D(46,24,25,28)         -1.8553         estimate D2E/DX2                !
 ! D106  D(24,25,26,27)          0.2599         estimate D2E/DX2                !
 ! D107  D(24,25,26,47)        178.9405         estimate D2E/DX2                !
 ! D108  D(28,25,26,27)       -179.7423         estimate D2E/DX2                !
 ! D109  D(28,25,26,47)         -1.0617         estimate D2E/DX2                !
 ! D110  D(24,25,28,29)        -34.0421         estimate D2E/DX2                !
 ! D111  D(24,25,28,32)        146.0037         estimate D2E/DX2                !
 ! D112  D(26,25,28,29)        145.9602         estimate D2E/DX2                !
 ! D113  D(26,25,28,32)        -33.9939         estimate D2E/DX2                !
 ! D114  D(25,26,27,22)         -0.2591         estimate D2E/DX2                !
 ! D115  D(25,26,27,48)       -179.4157         estimate D2E/DX2                !
 ! D116  D(47,26,27,22)       -178.9491         estimate D2E/DX2                !
 ! D117  D(47,26,27,48)          1.8943         estimate D2E/DX2                !
 ! D118  D(25,28,29,30)        179.9909         estimate D2E/DX2                !
 ! D119  D(25,28,29,49)         -1.3917         estimate D2E/DX2                !
 ! D120  D(32,28,29,30)         -0.0466         estimate D2E/DX2                !
 ! D121  D(32,28,29,49)        178.5708         estimate D2E/DX2                !
 ! D122  D(25,28,32,31)       -179.9071         estimate D2E/DX2                !
 ! D123  D(25,28,32,50)         -1.1777         estimate D2E/DX2                !
 ! D124  D(29,28,32,31)          0.13           estimate D2E/DX2                !
 ! D125  D(29,28,32,50)        178.8594         estimate D2E/DX2                !
 ! D126  D(28,29,30,31)         -0.0472         estimate D2E/DX2                !
 ! D127  D(28,29,30,51)        179.524          estimate D2E/DX2                !
 ! D128  D(49,29,30,31)       -178.8104         estimate D2E/DX2                !
 ! D129  D(49,29,30,51)          0.7607         estimate D2E/DX2                !
 ! D130  D(29,30,31,32)          0.1272         estimate D2E/DX2                !
 ! D131  D(51,30,31,32)       -179.4879         estimate D2E/DX2                !
 ! D132  D(30,31,32,28)         -0.1564         estimate D2E/DX2                !
 ! D133  D(30,31,32,50)       -178.9974         estimate D2E/DX2                !
 --------------------------------------------------------------------------------
 Trust Radius=3.00D-01 FncErr=1.00D-07 GrdErr=1.00D-06
 Number of steps in this run=    288 maximum allowed number of steps=    306.
 GradGradGradGradGradGradGradGradGradGradGradGradGradGradGradGradGradGrad

 Leave Link  103 at Wed Sep  7 20:54:56 2022, MaxMem=  209715200 cpu:       0.1
 (Enter /opt/gaussian/l202.exe)
 Stoichiometry    C24H19ClN6O
 Framework group  C1[X(C24H19ClN6O)]
 Deg. of freedom   147
 Full point group                 C1      NOp   1
 Largest Abelian subgroup         C1      NOp   1
 Largest concise Abelian subgroup C1      NOp   1
                         Standard orientation:                         
 ---------------------------------------------------------------------
 Center     Atomic      Atomic             Coordinates (Angstroms)
 Number     Number       Type             X           Y           Z
 ---------------------------------------------------------------------
      1         17           0       -2.780089    5.933010   -0.477840
      2          6           0       -2.007259    4.424680    0.151760
      3          6           0       -2.049589    4.163920    1.507260
      4          6           0       -1.454979    3.002110    1.971690
      5          6           0       -0.830819    2.125650    1.092530
      6          6           0       -0.794379    2.401250   -0.268980
      7          6           0       -1.397369    3.567320   -0.737280
      8          6           0       -0.104679    1.494530   -1.279120
      9          7           0        0.267311    0.167210   -0.786440
     10          6           0       -0.656899   -0.832370   -0.608640
     11          8           0       -0.378019   -1.907390   -0.101550
     12          6           0       -2.079969   -0.548590   -1.075500
     13          7           0       -2.926199   -1.695080   -0.954170
     14          7           0       -3.212129   -2.437450   -2.062110
     15          7           0       -3.942949   -3.420330   -1.735810
     16          6           0       -4.169849   -3.376800   -0.369390
     17          6           0       -4.908359   -4.224310    0.455510
     18          6           0       -4.954439   -3.916880    1.793010
     19          6           0       -4.274529   -2.788730    2.304440
     20          6           0       -3.542269   -1.950270    1.498600
     21          6           0       -3.505259   -2.267690    0.138430
     22          6           0        1.656611   -0.080250   -0.510800
     23          6           0        2.398681    0.836860    0.220340
     24          6           0        3.750451    0.627830    0.445200
     25          6           0        4.397271   -0.499540   -0.052760
     26          6           0        3.637841   -1.414170   -0.783820
     27          6           0        2.289931   -1.210790   -1.013920
     28          6           0        5.830291   -0.725220    0.179610
     29          6           0        6.833551    0.206060    0.266540
     30          7           0        7.981991   -0.470431    0.487440
     31          7           0        7.781431   -1.803611    0.551010
     32          6           0        6.493411   -1.970920    0.365590
     33          1           0       -2.532919    4.845380    2.176250
     34          1           0       -1.475939    2.779550    3.020530
     35          1           0       -0.372059    1.233590    1.470650
     36          1           0       -1.391139    3.803500   -1.783490
     37          1           0       -0.731619    1.402380   -2.157320
     38          1           0        0.806481    1.967780   -1.615110
     39          1           0       -2.500669    0.276910   -0.517640
     40          1           0       -2.079799   -0.279330   -2.121080
     41          1           0       -5.412789   -5.076820    0.047640
     42          1           0       -5.508199   -4.539190    2.467760
     43          1           0       -4.329009   -2.587880    3.356860
     44          1           0       -3.015469   -1.108290    1.900060
     45          1           0        1.929931    1.709880    0.628990
     46          1           0        4.295631    1.337510    1.037060
     47          1           0        4.108721   -2.284990   -1.196250
     48          1           0        1.731321   -1.933760   -1.569760
     49          1           0        6.809201    1.267170    0.169200
     50          1           0        6.066971   -2.947260    0.385630
     51          1           0        8.896521   -0.112391    0.594370
 ---------------------------------------------------------------------
 Rotational constants (GHZ):      0.1275113      0.0718323      0.0504758
 Leave Link  202 at Wed Sep  7 20:54:56 2022, MaxMem=  209715200 cpu:       0.0
 (Enter /opt/gaussian/l301.exe)
 Standard basis: CC-pVDZ (5D, 7F)
 Ernie: Thresh=  0.10000D-02 Tol=  0.10000D-05 Strict=F.
 Ernie:  72 primitive shells out of 827 were deleted.
 There are   547 symmetry adapted basis functions of A   symmetry.
 Integral buffers will be    131072 words long.
 Raffenetti 2 integral format.
 Two-electron integral symmetry is turned on.
   547 basis functions,  1227 primitive gaussians,   579 cartesian basis functions
   115 alpha electrons      115 beta electrons
       nuclear repulsion energy      3036.1134394193 Hartrees.
 IExCor=  402 DFT=T Ex+Corr=B3LYP ExCW=0 ScaHFX=  0.200000
 ScaDFX=  0.800000  0.720000  1.000000  0.810000 ScalE2=  1.000000  1.000000
 IRadAn=      0 IRanWt=     -1 IRanGd=            0 ICorTp=0
 NAtoms=   51 NActive=   51 NUniq=   51 SFac= 1.00D+00 NAtFMM=   60 NAOKFM=F Big=F
 Leave Link  301 at Wed Sep  7 20:54:56 2022, MaxMem=  209715200 cpu:       0.3
 (Enter /opt/gaussian/l302.exe)
 NPDir=0 NMtPBC=     1 NCelOv=     1 NCel=       1 NClECP=     1 NCelD=      1
         NCelK=      1 NCelE2=     1 NClLst=     1 CellRange=     0.0.
 One-electron integrals computed using PRISM.
 NBasis=   547 RedAO= T  NBF=   547
 NBsUse=   547 1.00D-06 NBFU=   547
 Precomputing XC quadrature grid using
 IXCGrd= 2 IRadAn=           0 IRanWt=          -1 IRanGd=           0 AccXCQ= 0.00D+00.
 NRdTot=    3288 NPtTot=      420158 NUsed=      443850 NTot=      443882
 NSgBfM=   552   552   552   552   553 NAtAll=    51    51.
 Leave Link  302 at Wed Sep  7 20:54:57 2022, MaxMem=  209715200 cpu:       8.1
 (Enter /opt/gaussian/l303.exe)
 DipDrv:  MaxL=1.
 Leave Link  303 at Wed Sep  7 20:54:57 2022, MaxMem=  209715200 cpu:       1.2
 (Enter /opt/gaussian/l401.exe)
 Harris functional with IExCor=  402 diagonalized for initial guess.
 ExpMin= 1.22D-01 ExpMax= 1.28D+05 ExpMxC= 1.24D+03 IAcc=2 IRadAn=         4 AccDes= 0.00D+00
 HarFok:  IExCor=  402 AccDes= 0.00D+00 IRadAn=         4 IDoV= 1
 ScaDFX=  1.000000  1.000000  1.000000  1.000000
 FoFCou: FMM=F IPFlag=           0 FMFlag=      100000 FMFlg1=           0
         NFxFlg=           0 DoJE=T BraDBF=F KetDBF=T FulRan=T
         Omega=  0.000000  0.000000  1.000000  0.000000  0.000000 ICntrl=     500 IOpCl=  0
         NMat0=    1 NMatS0=    1 NMatT0=    0 NMatD0=    1 NMtDS0=    0 NMtDT0=    0
         I1Cent=           4 NGrid=           0.
 Petite list used in FoFCou.
 Harris En= -1789.71533361604    
 Initial guess orbital symmetries:
       Occupied  (A) (A) (A) (A) (A) (A) (A) (A) (A) (A) (A) (A)
                 (A) (A) (A) (A) (A) (A) (A) (A) (A) (A) (A) (A)
                 (A) (A) (A) (A) (A) (A) (A) (A) (A) (A) (A) (A)
                 (A) (A) (A) (A) (A) (A) (A) (A) (A) (A) (A) (A)
                 (A) (A) (A) (A) (A) (A) (A) (A) (A) (A) (A) (A)
                 (A) (A) (A) (A) (A) (A) (A) (A) (A) (A) (A) (A)
                 (A) (A) (A) (A) (A) (A) (A) (A) (A) (A) (A) (A)
                 (A) (A) (A) (A) (A) (A) (A) (A) (A) (A) (A) (A)
                 (A) (A) (A) (A) (A) (A) (A) (A) (A) (A) (A) (A)
                 (A) (A) (A) (A) (A) (A) (A)
       Virtual   (A) (A) (A) (A) (A) (A) (A) (A) (A) (A) (A) (A)
                 (A) (A) (A) (A) (A) (A) (A) (A) (A) (A) (A) (A)
                 (A) (A) (A) (A) (A) (A) (A) (A) (A) (A) (A) (A)
                 (A) (A) (A) (A) (A) (A) (A) (A) (A) (A) (A) (A)
                 (A) (A) (A) (A) (A) (A) (A) (A) (A) (A) (A) (A)
                 (A) (A) (A) (A) (A) (A) (A) (A) (A) (A) (A) (A)
                 (A) (A) (A) (A) (A) (A) (A) (A) (A) (A) (A) (A)
                 (A) (A) (A) (A) (A) (A) (A) (A) (A) (A) (A) (A)
                 (A) (A) (A) (A) (A) (A) (A) (A) (A) (A) (A) (A)
                 (A) (A) (A) (A) (A) (A) (A) (A) (A) (A) (A) (A)
                 (A) (A) (A) (A) (A) (A) (A) (A) (A) (A) (A) (A)
                 (A) (A) (A) (A) (A) (A) (A) (A) (A) (A) (A) (A)
                 (A) (A) (A) (A) (A) (A) (A) (A) (A) (A) (A) (A)
                 (A) (A) (A) (A) (A) (A) (A) (A) (A) (A) (A) (A)
                 (A) (A) (A) (A) (A) (A) (A) (A) (A) (A) (A) (A)
                 (A) (A) (A) (A) (A) (A) (A) (A) (A) (A) (A) (A)
                 (A) (A) (A) (A) (A) (A) (A) (A) (A) (A) (A) (A)
                 (A) (A) (A) (A) (A) (A) (A) (A) (A) (A) (A) (A)
                 (A) (A) (A) (A) (A) (A) (A) (A) (A) (A) (A) (A)
                 (A) (A) (A) (A) (A) (A) (A) (A) (A) (A) (A) (A)
                 (A) (A) (A) (A) (A) (A) (A) (A) (A) (A) (A) (A)
                 (A) (A) (A) (A) (A) (A) (A) (A) (A) (A) (A) (A)
                 (A) (A) (A) (A) (A) (A) (A) (A) (A) (A) (A) (A)
                 (A) (A) (A) (A) (A) (A) (A) (A) (A) (A) (A) (A)
                 (A) (A) (A) (A) (A) (A) (A) (A) (A) (A) (A) (A)
                 (A) (A) (A) (A) (A) (A) (A) (A) (A) (A) (A) (A)
                 (A) (A) (A) (A) (A) (A) (A) (A) (A) (A) (A) (A)
                 (A) (A) (A) (A) (A) (A) (A) (A) (A) (A) (A) (A)
                 (A) (A) (A) (A) (A) (A) (A) (A) (A) (A) (A) (A)
                 (A) (A) (A) (A) (A) (A) (A) (A) (A) (A) (A) (A)
                 (A) (A) (A) (A) (A) (A) (A) (A) (A) (A) (A) (A)
                 (A) (A) (A) (A) (A) (A) (A) (A) (A) (A) (A) (A)
                 (A) (A) (A) (A) (A) (A) (A) (A) (A) (A) (A) (A)
                 (A) (A) (A) (A) (A) (A) (A) (A) (A) (A) (A) (A)
                 (A) (A) (A) (A) (A) (A) (A) (A) (A) (A) (A) (A)
                 (A) (A) (A) (A) (A) (A) (A) (A) (A) (A) (A) (A)
 The electronic state of the initial guess is 1-A.
 Leave Link  401 at Wed Sep  7 20:55:00 2022, MaxMem=  209715200 cpu:      24.8
 (Enter /opt/gaussian/l502.exe)
 Closed shell SCF:
 Requested convergence on RMS density matrix=1.00D-08 within 128 cycles.
 Requested convergence on MAX density matrix=1.00D-06.
 Requested convergence on             energy=1.00D-06.
 No special actions if energy rises.
 Using DIIS extrapolation, IDIIS=  1040.
 Integral symmetry usage will be decided dynamically.
       443378 words used for storage of precomputed grid.
 IEnd=     1476253 IEndB=     1476253 NGot=   209715200 MDV=   208591408
 LenX=   208591408 LenY=   208255588
 Fock matrices will be formed incrementally for  20 cycles.
 Integral accuracy reduced to 1.0D-05 until final iterations.

 Cycle   1  Pass 0  IDiag  1:
 FoFCou: FMM=F IPFlag=           0 FMFlag=      100000 FMFlg1=           0
         NFxFlg=           0 DoJE=F BraDBF=F KetDBF=F FulRan=T
         Omega=  0.000000  0.000000  1.000000  0.000000  0.000000 ICntrl=       0 IOpCl=  0
         NMat0=    1 NMatS0=    1 NMatT0=    0 NMatD0=    1 NMtDS0=    0 NMtDT0=    0
         I1Cent=           0 NGrid=           0.
 Symmetry not used in FoFCou.
 E= -1789.36506840511    
 DIIS: error= 2.09D-02 at cycle   1 NSaved=   1.
 NSaved= 1 IEnMin= 1 EnMin= -1789.36506840511     IErMin= 1 ErrMin= 2.09D-02
 ErrMax= 2.09D-02 EMaxC= 1.00D-01 BMatC= 5.58D-01 BMatP= 5.58D-01
 IDIUse=3 WtCom= 7.91D-01 WtEn= 2.09D-01
 Coeff-Com:  0.100D+01
 Coeff-En:   0.100D+01
 Coeff:      0.100D+01
 Gap=     0.385 Goal=   None    Shift=    0.000
 GapD=    0.385 DampG=1.000 DampE=0.500 DampFc=0.5000 IDamp=-1.
 Damping current iteration by 5.00D-01
 RMSDP=4.11D-03 MaxDP=2.15D-01              OVMax= 2.53D-01

 Cycle   2  Pass 0  IDiag  1:
 RMSU=  1.43D-03    CP:  9.76D-01
 E= -1789.52650521921     Delta-E=       -0.161436814107 Rises=F Damp=T
 DIIS: error= 7.62D-03 at cycle   2 NSaved=   2.
 NSaved= 2 IEnMin= 2 EnMin= -1789.52650521921     IErMin= 2 ErrMin= 7.62D-03
 ErrMax= 7.62D-03 EMaxC= 1.00D-01 BMatC= 1.11D-01 BMatP= 5.58D-01
 IDIUse=3 WtCom= 9.24D-01 WtEn= 7.62D-02
 Coeff-Com:  0.234D+00 0.766D+00
 Coeff-En:   0.345D+00 0.655D+00
 Coeff:      0.243D+00 0.757D+00
 Gap=     0.251 Goal=   None    Shift=    0.000
 RMSDP=1.44D-03 MaxDP=8.19D-02 DE=-1.61D-01 OVMax= 3.18D-01

 Cycle   3  Pass 0  IDiag  1:
 RMSU=  9.72D-04    CP:  9.60D-01  8.21D-01
 E= -1789.87380087261     Delta-E=       -0.347295653400 Rises=F Damp=F
 DIIS: error= 7.99D-03 at cycle   3 NSaved=   3.
 NSaved= 3 IEnMin= 3 EnMin= -1789.87380087261     IErMin= 2 ErrMin= 7.62D-03
 ErrMax= 7.99D-03 EMaxC= 1.00D-01 BMatC= 1.12D-01 BMatP= 1.11D-01
 IDIUse=3 WtCom= 9.20D-01 WtEn= 7.99D-02
 Coeff-Com:  0.569D-01 0.491D+00 0.453D+00
 Coeff-En:   0.000D+00 0.000D+00 0.100D+01
 Coeff:      0.523D-01 0.451D+00 0.496D+00
 Gap=     0.183 Goal=   None    Shift=    0.000
 RMSDP=8.03D-04 MaxDP=6.43D-02 DE=-3.47D-01 OVMax= 7.36D-02

 Cycle   4  Pass 0  IDiag  1:
 RMSU=  3.86D-04    CP:  9.64D-01  9.17D-01  5.98D-01
 E= -1789.96362515863     Delta-E=       -0.089824286015 Rises=F Damp=F
 DIIS: error= 2.81D-03 at cycle   4 NSaved=   4.
 NSaved= 4 IEnMin= 4 EnMin= -1789.96362515863     IErMin= 4 ErrMin= 2.81D-03
 ErrMax= 2.81D-03 EMaxC= 1.00D-01 BMatC= 1.57D-02 BMatP= 1.11D-01
 IDIUse=3 WtCom= 9.72D-01 WtEn= 2.81D-02
 Coeff-Com:  0.975D-02 0.137D+00 0.297D+00 0.556D+00
 Coeff-En:   0.000D+00 0.000D+00 0.140D+00 0.860D+00
 Coeff:      0.948D-02 0.133D+00 0.293D+00 0.564D+00
 Gap=     0.185 Goal=   None    Shift=    0.000
 RMSDP=2.97D-04 MaxDP=1.81D-02 DE=-8.98D-02 OVMax= 2.88D-02

 Cycle   5  Pass 0  IDiag  1:
 RMSU=  1.29D-04    CP:  9.63D-01  8.88D-01  6.84D-01  6.45D-01
 E= -1789.97653577457     Delta-E=       -0.012910615942 Rises=F Damp=F
 DIIS: error= 1.20D-03 at cycle   5 NSaved=   5.
 NSaved= 5 IEnMin= 5 EnMin= -1789.97653577457     IErMin= 5 ErrMin= 1.20D-03
 ErrMax= 1.20D-03 EMaxC= 1.00D-01 BMatC= 1.54D-03 BMatP= 1.57D-02
 IDIUse=3 WtCom= 9.88D-01 WtEn= 1.20D-02
 Coeff-Com:  0.586D-04 0.302D-01 0.127D+00 0.342D+00 0.501D+00
 Coeff-En:   0.000D+00 0.000D+00 0.000D+00 0.618D-01 0.938D+00
 Coeff:      0.579D-04 0.299D-01 0.125D+00 0.339D+00 0.506D+00
 Gap=     0.182 Goal=   None    Shift=    0.000
 RMSDP=1.05D-04 MaxDP=4.19D-03 DE=-1.29D-02 OVMax= 1.37D-02

 Cycle   6  Pass 0  IDiag  1:
 RMSU=  3.94D-05    CP:  9.63D-01  8.93D-01  6.88D-01  7.03D-01  5.47D-01
 E= -1789.97804050984     Delta-E=       -0.001504735270 Rises=F Damp=F
 DIIS: error= 5.27D-04 at cycle   6 NSaved=   6.
 NSaved= 6 IEnMin= 6 EnMin= -1789.97804050984     IErMin= 6 ErrMin= 5.27D-04
 ErrMax= 5.27D-04 EMaxC= 1.00D-01 BMatC= 1.71D-04 BMatP= 1.54D-03
 IDIUse=3 WtCom= 9.95D-01 WtEn= 5.27D-03
 Coeff-Com: -0.864D-03 0.710D-04 0.357D-01 0.125D+00 0.301D+00 0.540D+00
 Coeff-En:   0.000D+00 0.000D+00 0.000D+00 0.000D+00 0.798D-01 0.920D+00
 Coeff:     -0.860D-03 0.706D-04 0.355D-01 0.124D+00 0.299D+00 0.542D+00
 Gap=     0.181 Goal=   None    Shift=    0.000
 RMSDP=3.13D-05 MaxDP=1.59D-03 DE=-1.50D-03 OVMax= 4.18D-03

 Cycle   7  Pass 0  IDiag  1:
 RMSU=  1.34D-05    CP:  9.63D-01  8.93D-01  6.89D-01  7.02D-01  6.09D-01
                    CP:  6.03D-01
 E= -1789.97821613339     Delta-E=       -0.000175623552 Rises=F Damp=F
 DIIS: error= 1.32D-04 at cycle   7 NSaved=   7.
 NSaved= 7 IEnMin= 7 EnMin= -1789.97821613339     IErMin= 7 ErrMin= 1.32D-04
 ErrMax= 1.32D-04 EMaxC= 1.00D-01 BMatC= 1.52D-05 BMatP= 1.71D-04
 IDIUse=3 WtCom= 9.99D-01 WtEn= 1.32D-03
 Coeff-Com: -0.340D-03-0.277D-02 0.898D-02 0.388D-01 0.124D+00 0.308D+00
 Coeff-Com:  0.523D+00
 Coeff-En:   0.000D+00 0.000D+00 0.000D+00 0.000D+00 0.000D+00 0.000D+00
 Coeff-En:   0.100D+01
 Coeff:     -0.340D-03-0.276D-02 0.897D-02 0.388D-01 0.124D+00 0.308D+00
 Coeff:      0.524D+00
 Gap=     0.181 Goal=   None    Shift=    0.000
 RMSDP=8.66D-06 MaxDP=4.82D-04 DE=-1.76D-04 OVMax= 8.69D-04

 Initial convergence to 1.0D-05 achieved.  Increase integral accuracy.
 Cycle   8  Pass 1  IDiag  1:
 E= -1789.97840689085     Delta-E=       -0.000190757461 Rises=F Damp=F
 DIIS: error= 1.74D-04 at cycle   1 NSaved=   1.
 NSaved= 1 IEnMin= 1 EnMin= -1789.97840689085     IErMin= 1 ErrMin= 1.74D-04
 ErrMax= 1.74D-04 EMaxC= 1.00D-01 BMatC= 1.27D-05 BMatP= 1.27D-05
 IDIUse=3 WtCom= 9.98D-01 WtEn= 1.74D-03
 Coeff-Com:  0.100D+01
 Coeff-En:   0.100D+01
 Coeff:      0.100D+01
 Gap=     0.181 Goal=   None    Shift=    0.000
 RMSDP=8.66D-06 MaxDP=4.82D-04 DE=-1.91D-04 OVMax= 6.55D-04

 Cycle   9  Pass 1  IDiag  1:
 RMSU=  9.43D-05    CP:  1.00D+00
 E= -1789.97841580579     Delta-E=       -0.000008914933 Rises=F Damp=F
 DIIS: error= 6.31D-05 at cycle   2 NSaved=   2.
 NSaved= 2 IEnMin= 2 EnMin= -1789.97841580579     IErMin= 2 ErrMin= 6.31D-05
 ErrMax= 6.31D-05 EMaxC= 1.00D-01 BMatC= 3.62D-06 BMatP= 1.27D-05
 IDIUse=1 WtCom= 1.00D+00 WtEn= 0.00D+00
 Coeff-Com:  0.270D+00 0.730D+00
 Coeff:      0.270D+00 0.730D+00
 Gap=     0.181 Goal=   None    Shift=    0.000
 RMSDP=7.64D-06 MaxDP=4.42D-04 DE=-8.91D-06 OVMax= 7.86D-04

 Cycle  10  Pass 1  IDiag  1:
 RMSU=  5.37D-06    CP:  1.00D+00  1.01D+00
 E= -1789.97841379337     Delta-E=        0.000002012412 Rises=F Damp=F
 DIIS: error= 7.50D-05 at cycle   3 NSaved=   3.
 NSaved= 3 IEnMin= 2 EnMin= -1789.97841580579     IErMin= 2 ErrMin= 6.31D-05
 ErrMax= 7.50D-05 EMaxC= 1.00D-01 BMatC= 5.71D-06 BMatP= 3.62D-06
 IDIUse=1 WtCom= 1.00D+00 WtEn= 0.00D+00
 Coeff-Com:  0.486D-03 0.557D+00 0.442D+00
 Coeff:      0.486D-03 0.557D+00 0.442D+00
 Gap=     0.181 Goal=   None    Shift=    0.000
 RMSDP=4.40D-06 MaxDP=2.52D-04 DE= 2.01D-06 OVMax= 4.91D-04

 Cycle  11  Pass 1  IDiag  1:
 RMSU=  7.74D-07    CP:  1.00D+00  1.01D+00  4.44D-01
 E= -1789.97841913570     Delta-E=       -0.000005342328 Rises=F Damp=F
 DIIS: error= 6.48D-06 at cycle   4 NSaved=   4.
 NSaved= 4 IEnMin= 4 EnMin= -1789.97841913570     IErMin= 4 ErrMin= 6.48D-06
 ErrMax= 6.48D-06 EMaxC= 1.00D-01 BMatC= 1.21D-07 BMatP= 3.62D-06
 IDIUse=1 WtCom= 1.00D+00 WtEn= 0.00D+00
 Coeff-Com: -0.362D-02 0.360D+00 0.295D+00 0.349D+00
 Coeff:     -0.362D-02 0.360D+00 0.295D+00 0.349D+00
 Gap=     0.181 Goal=   None    Shift=    0.000
 RMSDP=6.88D-07 MaxDP=4.07D-05 DE=-5.34D-06 OVMax= 8.37D-05

 Cycle  12  Pass 1  IDiag  1:
 RMSU=  1.93D-07    CP:  1.00D+00  1.01D+00  4.54D-01  4.28D-01
 E= -1789.97841924945     Delta-E=       -0.000000113751 Rises=F Damp=F
 DIIS: error= 1.03D-06 at cycle   5 NSaved=   5.
 NSaved= 5 IEnMin= 5 EnMin= -1789.97841924945     IErMin= 5 ErrMin= 1.03D-06
 ErrMax= 1.03D-06 EMaxC= 1.00D-01 BMatC= 2.35D-09 BMatP= 1.21D-07
 IDIUse=1 WtCom= 1.00D+00 WtEn= 0.00D+00
 Coeff-Com: -0.211D-02 0.183D+00 0.150D+00 0.203D+00 0.466D+00
 Coeff:     -0.211D-02 0.183D+00 0.150D+00 0.203D+00 0.466D+00
 Gap=     0.181 Goal=   None    Shift=    0.000
 RMSDP=1.09D-07 MaxDP=7.11D-06 DE=-1.14D-07 OVMax= 9.64D-06

 Cycle  13  Pass 1  IDiag  1:
 RMSU=  6.32D-08    CP:  1.00D+00  1.01D+00  4.53D-01  4.44D-01  7.82D-01
 E= -1789.97841925152     Delta-E=       -0.000000002069 Rises=F Damp=F
 DIIS: error= 4.95D-07 at cycle   6 NSaved=   6.
 NSaved= 6 IEnMin= 6 EnMin= -1789.97841925152     IErMin= 6 ErrMin= 4.95D-07
 ErrMax= 4.95D-07 EMaxC= 1.00D-01 BMatC= 2.23D-10 BMatP= 2.35D-09
 IDIUse=1 WtCom= 1.00D+00 WtEn= 0.00D+00
 Coeff-Com: -0.846D-03 0.682D-01 0.561D-01 0.822D-01 0.275D+00 0.519D+00
 Coeff:     -0.846D-03 0.682D-01 0.561D-01 0.822D-01 0.275D+00 0.519D+00
 Gap=     0.181 Goal=   None    Shift=    0.000
 RMSDP=3.43D-08 MaxDP=2.02D-06 DE=-2.07D-09 OVMax= 3.85D-06

 Cycle  14  Pass 1  IDiag  1:
 RMSU=  1.82D-08    CP:  1.00D+00  1.01D+00  4.53D-01  4.47D-01  8.10D-01
                    CP:  7.68D-01
 E= -1789.97841925169     Delta-E=       -0.000000000172 Rises=F Damp=F
 DIIS: error= 1.36D-07 at cycle   7 NSaved=   7.
 NSaved= 7 IEnMin= 7 EnMin= -1789.97841925169     IErMin= 7 ErrMin= 1.36D-07
 ErrMax= 1.36D-07 EMaxC= 1.00D-01 BMatC= 1.86D-11 BMatP= 2.23D-10
 IDIUse=1 WtCom= 1.00D+00 WtEn= 0.00D+00
 Coeff-Com: -0.158D-03 0.110D-01 0.907D-02 0.166D-01 0.794D-01 0.268D+00
 Coeff-Com:  0.616D+00
 Coeff:     -0.158D-03 0.110D-01 0.907D-02 0.166D-01 0.794D-01 0.268D+00
 Coeff:      0.616D+00
 Gap=     0.181 Goal=   None    Shift=    0.000
 RMSDP=1.14D-08 MaxDP=6.27D-07 DE=-1.72D-10 OVMax= 1.58D-06

 Cycle  15  Pass 1  IDiag  1:
 RMSU=  5.56D-09    CP:  1.00D+00  1.01D+00  4.53D-01  4.47D-01  8.19D-01
                    CP:  7.99D-01  7.12D-01
 E= -1789.97841925169     Delta-E=        0.000000000005 Rises=F Damp=F
 DIIS: error= 5.91D-08 at cycle   8 NSaved=   8.
 NSaved= 8 IEnMin= 7 EnMin= -1789.97841925169     IErMin= 8 ErrMin= 5.91D-08
 ErrMax= 5.91D-08 EMaxC= 1.00D-01 BMatC= 4.34D-12 BMatP= 1.86D-11
 IDIUse=1 WtCom= 1.00D+00 WtEn= 0.00D+00
 Coeff-Com:  0.924D-05-0.175D-02-0.144D-02 0.188D-03 0.135D-01 0.100D+00
 Coeff-Com:  0.382D+00 0.507D+00
 Coeff:      0.924D-05-0.175D-02-0.144D-02 0.188D-03 0.135D-01 0.100D+00
 Coeff:      0.382D+00 0.507D+00
 Gap=     0.181 Goal=   None    Shift=    0.000
 RMSDP=4.86D-09 MaxDP=2.57D-07 DE= 4.55D-12 OVMax= 8.16D-07

 SCF Done:  E(RB3LYP) =  -1789.97841925     A.U. after   15 cycles
             Convg  =    0.4865D-08             -V/T =  2.0047
 KE= 1.781560568739D+03 PE=-1.025711402298D+04 EE= 3.649461595570D+03
 Leave Link  502 at Wed Sep  7 21:06:49 2022, MaxMem=  209715200 cpu:    5660.1
 (Enter /opt/gaussian/l601.exe)
 Copying SCF densities to generalized density rwf, IOpCl= 0 IROHF=0.

 **********************************************************************

            Population analysis using the SCF density.

 **********************************************************************

 Orbital symmetries:
       Occupied  (A) (A) (A) (A) (A) (A) (A) (A) (A) (A) (A) (A)
                 (A) (A) (A) (A) (A) (A) (A) (A) (A) (A) (A) (A)
                 (A) (A) (A) (A) (A) (A) (A) (A) (A) (A) (A) (A)
                 (A) (A) (A) (A) (A) (A) (A) (A) (A) (A) (A) (A)
                 (A) (A) (A) (A) (A) (A) (A) (A) (A) (A) (A) (A)
                 (A) (A) (A) (A) (A) (A) (A) (A) (A) (A) (A) (A)
                 (A) (A) (A) (A) (A) (A) (A) (A) (A) (A) (A) (A)
                 (A) (A) (A) (A) (A) (A) (A) (A) (A) (A) (A) (A)
                 (A) (A) (A) (A) (A) (A) (A) (A) (A) (A) (A) (A)
                 (A) (A) (A) (A) (A) (A) (A)
       Virtual   (A) (A) (A) (A) (A) (A) (A) (A) (A) (A) (A) (A)
                 (A) (A) (A) (A) (A) (A) (A) (A) (A) (A) (A) (A)
                 (A) (A) (A) (A) (A) (A) (A) (A) (A) (A) (A) (A)
                 (A) (A) (A) (A) (A) (A) (A) (A) (A) (A) (A) (A)
                 (A) (A) (A) (A) (A) (A) (A) (A) (A) (A) (A) (A)
                 (A) (A) (A) (A) (A) (A) (A) (A) (A) (A) (A) (A)
                 (A) (A) (A) (A) (A) (A) (A) (A) (A) (A) (A) (A)
                 (A) (A) (A) (A) (A) (A) (A) (A) (A) (A) (A) (A)
                 (A) (A) (A) (A) (A) (A) (A) (A) (A) (A) (A) (A)
                 (A) (A) (A) (A) (A) (A) (A) (A) (A) (A) (A) (A)
                 (A) (A) (A) (A) (A) (A) (A) (A) (A) (A) (A) (A)
                 (A) (A) (A) (A) (A) (A) (A) (A) (A) (A) (A) (A)
                 (A) (A) (A) (A) (A) (A) (A) (A) (A) (A) (A) (A)
                 (A) (A) (A) (A) (A) (A) (A) (A) (A) (A) (A) (A)
                 (A) (A) (A) (A) (A) (A) (A) (A) (A) (A) (A) (A)
                 (A) (A) (A) (A) (A) (A) (A) (A) (A) (A) (A) (A)
                 (A) (A) (A) (A) (A) (A) (A) (A) (A) (A) (A) (A)
                 (A) (A) (A) (A) (A) (A) (A) (A) (A) (A) (A) (A)
                 (A) (A) (A) (A) (A) (A) (A) (A) (A) (A) (A) (A)
                 (A) (A) (A) (A) (A) (A) (A) (A) (A) (A) (A) (A)
                 (A) (A) (A) (A) (A) (A) (A) (A) (A) (A) (A) (A)
                 (A) (A) (A) (A) (A) (A) (A) (A) (A) (A) (A) (A)
                 (A) (A) (A) (A) (A) (A) (A) (A) (A) (A) (A) (A)
                 (A) (A) (A) (A) (A) (A) (A) (A) (A) (A) (A) (A)
                 (A) (A) (A) (A) (A) (A) (A) (A) (A) (A) (A) (A)
                 (A) (A) (A) (A) (A) (A) (A) (A) (A) (A) (A) (A)
                 (A) (A) (A) (A) (A) (A) (A) (A) (A) (A) (A) (A)
                 (A) (A) (A) (A) (A) (A) (A) (A) (A) (A) (A) (A)
                 (A) (A) (A) (A) (A) (A) (A) (A) (A) (A) (A) (A)
                 (A) (A) (A) (A) (A) (A) (A) (A) (A) (A) (A) (A)
                 (A) (A) (A) (A) (A) (A) (A) (A) (A) (A) (A) (A)
                 (A) (A) (A) (A) (A) (A) (A) (A) (A) (A) (A) (A)
                 (A) (A) (A) (A) (A) (A) (A) (A) (A) (A) (A) (A)
                 (A) (A) (A) (A) (A) (A) (A) (A) (A) (A) (A) (A)
                 (A) (A) (A) (A) (A) (A) (A) (A) (A) (A) (A) (A)
                 (A) (A) (A) (A) (A) (A) (A) (A) (A) (A) (A) (A)
 The electronic state is 1-A.
 Alpha  occ. eigenvalues -- -101.55379 -19.12169 -14.40834 -14.40724 -14.38687
 Alpha  occ. eigenvalues --  -14.38547 -14.34744 -14.34415 -10.30365 -10.26894
 Alpha  occ. eigenvalues --  -10.25738 -10.25292 -10.23812 -10.23023 -10.22715
 Alpha  occ. eigenvalues --  -10.22686 -10.21908 -10.21889 -10.21712 -10.21372
 Alpha  occ. eigenvalues --  -10.20655 -10.20540 -10.20501 -10.19977 -10.19870
 Alpha  occ. eigenvalues --  -10.19687 -10.19510 -10.19495 -10.19392 -10.19292
 Alpha  occ. eigenvalues --  -10.19166 -10.18879  -9.47118  -7.23391  -7.22407
 Alpha  occ. eigenvalues --   -7.22376  -1.10085  -1.05674  -1.05613  -0.96845
 Alpha  occ. eigenvalues --   -0.92842  -0.90941  -0.87458  -0.86959  -0.85259
 Alpha  occ. eigenvalues --   -0.83204  -0.81184  -0.80026  -0.78361  -0.77224
 Alpha  occ. eigenvalues --   -0.76512  -0.76130  -0.75543  -0.74216  -0.72328
 Alpha  occ. eigenvalues --   -0.66212  -0.65009  -0.64049  -0.63275  -0.62667
 Alpha  occ. eigenvalues --   -0.62401  -0.60963  -0.60535  -0.58765  -0.57060
 Alpha  occ. eigenvalues --   -0.55679  -0.54843  -0.53387  -0.52983  -0.52713
 Alpha  occ. eigenvalues --   -0.52393  -0.49686  -0.48958  -0.47878  -0.47772
 Alpha  occ. eigenvalues --   -0.47058  -0.46887  -0.46520  -0.45925  -0.45547
 Alpha  occ. eigenvalues --   -0.45102  -0.44850  -0.44694  -0.44561  -0.44008
 Alpha  occ. eigenvalues --   -0.43663  -0.43219  -0.41522  -0.41348  -0.40769
 Alpha  occ. eigenvalues --   -0.39734  -0.38527  -0.38150  -0.37926  -0.37683
 Alpha  occ. eigenvalues --   -0.37601  -0.36732  -0.35985  -0.35814  -0.34408
 Alpha  occ. eigenvalues --   -0.33234  -0.32410  -0.31170  -0.30809  -0.29044
 Alpha  occ. eigenvalues --   -0.28372  -0.27415  -0.27083  -0.26896  -0.26465
 Alpha  occ. eigenvalues --   -0.26170  -0.26000  -0.25058  -0.23473  -0.22304
 Alpha virt. eigenvalues --   -0.04165  -0.03704  -0.03514  -0.03135  -0.01786
 Alpha virt. eigenvalues --    0.00106   0.00818   0.01189   0.01749   0.03798
 Alpha virt. eigenvalues --    0.04373   0.05282   0.05687   0.06641   0.07046
 Alpha virt. eigenvalues --    0.07481   0.07743   0.08723   0.08758   0.09832
 Alpha virt. eigenvalues --    0.10459   0.10917   0.11281   0.12235   0.12784
 Alpha virt. eigenvalues --    0.12880   0.13581   0.14044   0.14322   0.14933
 Alpha virt. eigenvalues --    0.15838   0.16704   0.17025   0.17280   0.18061
 Alpha virt. eigenvalues --    0.20071   0.20309   0.20783   0.21211   0.22093
 Alpha virt. eigenvalues --    0.23898   0.24273   0.24852   0.25440   0.25796
 Alpha virt. eigenvalues --    0.26689   0.27270   0.27541   0.28469   0.28843
 Alpha virt. eigenvalues --    0.29889   0.30235   0.30571   0.31213   0.32064
 Alpha virt. eigenvalues --    0.32993   0.34335   0.34982   0.36045   0.37023
 Alpha virt. eigenvalues --    0.37775   0.39210   0.40131   0.40346   0.41063
 Alpha virt. eigenvalues --    0.42860   0.43087   0.43858   0.43976   0.45001
 Alpha virt. eigenvalues --    0.45271   0.45667   0.45971   0.46132   0.46708
 Alpha virt. eigenvalues --    0.46785   0.46951   0.47510   0.47778   0.48402
 Alpha virt. eigenvalues --    0.48486   0.48635   0.48861   0.49306   0.49617
 Alpha virt. eigenvalues --    0.50057   0.50485   0.50625   0.51062   0.51146
 Alpha virt. eigenvalues --    0.51427   0.51808   0.52186   0.52480   0.52797
 Alpha virt. eigenvalues --    0.53232   0.53800   0.54083   0.54528   0.55062
 Alpha virt. eigenvalues --    0.55342   0.55704   0.55782   0.55839   0.56396
 Alpha virt. eigenvalues --    0.56725   0.57429   0.57798   0.59090   0.59483
 Alpha virt. eigenvalues --    0.60131   0.60505   0.60537   0.61076   0.61837
 Alpha virt. eigenvalues --    0.61919   0.62180   0.62461   0.63504   0.64039
 Alpha virt. eigenvalues --    0.64556   0.65181   0.65254   0.65534   0.65750
 Alpha virt. eigenvalues --    0.65878   0.66393   0.66780   0.67433   0.67715
 Alpha virt. eigenvalues --    0.68143   0.68477   0.68912   0.69784   0.70829
 Alpha virt. eigenvalues --    0.71202   0.71460   0.72019   0.72166   0.72566
 Alpha virt. eigenvalues --    0.73120   0.73373   0.73493   0.74957   0.75071
 Alpha virt. eigenvalues --    0.75542   0.75877   0.76773   0.77606   0.78293
 Alpha virt. eigenvalues --    0.79051   0.79765   0.80265   0.81697   0.82160
 Alpha virt. eigenvalues --    0.83156   0.83582   0.84172   0.84753   0.84808
 Alpha virt. eigenvalues --    0.86011   0.86974   0.87898   0.88319   0.88517
 Alpha virt. eigenvalues --    0.89109   0.89346   0.89556   0.90087   0.90474
 Alpha virt. eigenvalues --    0.91945   0.92400   0.92855   0.93127   0.93667
 Alpha virt. eigenvalues --    0.93886   0.94699   0.95572   0.95863   0.96378
 Alpha virt. eigenvalues --    0.97374   0.98584   0.98877   0.99545   1.00087
 Alpha virt. eigenvalues --    1.00917   1.00960   1.01658   1.01790   1.02414
 Alpha virt. eigenvalues --    1.02541   1.03029   1.03184   1.03617   1.03788
 Alpha virt. eigenvalues --    1.04418   1.04749   1.05032   1.06256   1.06600
 Alpha virt. eigenvalues --    1.07115   1.07548   1.08245   1.09039   1.09506
 Alpha virt. eigenvalues --    1.10943   1.11832   1.12168   1.13059   1.14062
 Alpha virt. eigenvalues --    1.14445   1.14806   1.17190   1.17783   1.18227
 Alpha virt. eigenvalues --    1.18833   1.19571   1.21990   1.23071   1.23185
 Alpha virt. eigenvalues --    1.24264   1.24649   1.25235   1.25960   1.26432
 Alpha virt. eigenvalues --    1.28801   1.29485   1.30208   1.31995   1.32580
 Alpha virt. eigenvalues --    1.33541   1.34880   1.35229   1.36113   1.37062
 Alpha virt. eigenvalues --    1.37788   1.38697   1.40312   1.41246   1.42663
 Alpha virt. eigenvalues --    1.44201   1.44826   1.45664   1.46514   1.47396
 Alpha virt. eigenvalues --    1.47877   1.48650   1.49046   1.49255   1.49921
 Alpha virt. eigenvalues --    1.50260   1.51518   1.51647   1.51933   1.52298
 Alpha virt. eigenvalues --    1.53020   1.53720   1.55472   1.56393   1.56896
 Alpha virt. eigenvalues --    1.57208   1.57658   1.59153   1.59315   1.59790
 Alpha virt. eigenvalues --    1.60507   1.60854   1.61590   1.61918   1.62467
 Alpha virt. eigenvalues --    1.62665   1.63280   1.63636   1.63759   1.64112
 Alpha virt. eigenvalues --    1.64934   1.65217   1.65697   1.66166   1.66217
 Alpha virt. eigenvalues --    1.66511   1.67256   1.67571   1.68631   1.68949
 Alpha virt. eigenvalues --    1.70120   1.70443   1.71885   1.72080   1.72480
 Alpha virt. eigenvalues --    1.73165   1.73794   1.74449   1.74609   1.75011
 Alpha virt. eigenvalues --    1.75867   1.76132   1.76443   1.77646   1.78139
 Alpha virt. eigenvalues --    1.78370   1.78929   1.79488   1.80002   1.80583
 Alpha virt. eigenvalues --    1.80998   1.81396   1.81835   1.82149   1.82529
 Alpha virt. eigenvalues --    1.83967   1.84391   1.84953   1.85393   1.85794
 Alpha virt. eigenvalues --    1.86461   1.86490   1.87146   1.87408   1.87602
 Alpha virt. eigenvalues --    1.88495   1.89277   1.89536   1.90209   1.91103
 Alpha virt. eigenvalues --    1.91466   1.91885   1.92689   1.94273   1.94753
 Alpha virt. eigenvalues --    1.95141   1.96436   1.98063   1.98200   1.99306
 Alpha virt. eigenvalues --    2.00356   2.00586   2.01052   2.02365   2.02845
 Alpha virt. eigenvalues --    2.03095   2.04086   2.04806   2.05388   2.05681
 Alpha virt. eigenvalues --    2.06769   2.07635   2.09210   2.10015   2.10317
 Alpha virt. eigenvalues --    2.12337   2.12733   2.13745   2.16816   2.17326
 Alpha virt. eigenvalues --    2.17927   2.18174   2.19576   2.20468   2.21150
 Alpha virt. eigenvalues --    2.22679   2.24977   2.25085   2.26975   2.28814
 Alpha virt. eigenvalues --    2.30750   2.31158   2.32486   2.33293   2.34373
 Alpha virt. eigenvalues --    2.35560   2.36363   2.37035   2.40806   2.41268
 Alpha virt. eigenvalues --    2.41839   2.42799   2.43342   2.43878   2.44038
 Alpha virt. eigenvalues --    2.44885   2.45878   2.47349   2.48392   2.49099
 Alpha virt. eigenvalues --    2.49280   2.50511   2.51589   2.53566   2.54379
 Alpha virt. eigenvalues --    2.55058   2.55890   2.57499   2.58525   2.60870
 Alpha virt. eigenvalues --    2.61300   2.64078   2.65177   2.66430   2.68314
 Alpha virt. eigenvalues --    2.68880   2.69942   2.71138   2.72900   2.73627
 Alpha virt. eigenvalues --    2.74456   2.75171   2.78177   2.78433   2.78923
 Alpha virt. eigenvalues --    2.80472   2.81574   2.82848   2.85974   2.86362
 Alpha virt. eigenvalues --    2.89041   2.90921   2.96269   2.97575   2.99227
 Alpha virt. eigenvalues --    3.00138   3.01598   3.08647   3.11314   3.13059
 Alpha virt. eigenvalues --    3.16578   3.35052   3.42028   3.44569   3.49031
 Alpha virt. eigenvalues --    3.58437   3.60604
          Condensed to atoms (all electrons):
 Mulliken atomic charges:
              1
     1  Cl  -0.097683
     2  C   -0.160720
     3  C    0.143585
     4  C    0.063050
     5  C    0.034977
     6  C   -0.107107
     7  C    0.149505
     8  C    0.182442
     9  N   -0.281503
    10  C    0.104394
    11  O   -0.243552
    12  C    0.156841
    13  N   -0.230002
    14  N   -0.056046
    15  N   -0.179987
    16  C   -0.002492
    17  C    0.064173
    18  C    0.049698
    19  C    0.051956
    20  C    0.046066
    21  C    0.212136
    22  C    0.079760
    23  C    0.050342
    24  C    0.024556
    25  C    0.046160
    26  C    0.023879
    27  C    0.105214
    28  C   -0.078432
    29  C    0.110690
    30  N    0.015281
    31  N   -0.166686
    32  C    0.109374
    33  H   -0.025141
    34  H   -0.022650
    35  H   -0.022414
    36  H   -0.041985
    37  H    0.036559
    38  H    0.047446
    39  H    0.047268
    40  H    0.050616
    41  H   -0.033634
    42  H   -0.038316
    43  H   -0.037445
    44  H   -0.044920
    45  H   -0.045253
    46  H   -0.057906
    47  H   -0.047196
    48  H   -0.031572
    49  H   -0.016610
    50  H   -0.024660
    51  H    0.087946
 Sum of Mulliken atomic charges =   0.00000
 Mulliken charges with hydrogens summed into heavy atoms:
              1
     1  Cl  -0.097683
     2  C   -0.160720
     3  C    0.118444
     4  C    0.040400
     5  C    0.012563
     6  C   -0.107107
     7  C    0.107519
     8  C    0.266448
     9  N   -0.281503
    10  C    0.104394
    11  O   -0.243552
    12  C    0.254726
    13  N   -0.230002
    14  N   -0.056046
    15  N   -0.179987
    16  C   -0.002492
    17  C    0.030539
    18  C    0.011382
    19  C    0.014511
    20  C    0.001146
    21  C    0.212136
    22  C    0.079760
    23  C    0.005089
    24  C   -0.033350
    25  C    0.046160
    26  C   -0.023318
    27  C    0.073642
    28  C   -0.078432
    29  C    0.094080
    30  N    0.103227
    31  N   -0.166686
    32  C    0.084714
 Sum of Mulliken charges with hydrogens summed into heavy atoms =   0.00000
 Electronic spatial extent (au):  <R**2>=          20000.3531
 Charge=              0.0000 electrons
 Dipole moment (field-independent basis, Debye):
    X=              2.9371    Y=              5.7026    Z=              2.1999  Tot=              6.7812
 Quadrupole moment (field-independent basis, Debye-Ang):
   XX=           -179.2261   YY=           -205.7608   ZZ=           -186.2762
   XY=             14.2479   XZ=            -14.0061   YZ=             -4.4779
 Traceless Quadrupole moment (field-independent basis, Debye-Ang):
   XX=             11.1949   YY=            -15.3397   ZZ=              4.1449
   XY=             14.2479   XZ=            -14.0061   YZ=             -4.4779
 Octapole moment (field-independent basis, Debye-Ang**2):
  XXX=            219.1410  YYY=            -34.0699  ZZZ=             25.4904  XYY=             15.5969
  XXY=            142.8321  XXZ=             61.5222  XZZ=            -10.5796  YZZ=             41.2535
  YYZ=             40.7552  XYZ=             53.7571
 Hexadecapole moment (field-independent basis, Debye-Ang**3):
 XXXX=         -15014.7569 YYYY=          -9114.8561 ZZZZ=          -1491.7574 XXXY=           1337.8871
 XXXZ=            -56.0799 YYYX=            133.8450 YYYZ=            -46.8239 ZZZX=           -107.0174
 ZZZY=            -63.2297 XXYY=          -4410.0709 XXZZ=          -3159.8352 YYZZ=          -1699.4629
 XXYZ=            -58.1169 YYXZ=           -234.2068 ZZXY=            -98.3046
 N-N= 3.036113439419D+03 E-N=-1.025711402573D+04  KE= 1.781560568739D+03
 No NMR shielding tensors so no spin-rotation constants.
 Leave Link  601 at Wed Sep  7 21:06:50 2022, MaxMem=  209715200 cpu:       4.0
 (Enter /opt/gaussian/l701.exe)
 Compute integral first derivatives.
 ... and contract with generalized density number  0.
 Leave Link  701 at Wed Sep  7 21:06:50 2022, MaxMem=  209715200 cpu:       3.4
 (Enter /opt/gaussian/l702.exe)
 L702 exits ... SP integral derivatives will be done elsewhere.
 Leave Link  702 at Wed Sep  7 21:06:50 2022, MaxMem=  209715200 cpu:       0.2
 (Enter /opt/gaussian/l703.exe)
 Compute integral first derivatives, UseDBF=F ICtDFT=           0.
 Integral derivatives from FoFDir, PRISM(SPDF).
 Calling FoFJK, ICntrl=      2127 FMM=F ISym2X=0 I1Cent= 0 IOpClX= 0 NMat=1 NMatS=1 NMatT=0.
 FoFCou: FMM=F IPFlag=           0 FMFlag=      100000 FMFlg1=         800
         NFxFlg=           0 DoJE=F BraDBF=F KetDBF=F FulRan=T
         Omega=  0.000000  0.000000  1.000000  0.000000  0.000000 ICntrl=    2127 IOpCl=  0
         NMat0=    1 NMatS0=    1 NMatT0=    0 NMatD0=    1 NMtDS0=    0 NMtDT0=    0
         I1Cent=           0 NGrid=           0.
 Symmetry not used in FoFCou.
 Leave Link  703 at Wed Sep  7 21:10:53 2022, MaxMem=  209715200 cpu:    1935.6
 (Enter /opt/gaussian/l716.exe)
 Dipole        = 1.15552887D+00 2.24356765D+00 8.65500163D-01
 ***** Axes restored to original set *****
 -------------------------------------------------------------------
 Center     Atomic                   Forces (Hartrees/Bohr)
 Number     Number              X              Y              Z
 -------------------------------------------------------------------
      1       17           0.007227385   -0.014165894    0.005847440
      2        6          -0.012117827    0.023686599   -0.009395636
      3        6           0.000425496   -0.001216354    0.001892817
      4        6           0.000570141    0.000352935   -0.004831904
      5        6          -0.000792958    0.002198261   -0.000431418
      6        6           0.002624979   -0.003250917   -0.005392071
      7        6           0.001497820   -0.002401278   -0.000621561
      8        6          -0.003562376   -0.004654361    0.013770162
      9        7           0.005346271    0.007612223   -0.003224176
     10        6           0.003197525   -0.014283410    0.007554129
     11        8          -0.000421932    0.000910930   -0.001454527
     12        6           0.001328867   -0.004946856    0.003108473
     13        7          -0.000088744    0.000217194   -0.000033856
     14        7           0.009842780    0.012459082   -0.008958529
     15        7          -0.013144854   -0.018879448    0.001117854
     16        6          -0.001086895   -0.005929345   -0.015168098
     17        6           0.001498333    0.001928463   -0.001573240
     18        6           0.003987308    0.006513208    0.002425953
     19        6          -0.003981258   -0.006107372   -0.002179899
     20        6           0.000727092   -0.000013571   -0.004906242
     21        6           0.006381282    0.009995300    0.006221732
     22        6          -0.009649406    0.001131675   -0.002009744
     23        6           0.002969823   -0.000890664   -0.000615904
     24        6          -0.003210597   -0.000490736   -0.002183191
     25        6           0.010422338   -0.000979427    0.001343241
     26        6          -0.002869192    0.002159056    0.001438983
     27        6           0.002067009    0.000152281    0.002702681
     28        6          -0.016715076   -0.008609468   -0.001984069
     29        6           0.004807110    0.002573630    0.001648290
     30        7          -0.019613666   -0.017113293   -0.001729570
     31        7           0.024675881   -0.003727369    0.004358834
     32        6          -0.004708591    0.016991303   -0.003041170
     33        1          -0.006591137    0.009247516    0.008939113
     34        1          -0.000354235   -0.002855979    0.013942607
     35        1           0.005727557   -0.011841884    0.004781203
     36        1           0.000095191    0.003004643   -0.013625301
     37        1          -0.007434174   -0.001291816   -0.010304530
     38        1           0.010810708    0.005745533   -0.004172061
     39        1          -0.005271525    0.010841445    0.006354933
     40        1          -0.000860192    0.003497682   -0.013204352
     41        1          -0.006745923   -0.011413422   -0.005689520
     42        1          -0.007428011   -0.008336100    0.009064425
     43        1          -0.000645273    0.002776308    0.013937679
     44        1           0.006955863    0.011228374    0.005351769
     45        1          -0.006266243    0.011386571    0.005372482
     46        1           0.007200312    0.009190966    0.007563577
     47        1           0.006328757   -0.011332898   -0.005453099
     48        1          -0.007655321   -0.009478178   -0.007832939
     49        1           0.000125368    0.015828683   -0.001433373
     50        1          -0.006253050   -0.015676366    0.000456442
     51        1           0.020627261    0.008256542    0.002255160
 -------------------------------------------------------------------
 Cartesian Forces:  Max     0.024675881 RMS     0.007972066
 Leave Link  716 at Wed Sep  7 21:10:53 2022, MaxMem=  209715200 cpu:       0.2
 (Enter /opt/gaussian/l103.exe)

 GradGradGradGradGradGradGradGradGradGradGradGradGradGradGradGradGradGrad
 Berny optimization.
 Internal  Forces:  Max     0.022330691 RMS     0.005686041
 Search for a local minimum.
 Step number   1 out of a maximum of  288
 All quantities printed in internal units (Hartrees-Bohrs-Radians)
 RMS Force = .56860D-02 SwitMx=.10000D-02 MixMth= 1
 Mixed Optimization -- RFO/linear search
 Second derivative matrix not updated -- first step.
 ITU=  0
     Eigenvalues ---    0.00444   0.00467   0.00847   0.01107   0.01174
     Eigenvalues ---    0.01191   0.01293   0.01301   0.01501   0.01705
     Eigenvalues ---    0.01770   0.01844   0.01929   0.02049   0.02050
     Eigenvalues ---    0.02062   0.02093   0.02118   0.02166   0.02167
     Eigenvalues ---    0.02183   0.02184   0.02203   0.02208   0.02226
     Eigenvalues ---    0.02227   0.02235   0.02237   0.02238   0.02248
     Eigenvalues ---    0.02256   0.02257   0.02261   0.02262   0.02277
     Eigenvalues ---    0.02279   0.02287   0.02310   0.02312   0.02339
     Eigenvalues ---    0.02343   0.02365   0.02382   0.02412   0.04534
     Eigenvalues ---    0.05138   0.06364   0.06591   0.10007   0.10474
     Eigenvalues ---    0.13267   0.13579   0.15993   0.15993   0.15996
     Eigenvalues ---    0.15997   0.15997   0.15998   0.15999   0.16000
     Eigenvalues ---    0.16000   0.16000   0.16000   0.16000   0.16000
     Eigenvalues ---    0.16000   0.16000   0.22000   0.22000   0.22000
     Eigenvalues ---    0.22005   0.22021   0.22592   0.22653   0.22961
     Eigenvalues ---    0.23419   0.23478   0.23504   0.23996   0.24534
     Eigenvalues ---    0.24967   0.24975   0.24993   0.24996   0.24997
     Eigenvalues ---    0.24997   0.24998   0.25000   0.25000   0.25000
     Eigenvalues ---    0.25000   0.25000   0.25499   0.29952   0.30121
     Eigenvalues ---    0.35640   0.35813   0.35839   0.35957   0.36031
[...]
 13,0.00002756,-0.00010153,0.00001166,-0.00004079,-0.00000571,-0.000002
 42,-0.00000055,-0.00000419,-0.00000312,0.00000376,-0.00000234,0.000000
 22,0.00000604,0.00000287,-0.00000790,-0.00001606,-0.00084357,-0.000750
 05,-0.00062210,-0.00014390,-0.00008414,0.00024758,-0.00045677,0.000318
 81,0.00156007,0.12151790,0.22766863,-0.00000740,0.00001830,-0.00000498
 ,0.00000993,-0.00002270,-0.00000974,-0.00000044,-0.00000108,0.00000745
 ,-0.00000125,0.00001276,0.00000225,0.00003960,-0.00001938,0.00000406,0
 .00000776,0.00001668,-0.00005818,-0.00001018,0.00002881,0.00002316,-0.
 00013178,-0.00008355,-0.00008389,0.00247548,0.00200976,-0.00354109,0.0
 0026595,-0.00414255,0.00144149,-0.00084741,0.00217060,-0.00021826,0.00
 007900,0.00043368,-0.00001063,-0.00001480,0.00000174,0.00001182,0.0000
 7570,0.00007039,0.00005284,-0.00004043,-0.00006431,0.00001543,-0.00000
 214,0.00001492,-0.00001619,-0.00000679,-0.00000367,0.00001512,-0.00000
 857,-0.00000885,-0.00001636,0.00000747,0.00002876,-0.00001966,-0.00001
 419,0.00000606,0.00002383,0.00006011,0.00000428,-0.00005424,-0.0045969
 5,-0.00353795,0.00155408,-0.00034498,-0.00259179,0.00466512,0.00055090
 ,0.00047797,-0.00059341,-0.00209887,-0.00134748,0.00676773,-0.00220938
 ,-0.00544051,0.00107425,-0.06759766,-0.09341344,-0.08726997,-0.0001635
 8,-0.00032712,0.00004235,0.00005806,0.00010560,-0.00015531,-0.00012405
 ,0.00003449,-0.00001553,-0.00005474,-0.00002585,-0.00000606,0.00001822
 ,-0.00002566,-0.00001761,-0.00000174,0.00000043,0.00000044,-0.00000209
 ,-0.00000225,-0.00000024,-0.00001591,-0.00002118,0.00000183,-0.0000022
 5,-0.00000291,-0.00000077,-0.00005385,0.00011558,0.00000096,-0.0000333
 8,0.00007464,-0.00001116,-0.00007947,0.00000787,-0.00003191,-0.0000663
 7,0.00001012,0.00000106,-0.00000154,-0.00000297,0.00000043,-0.00000015
 ,-0.00000478,0.00000147,0.00000394,-0.00000173,0.00000049,0.00001165,-
 0.00002537,-0.00001871,-0.00024060,-0.00025372,0.00027045,0.00017198,0
 .00025591,-0.00075338,0.00111073,0.00183072,-0.00357453,0.07384157,0.1
 0363318,0.08048330,0.00001001,-0.00001808,0.00000607,-0.00001318,0.000
 02481,-0.00000997,0.00000374,-0.00000647,0.00000363,-0.00000022,0.0000
 0506,0.00000905,0.00001137,0.00000064,-0.00000485,-0.00000153,0.000005
 12,0.00000524,0.00000598,-0.00000430,-0.00000696,-0.00001233,0.0000190
 6,0.00000114,0.00010201,0.00005635,0.00002105,-0.00006844,-0.00008424,
 0.00001935,0.00003440,0.00004663,-0.00001287,-0.00001041,-0.00001819,0
 .00000035,0.00001830,0.00001528,0.00000880,-0.00000962,-0.00001592,-0.
 00002348,0.00001307,0.00001784,-0.00000434,0.00000175,0.00000208,0.000
 00572,-0.00000073,-0.00000103,-0.00000106,0.00000116,0.00000160,0.0000
 0066,-0.00000154,-0.00000273,0.00000195,0.,-0.00000094,-0.00000589,-0.
 00000808,-0.00000381,0.00001911,-0.00006182,0.00008371,0.00001111,-0.0
 0006193,0.00031484,0.00003395,-0.00028264,-0.00034931,-0.00029815,0.00
 089668,0.00048873,0.00067943,-0.00017678,-0.00003271,-0.00016360,0.000
 10906,0.00000571,0.00001093,0.01072183,-0.01630158,0.00299688,-0.05706
 251,-0.00584843,-0.00550970,0.00569044,0.03166925,-0.00057127,-0.00496
 881,0.00213726,-0.00194582,-0.00455154,-0.00413541,-0.00141544,-0.0000
 0041,-0.00000152,-0.00000032,-0.00000224,-0.00000061,-0.00000056,-0.00
 000696,-0.00000540,0.00000544,-0.00000297,0.00000083,-0.00000023,0.000
 00814,-0.00000333,0.00000258,-0.00000293,-0.00000072,-0.00001326,0.000
 00387,0.00000233,0.00000169,0.00000075,-0.00000014,-0.00000340,0.00000
 073,0.00000082,0.00000042,0.00000099,0.00000111,-0.00000109,-0.0000004
 1,-0.00000047,-0.00000078,-0.00000082,0.00000126,0.00000279,-0.0000440
 1,-0.00001323,0.00000507,-0.00090767,0.00024495,0.00039908,0.00004787,
 0.00006956,0.00005477,-0.00001147,-0.00000088,0.00001005,0.04912445,0.
 00000408,-0.00000861,0.00000273,-0.00000506,0.00000947,-0.00000452,0.0
 0000197,-0.00000435,0.00000088,-0.00000093,0.00000233,0.00000359,0.000
 00377,0.00000051,-0.00000418,-0.00000220,0.00000261,0.00000380,0.00000
 184,-0.00000289,-0.00000328,-0.00000464,0.00002047,0.00000203,0.000070
 97,0.00002917,0.00001702,-0.00003481,-0.00005121,0.00001219,0.00001530
 ,0.00002821,-0.00000590,-0.00000440,-0.00000728,-0.00000140,0.00000871
 ,0.00000637,0.00000369,-0.00000349,-0.00000642,-0.00001060,0.00000504,
 0.00000740,-0.00000191,0.00000081,0.00000101,0.00000267,-0.00000037,-0
 .00000035,-0.00000020,0.00000032,0.00000090,-0.00000006,-0.00000073,-0
 .00000099,0.00000057,-0.00000002,-0.00000027,-0.00000229,-0.00000391,-
 0.00000210,0.00000878,-0.00002458,0.00007778,0.00004896,-0.00005782,0.
 00025333,0.00005124,0.00005540,-0.00029079,-0.00044409,0.00086839,-0.0
 0016795,0.00000203,-0.00035360,-0.00006855,-0.00007169,0.00012210,-0.0
 0008186,-0.00002221,0.00627982,-0.00537199,0.00160795,0.00326300,-0.35
 582598,0.02618945,-0.00403204,-0.00855686,-0.00041472,0.00066626,0.000
 74366,0.00053157,-0.00088587,-0.00203682,0.00028865,0.00000063,-0.0000
 0061,-0.00000024,-0.00000037,0.00000010,-0.00000061,-0.00000286,-0.000
 00235,0.00000343,-0.00000025,0.00000099,0.00000062,0.00000401,-0.00000
 400,0.00000162,-0.00000083,0.00000181,-0.00000417,0.00000284,0.0000012
 3,0.00000072,0.00000004,0.00000023,-0.00000125,0.00000046,0.00000025,0
 .00000018,0.00000064,0.00000042,-0.00000052,0.00000009,-0.00000027,-0.
 00000053,-0.00000034,0.00000039,0.00000123,-0.00001154,0.00000159,-0.0
 0001520,0.00025219,0.00050008,0.00027839,0.00002527,0.00004366,0.00003
 809,-0.00001362,0.00000121,-0.00000063,-0.00692686,0.37118391,-0.00000
 201,0.00000410,-0.00000433,0.00000225,-0.00000401,0.00000569,-0.000000
 22,-0.00000141,-0.00000600,-0.00000313,-0.00000248,0.00000242,-0.00000
 086,-0.00000733,-0.00000599,-0.00000493,0.00000800,0.00000875,0.000002
 06,-0.00000242,-0.00000219,-0.00000264,0.00000957,0.00001699,0.0000294
 3,-0.00005218,0.00003032,-0.00003140,-0.00002441,0.00000696,0.00000408
 ,0.00002132,-0.00000893,-0.00000362,-0.00000858,0.00000077,0.00000090,
 0.00000167,-0.00000277,0.00000347,0.00000250,-0.00000486,-0.00000054,-
 0.00000133,0.00000011,0.00000079,0.00000124,-0.00000088,-0.00000116,-0
 .00000143,0.00000201,-0.00000041,-0.00000027,-0.00000289,0.00000071,0.
 00000120,0.00000065,0.00000106,0.00000175,0.00000097,-0.00000395,-0.00
 000311,0.00000499,-0.00003881,0.00031944,0.00006514,-0.00028364,-0.000
 15746,-0.00036203,0.00037562,0.00046547,0.00012239,0.00115588,-0.00004
 122,-0.00196120,-0.00044562,-0.00015578,-0.00018100,0.00024388,-0.0002
 3216,0.00001448,0.00049542,-0.00295505,0.00136686,-0.00617653,0.025672
 11,-0.02747639,0.00239765,0.00521061,-0.00390319,-0.00176156,0.0011059
 7,0.00607740,-0.00181894,-0.00036909,0.00398313,0.00000206,-0.00000042
 ,0.00000047,0.00000484,0.00000050,-0.00000374,0.00000343,0.00000500,0.
 00000542,-0.00000238,0.00000178,-0.00000151,-0.00000340,-0.00000670,0.
 00000139,0.00000323,-0.00000312,0.00000655,0.00000360,0.00000111,0.000
 00107,-0.00000126,0.00000042,-0.00000003,-0.00000011,-0.00000009,0.000
 00010,0.00000043,0.00000023,-0.00000007,0.00000099,0.00000026,-0.00000
 141,-0.00000023,-0.00000099,0.00000149,0.00001267,-0.00000589,0.000019
 89,0.00028022,-0.00030861,0.00039896,-0.00001815,-0.00001603,-0.000026
 13,-0.00000351,-0.00000473,0.00000286,0.00525424,-0.02815839,0.0224644
 8,0.00000701,-0.00001386,0.00000458,-0.00000807,0.00001632,-0.00000701
 ,0.00000305,-0.00000664,0.00000205,-0.00000134,0.00000258,0.00000627,0
 .00000348,0.00000263,-0.00000626,-0.00000322,-0.00000269,0.00000798,0.
 00000340,-0.00000500,-0.00000669,-0.00000378,0.00003552,-0.00001397,0.
 00007434,-0.00000907,-0.00000777,-0.00004687,-0.00000211,-0.00001100,0
 .00004248,-0.00001444,0.00000071,-0.00000774,-0.00001324,0.00000853,0.
 00001310,0.00000945,0.00000749,-0.00000682,-0.00001346,-0.00001635,0.0
 0001032,0.00001280,-0.00000333,0.00000060,0.00000122,0.00000410,-0.000
 00051,-0.00000141,-0.00000138,0.00000113,0.00000010,0.00000151,-0.0000
 0059,-0.00000338,0.00000235,0.00000199,-0.00000123,-0.00000415,-0.0000
 0677,-0.00000149,0.00001238,-0.00009154,-0.00015468,-0.00004876,0.0001
 7479,-0.00000748,0.00005979,-0.00027618,0.00013578,0.00014827,0.000812
 27,-0.00069011,0.00035770,-0.00012792,0.00010610,-0.00008752,-0.000216
 21,-0.00008459,0.00006012,0.01023186,0.01257517,0.00053455,-0.00328602
 ,0.00364077,-0.00139013,-0.00669962,-0.00317237,-0.00228278,-0.0081179
 4,-0.02951166,0.00195009,-0.09116551,-0.09330061,-0.00328914,0.0000006
 1,-0.00000101,-0.00000017,-0.00000048,0.00000064,-0.00000054,-0.000004
 25,-0.00000099,0.00000526,-0.00000058,0.00000104,0.00000060,0.00000879
 ,-0.00000360,0.00000092,-0.00000303,0.00000146,-0.00000709,0.00000486,
 0.00000237,0.00000013,0.00000325,0.00000009,-0.00000111,0.00000012,0.0
 0000090,0.00000041,0.00000027,0.00000122,-0.00000093,-0.00000136,0.000
 00018,-0.00000017,-0.00000189,0.00000311,0.00000205,0.00000267,0.00000
 418,-0.00001872,0.00002848,-0.00005969,-0.00002158,-0.00064071,0.00030
 203,-0.00066609,-0.00001761,0.00001583,-0.00002543,0.00111342,0.000383
 47,0.00000369,0.09778552,-0.00000516,0.00001068,-0.00000349,0.00000591
 ,-0.00001186,0.00000499,-0.00000217,0.00000502,-0.00000138,0.00000098,
 -0.00000148,-0.00000383,-0.00000167,-0.00000283,0.00000465,0.00000232,
 0.00000324,-0.00000699,-0.00000239,0.00000480,0.00000496,-0.00000533,-
 0.00002324,0.00001560,-0.00002191,0.00005668,0.00000855,0.00003665,-0.
 00003945,0.00000817,-0.00004442,0.00002950,-0.00000322,0.00000424,0.00
 000952,-0.00000656,-0.00000857,-0.00000629,-0.00000482,0.00000411,0.00
 000894,0.00001091,-0.00000650,-0.00000819,0.00000221,-0.00000033,-0.00
 000087,-0.00000294,0.00000035,0.00000074,0.00000077,-0.00000059,-0.000
 00024,-0.00000090,0.00000041,0.00000219,-0.00000101,-0.00000112,0.0000
 0119,0.00000270,0.00000454,0.00000087,-0.00000800,0.00001426,0.0000690
 9,0.00007140,-0.00017113,0.00002407,-0.00009017,0.00049344,-0.00019924
 ,0.00004964,-0.00128478,0.00027113,-0.00033315,0.00015242,-0.00056673,
 -0.00053489,0.00016748,0.00035421,0.00010502,-0.01173069,-0.00924929,-
 0.00115416,0.00221064,-0.00340562,0.00078899,0.00084922,0.00255484,0.0
 0057165,-0.00145188,0.00034407,-0.00085222,-0.10009456,-0.31482065,0.0
 0351985,-0.00000073,0.00000069,0.00000022,0.00000026,-0.00000088,0.000
 00040,0.00000344,0.00000087,-0.00000312,0.00000004,-0.00000094,-0.0000
 0069,-0.00000481,0.00000210,-0.00000015,0.00000272,-0.00000179,0.00000
 548,-0.00000302,-0.00000146,0.00000018,-0.00000142,-0.00000056,0.00000
 084,-0.00000029,-0.00000056,-0.00000037,-0.00000037,-0.00000079,0.0000
 0075,0.00000096,0.,0.00000009,0.00000135,-0.00000226,-0.00000111,0.000
 01861,-0.00000626,0.00001256,-0.00003465,0.00008948,0.00005180,0.00006
 345,0.00061603,0.00045973,0.00003695,-0.00000357,-0.00000809,-0.000926
 27,-0.00027961,-0.00011451,0.11157440,0.32392043,0.00000167,-0.0000030
 9,-0.00000044,-0.00000211,0.00000374,-0.00000055,0.00000163,-0.0000030
 9,-0.00000235,-0.00000168,0.00000123,0.00000515,0.00000450,-0.00000513
 ,-0.00000587,-0.00000348,0.00000447,0.00000861,0.00000230,-0.00000307,
 -0.00000572,0.00000872,0.00002276,0.00000897,0.00002265,-0.00005327,0.
 00001359,-0.00004010,-0.00002782,0.00000836,0.00002080,0.00001382,-0.0
 0002074,-0.00000766,-0.00000800,0.00000543,0.00000796,0.00000634,0.000
 00024,0.00000351,-0.00000109,-0.00001377,0.00000301,0.00000270,-0.0000
 0062,0.00000126,0.00000232,0.00000119,-0.00000182,-0.00000207,0.000002
 76,-0.00000047,0.00000042,-0.00000381,0.00000024,0.00000157,0.00000107
 ,0.00000012,0.00000190,-0.00000047,-0.00000755,-0.00000547,0.00001239,
 0.00004858,0.00023072,0.00008371,-0.00019920,-0.00008150,-0.00009301,0
 .00022216,-0.00023490,0.00000307,-0.00012627,0.00002526,-0.00164808,-0
 .00025807,0.00057310,0.00006530,0.00022758,-0.00031478,-0.00020629,0.0
 0282957,0.00218607,0.00161407,-0.00118939,0.00093131,0.00359631,-0.002
 54987,0.00023966,0.00655879,-0.00065869,-0.00610717,-0.00709442,-0.002
 33907,0.00561032,-0.03106705,0.00000066,-0.00000072,0.00000020,0.00000
 172,-0.00000100,-0.00000227,-0.00000076,0.00000004,0.00000671,-0.00000
 105,0.00000177,-0.00000045,0.00000155,-0.00000818,0.00000271,0.0000021
 2,0.00000023,-0.00000047,0.00000349,0.00000127,0.00000055,-0.00000011,
 0.00000101,-0.00000074,0.00000002,0.00000006,0.00000034,0.00000126,0.0
 0000050,-0.00000044,0.00000170,-0.00000050,-0.00000231,0.,-0.00000181,
 0.00000244,-0.00000595,-0.00000616,-0.00000443,0.00002473,-0.00005081,
 -0.00001889,-0.00072662,-0.00006624,-0.00006345,-0.00002630,0.00001059
 ,0.00000050,0.00007676,0.00012034,0.00090654,0.00499203,-0.00275949,0.
 02513099,0.00002006,-0.00003858,0.00001256,-0.00002491,0.00004818,-0.0
 0001979,0.00000888,-0.00001704,0.00000557,-0.00000284,0.00000825,0.000
 01614,0.00001354,0.00000177,-0.00001632,-0.00000884,0.00000475,0.00002
 118,0.00001155,-0.00001459,-0.00001764,-0.00000525,0.00010683,0.000005
 70,0.00028607,0.00002862,0.00004269,-0.00016139,-0.00020823,0.00000592
 ,0.00006648,0.00009751,-0.00003008,-0.00002742,-0.00003553,0.00001360,
 0.00004036,0.00003017,0.00002104,-0.00001824,-0.00003551,-0.00005014,0
 .00002846,0.00003712,-0.00000919,0.00000308,0.00000458,0.00001224,-0.0
 0000152,-0.00000321,-0.00000250,0.00000290,0.00000209,0.00000199,-0.00
 000231,-0.00000707,0.00000435,0.00000236,-0.00000237,-0.00001196,-0.00
 001933,-0.00000753,0.00004023,-0.00012419,-0.00006268,-0.00006925,0.00
 007175,0.00008596,0.00004474,0.00012535,-0.00010379,-0.00004236,-0.000
 27546,-0.00100056,-0.00040157,-0.00015049,0.00021834,0.00012218,-0.000
 10457,-0.00010877,-0.00007377,-0.00205892,0.00502591,-0.00123864,-0.00
 987554,-0.01510890,0.00057277,-0.39889772,-0.13204967,-0.05794403,0.00
 269396,-0.00116877,0.00252321,0.00393778,0.00035025,0.00004916,0.00000
 086,-0.00000280,-0.00000079,-0.00000256,0.00000024,-0.00000188,-0.0000
 1164,-0.00000406,0.00001456,-0.00000313,0.00000361,0.00000096,0.000025
 66,-0.00002201,0.00000885,-0.00000580,0.00000356,-0.00001764,0.0000128
 1,0.00000731,0.00000147,0.00000608,-0.00000050,-0.00000427,0.00000086,
 0.00000216,0.00000102,0.00000143,0.00000290,-0.00000252,-0.00000199,-0
 .00000021,-0.00000141,-0.00000340,0.00000503,0.00000602,0.00000551,-0.
 00001830,-0.00000154,-0.00000129,0.00002305,0.00001174,-0.00004283,-0.
 00002769,-0.00001095,-0.00001930,0.00001518,0.00000020,0.00035196,0.00
 033359,0.00032643,0.00040872,0.00015566,-0.00036607,0.40372443,0.00001
 237,-0.00002628,0.00000783,-0.00001531,0.00002974,-0.00001250,0.000005
 99,-0.00001427,0.00000179,-0.00000445,0.00000539,0.00001238,0.00000774
 ,-0.00000035,-0.00001444,-0.00000995,0.00000273,0.00001931,0.00000668,
 -0.00001070,-0.00001481,-0.00000059,0.00009508,0.00000540,0.00022035,0
 .00001029,0.00002976,-0.00011086,-0.00015397,0.00000367,0.00004628,0.0
 0006927,-0.00002701,-0.00001741,-0.00001920,0.00000983,0.00002581,0.00
 001675,0.00001242,-0.00000914,-0.00002073,-0.00003092,0.00001638,0.000
 02168,-0.00000529,0.00000211,0.00000310,0.00000707,-0.00000097,-0.0000
 0206,-0.00000089,0.00000195,0.00000146,0.00000006,-0.00000110,-0.00000
 399,0.00000277,0.00000217,-0.00000073,-0.00000661,-0.00001368,-0.00000
 598,0.00002610,-0.00012174,0.00000437,-0.00003088,0.00001956,0.0000198
 9,0.00000290,0.00004722,0.00005513,0.00007558,-0.00011532,0.00121609,0
 .00008583,0.00041496,-0.00024612,-0.00000875,0.00002698,0.00009271,0.0
 0004639,0.00516060,-0.00182156,0.00119404,0.01386826,0.01486458,0.0007
 8725,-0.12632587,-0.12000191,-0.01388165,-0.03449135,-0.00797008,-0.00
 614341,0.00012842,-0.01007133,0.00097968,0.00000267,-0.00000160,-0.000
 00035,0.00000104,0.00000094,-0.00000246,-0.00000661,-0.00000091,0.0000
 1348,-0.00000042,0.00000369,0.00000116,0.00002027,-0.00001862,0.000006
 05,-0.00000423,0.00000325,-0.00001226,0.00001049,0.00000517,0.00000066
 ,0.00000486,0.00000007,-0.00000178,0.00000035,0.00000126,0.00000040,0.
 00000073,0.00000170,-0.00000128,-0.00000070,0.00000028,-0.00000138,-0.
 00000244,0.00000282,0.00000418,0.00002219,-0.00001655,0.00000059,-0.00
 002932,-0.00000548,-0.00001244,-0.00000992,0.00004337,0.00004491,0.000
 03603,-0.00000711,0.00001626,-0.00051229,-0.00014707,-0.00019509,-0.00
 175458,0.00025427,-0.00024818,0.14344576,0.12374154,-0.00000184,0.0000
 0406,-0.00000352,0.00000234,-0.00000445,0.00000364,-0.00000079,0.,-0.0
 0000355,-0.00000146,-0.00000049,0.00000349,0.00000167,-0.00000402,-0.0
 0000346,-0.00000034,0.00000543,0.00000284,0.00000075,-0.00000026,-0.00
 000025,-0.00000255,-0.00001543,0.00000391,-0.00006231,-0.00002485,0.00
 000604,0.00000297,0.00005895,0.00000203,0.00002500,-0.00002585,-0.0000
 0617,0.00000059,-0.00000146,-0.00000017,-0.00000111,0.00000017,-0.0000
 0435,0.00000605,0.00000556,-0.00000193,-0.00000258,-0.00000460,0.00000
 105,0.00000035,0.00000080,-0.00000153,-0.00000118,-0.00000135,0.000002
 53,-0.00000075,-0.00000084,-0.00000328,0.00000117,0.00000197,0.0000008
 5,0.00000062,0.00000148,0.00000160,-0.00000259,-0.00000254,0.00000175,
 -0.00001077,0.00007772,0.00004451,-0.00003772,-0.00004914,-0.00008244,
 -0.00003180,0.00001515,-0.00007911,-0.00029045,0.00008154,0.00204601,0
 .00013274,0.00001988,-0.00001162,0.00018314,0.00008545,-0.00021294,-0.
 00141498,0.00126588,0.00300532,-0.00128037,-0.00401937,-0.00739952,-0.
 05832036,-0.01453924,-0.01193855,0.00452324,-0.00083121,-0.01151209,0.
 00007869,0.00065689,0.00441909,0.00000121,-0.00000053,0.00000071,0.000
 00270,0.00000034,-0.00000220,0.00000051,0.00000108,0.00000273,-0.00000
 164,0.00000075,-0.00000102,-0.00000685,0.00000137,-0.00000154,0.000003
 06,-0.00000068,0.00000284,0.00000027,-0.00000069,0.00000036,-0.0000026
 7,0.00000109,-0.00000045,-0.00000035,-0.00000021,0.00000021,0.00000047
 ,0.00000028,0.00000003,0.00000091,0.00000007,-0.00000143,-0.00000016,-
 0.00000132,0.00000099,0.00000428,-0.00000112,0.00000390,-0.00000479,-0
 .00002650,0.00006428,-0.00003575,-0.00011269,0.00006254,0.00000551,-0.
 00001100,0.00001702,0.00034569,-0.00005382,-0.00156369,-0.00025554,0.0
 0019315,0.00221666,0.05644776,0.01725462,0.02091788\\-0.00000610,0.000
 01508,-0.00000851,0.00001249,-0.00002295,0.00000597,-0.00000088,0.0000
 0402,-0.00000650,-0.00000085,0.00000253,0.00000543,0.00000342,-0.00000
 819,0.00000081,-0.00000252,0.00000883,-0.00000106,-0.00000082,0.000004
 22,0.00000050,0.00000221,-0.00000225,-0.00001449,0.00001193,-0.0000033
 0,0.00000462,-0.00001893,0.00002168,-0.00001381,0.00000681,-0.00001213
 ,0.00000744,0.00001099,0.00000595,-0.00000456,-0.00001624,-0.00001165,
 -0.00002309,0.00001811,0.00001960,0.00003018,-0.00001461,-0.00001262,0
 .00001240,0.00000583,0.00000560,-0.00002490,-0.00000459,-0.00000250,0.
 00001075,-0.00000880,-0.00000826,-0.00000424,0.00000742,0.00001110,0.0
 0000862,-0.00000294,0.00000407,0.00000557,0.00000333,-0.00000198,0.000
 00060,-0.00000933,-0.00000617,-0.00000290,-0.00000093,0.00000450,0.000
 00166,0.00000460,0.00000286,0.00000368,-0.00000745,-0.00000019,-0.0000
 0473,0.00000969,0.00000029,0.00000334,-0.00001016,0.00000029,-0.000003
 47,0.00001588,-0.00000646,-0.00001036,-0.00000826,0.00000176,0.0000140
 2,0.00002270,-0.00000777,-0.00000302,-0.00000281,0.00001882,0.00000208
 ,-0.00001875,-0.00001194,0.00000685,0.00000270,-0.00000096,-0.00000259
 ,-0.00000080,0.00000438,-0.00000716,-0.00000160,0.00000584,-0.00000243
 ,0.00000174,-0.00000251,0.00000008,0.00000464,-0.00000017,0.00000698,-
 0.00000547,-0.00000305,0.00000140,0.00000410,-0.00000535,-0.00000146,-
 0.00000131,-0.00000473,0.00000874,0.00000173,0.00000370,0.00000490,0.0
 0000125,0.00000504,-0.00000263,-0.00000129,0.00000243,-0.00000491,-0.0
 0000220,-0.00000345,-0.00000051,0.00000534,-0.00000490,-0.00000123,-0.
 00000465,-0.00000316,-0.00000199,-0.00000447,0.00000183,0.00000192,0.0
 0000395,0.00000114,0.00000411,-0.00000174,-0.00000783,-0.00000013,0.00
 000548,0.00000391,0.00000194,-0.00000782,-0.00000503,-0.00000388\\\@


 A true friend is someone who is there for
 you when he'd rather be anywhere else.
                               -- Len Wein
 Job cpu time:  0 days 21 hours 45 minutes 15.6 seconds.
 File lengths (MBytes):  RWF=   1726 Int=      0 D2E=      0 Chk=     24 Scr=      1
 Normal termination of Gaussian 09 at Thu Sep  8 03:20:25 2022.
