 Entering Gaussian System, Link 0=g09
 Input=Mol32.gjf
 Output=Mol32.log
 Initial command:
 /opt/gaussian/l1.exe /home/scr/lqcapf-6/Gau-299539.inp -scrdir=/home/scr/lqcapf-6/
 Entering Link 1 = /opt/gaussian/l1.exe PID=    299541.
  
 Copyright (c) 1988,1990,1992,1993,1995,1998,2003,2009,2011,
            Gaussian, Inc.  All Rights Reserved.
  
 This is part of the Gaussian(R) 09 program.  It is based on
 the Gaussian(R) 03 system (copyright 2003, Gaussian, Inc.),
 the Gaussian(R) 98 system (copyright 1998, Gaussian, Inc.),
 the Gaussian(R) 94 system (copyright 1995, Gaussian, Inc.),
 the Gaussian 92(TM) system (copyright 1992, Gaussian, Inc.),
 the Gaussian 90(TM) system (copyright 1990, Gaussian, Inc.),
 the Gaussian 88(TM) system (copyright 1988, Gaussian, Inc.),
 the Gaussian 86(TM) system (copyright 1986, Carnegie Mellon
 University), and the Gaussian 82(TM) system (copyright 1983,
 Carnegie Mellon University). Gaussian is a federally registered
 trademark of Gaussian, Inc.
  
 This software contains proprietary and confidential information,
 including trade secrets, belonging to Gaussian, Inc.
  
 This software is provided under written license and may be
 used, copied, transmitted, or stored only in accord with that
 written license.
  
 The following legend is applicable only to US Government
 contracts under FAR:
  
                    RESTRICTED RIGHTS LEGEND
  
 Use, reproduction and disclosure by the US Government is
 subject to restrictions as set forth in subparagraphs (a)
 and (c) of the Commercial Computer Software - Restricted
 Rights clause in FAR 52.227-19.
  
 Gaussian, Inc.
 340 Quinnipiac St., Bldg. 40, Wallingford CT 06492
  
  
 ---------------------------------------------------------------
 Warning -- This program may not be used in any manner that
 competes with the business of Gaussian, Inc. or will provide
 assistance to any competitor of Gaussian, Inc.  The licensee
 of this program is prohibited from giving any competitor of
 Gaussian, Inc. access to this program.  By using this program,
 the user acknowledges that Gaussian, Inc. is engaged in the
 business of creating and licensing software in the field of
 computational chemistry and represents and warrants to the
 licensee that it is not a competitor of Gaussian, Inc. and that
 it will not use this program in any manner prohibited above.
 ---------------------------------------------------------------
  

 Cite this work as:
 Gaussian 09, Revision C.01,
 M. J. Frisch, G. W. Trucks, H. B. Schlegel, G. E. Scuseria, 
 M. A. Robb, J. R. Cheeseman, G. Scalmani, V. Barone, B. Mennucci, 
 G. A. Petersson, H. Nakatsuji, M. Caricato, X. Li, H. P. Hratchian, 
 A. F. Izmaylov, J. Bloino, G. Zheng, J. L. Sonnenberg, M. Hada, 
 M. Ehara, K. Toyota, R. Fukuda, J. Hasegawa, M. Ishida, T. Nakajima, 
 Y. Honda, O. Kitao, H. Nakai, T. Vreven, J. A. Montgomery, Jr., 
 J. E. Peralta, F. Ogliaro, M. Bearpark, J. J. Heyd, E. Brothers, 
 K. N. Kudin, V. N. Staroverov, T. Keith, R. Kobayashi, J. Normand, 
 K. Raghavachari, A. Rendell, J. C. Burant, S. S. Iyengar, J. Tomasi, 
 M. Cossi, N. Rega, J. M. Millam, M. Klene, J. E. Knox, J. B. Cross, 
 V. Bakken, C. Adamo, J. Jaramillo, R. Gomperts, R. E. Stratmann, 
 O. Yazyev, A. J. Austin, R. Cammi, C. Pomelli, J. W. Ochterski, 
 R. L. Martin, K. Morokuma, V. G. Zakrzewski, G. A. Voth, 
 P. Salvador, J. J. Dannenberg, S. Dapprich, A. D. Daniels, 
 O. Farkas, J. B. Foresman, J. V. Ortiz, J. Cioslowski, 
 and D. J. Fox, Gaussian, Inc., Wallingford CT, 2010.
 
 ******************************************
 Gaussian 09:  EM64L-G09RevC.01 23-Sep-2011
                 6-Sep-2022 
 ******************************************
 %nprocshared=8
 Will use up to    8 processors via shared memory.
 %mem=1600MB
 -------------------------
 #p opt freq b3lyp/cc-pvdz
 -------------------------
 1/14=-1,18=20,19=15,26=3,38=1/1,3;
 2/9=110,12=2,17=6,18=5,40=1/2;
 3/5=16,11=2,16=1,25=1,30=1,71=1,74=-5/1,2,3;
 4//1;
 5/5=2,38=5/2;
 6/7=2,8=2,9=2,10=2,28=1/1;
 7//1,2,3,16;
 1/14=-1,18=20,19=15/3(2);
 2/9=110/2;
 99//99;
 2/9=110/2;
 3/5=16,11=2,16=1,25=1,30=1,71=1,74=-5/1,2,3;
 4/5=5,16=3/1;
 5/5=2,38=5/2;
 7//1,2,3,16;
 1/14=-1,18=20,19=15/3(-5);
 2/9=110/2;
 6/7=2,8=2,9=2,10=2,19=2,28=1/1;
 99/9=1/99;
 Leave Link    1 at Tue Sep  6 15:53:53 2022, MaxMem=  209715200 cpu:       0.2
 (Enter /opt/gaussian/l101.exe)
 ---------
 Mol32.log
 ---------
 Charge =  0 Multiplicity = 1
 Symbolic Z-Matrix:
 Cl                   -4.97514   3.88822  -0.90621 
 C                    -3.26634   3.46293  -0.51597 
 C                    -2.46536   4.41392   0.07839 
 C                    -1.16209   4.05865   0.36885 
 C                    -0.66029   2.80831   0.08252 
 C                    -1.48665   1.8603   -0.51578 
 C                    -2.80281   2.19634  -0.8151 
 C                    -0.96282   0.48525  -0.89289 
 N                    -0.21321  -0.20583   0.1706 
 C                    -0.82178  -0.84363   1.21155 
 O                    -0.19315  -1.39208   2.11154 
 C                    -2.34283  -0.9082    1.26185 
 N                    -2.86932  -1.90768   0.3603 
 N                    -3.67673  -1.54679  -0.67975 
 N                    -4.08002  -2.58639  -1.28513 
 C                    -3.55789  -3.70399  -0.65566 
 C                    -3.71689  -5.06211  -0.93497 
 C                    -3.06815  -5.94965  -0.11331 
 C                    -2.27165  -5.50005   0.96546 
 C                    -2.10607  -4.16543   1.24874 
 C                    -2.776    -3.26987   0.40805 
 C                     1.22131  -0.25009   0.07121 
 C                     1.81458  -0.87895  -1.01382 
 C                     3.1939   -0.90268  -1.13955 
 C                     4.0105   -0.31055  -0.1782 
 C                     3.40116   0.30352   0.91528 
 C                     2.02256   0.33529   1.04068 
 C                     5.48855  -0.33954  -0.3108 
 C                     6.12287  -0.07062  -1.52188 
 C                     7.50597  -0.10921  -1.59675 
 C                     8.22631  -0.41378  -0.45364 
 N                     7.62945  -0.67438   0.7077 
 C                     6.3024   -0.6411    0.77981 
 Cl                   -0.08472   5.28151   1.14515 
 H                    -2.83785   5.38931   0.30734 
 H                     0.35751   2.57602   0.3159 
 H                    -3.45843   1.47813  -1.26614 
 H                    -1.78291  -0.12904  -1.22658 
 H                    -0.28883   0.58618  -1.73013 
 H                    -2.59822  -1.16732   2.27769 
 H                    -2.81087   0.02827   1.01237 
 H                    -4.3238   -5.38227  -1.75753 
 H                    -3.15931  -7.00371  -0.28578 
 H                    -1.77784  -6.22825   1.57887 
 H                    -1.48596  -3.82755   2.0538 
 H                     1.20276  -1.36629  -1.74829 
 H                     3.63568  -1.41193  -1.97391 
 H                     4.00499   0.77648   1.66474 
 H                     1.57231   0.7976    1.89539 
 H                     5.54272   0.18319  -2.38789 
 H                     8.01326   0.10029  -2.51703 
 H                     9.29592  -0.45142  -0.46018 
 H                     5.87542  -0.87908   1.73259 
 
 NAtoms=     53 NQM=        0 NQMF=       0 NMMI=     53 NMMIF=      0
                NMic=       0 NMicF=      0.
                    Isotopes and Nuclear Properties:
 (Nuclear quadrupole moments (NQMom) in fm**2, nuclear magnetic moments (NMagM)
  in nuclear magnetons)

  Atom         1           2           3           4           5           6           7           8           9          10
 IAtWgt=          35          12          12          12          12          12          12          12          14          12
 AtmWgt=  34.9688527  12.0000000  12.0000000  12.0000000  12.0000000  12.0000000  12.0000000  12.0000000  14.0030740  12.0000000
 NucSpn=           3           0           0           0           0           0           0           0           2           0
 AtZEff=   0.0000000   0.0000000   0.0000000   0.0000000   0.0000000   0.0000000   0.0000000   0.0000000   0.0000000   0.0000000
 NQMom=   -8.1650000   0.0000000   0.0000000   0.0000000   0.0000000   0.0000000   0.0000000   0.0000000   2.0440000   0.0000000
 NMagM=    0.8218740   0.0000000   0.0000000   0.0000000   0.0000000   0.0000000   0.0000000   0.0000000   0.4037610   0.0000000

  Atom        11          12          13          14          15          16          17          18          19          20
 IAtWgt=          16          12          14          14          14          12          12          12          12          12
 AtmWgt=  15.9949146  12.0000000  14.0030740  14.0030740  14.0030740  12.0000000  12.0000000  12.0000000  12.0000000  12.0000000
 NucSpn=           0           0           2           2           2           0           0           0           0           0
 AtZEff=   0.0000000   0.0000000   0.0000000   0.0000000   0.0000000   0.0000000   0.0000000   0.0000000   0.0000000   0.0000000
 NQMom=    0.0000000   0.0000000   2.0440000   2.0440000   2.0440000   0.0000000   0.0000000   0.0000000   0.0000000   0.0000000
 NMagM=    0.0000000   0.0000000   0.4037610   0.4037610   0.4037610   0.0000000   0.0000000   0.0000000   0.0000000   0.0000000

  Atom        21          22          23          24          25          26          27          28          29          30
 IAtWgt=          12          12          12          12          12          12          12          12          12          12
 AtmWgt=  12.0000000  12.0000000  12.0000000  12.0000000  12.0000000  12.0000000  12.0000000  12.0000000  12.0000000  12.0000000
 NucSpn=           0           0           0           0           0           0           0           0           0           0
 AtZEff=   0.0000000   0.0000000   0.0000000   0.0000000   0.0000000   0.0000000   0.0000000   0.0000000   0.0000000   0.0000000
 NQMom=    0.0000000   0.0000000   0.0000000   0.0000000   0.0000000   0.0000000   0.0000000   0.0000000   0.0000000   0.0000000
 NMagM=    0.0000000   0.0000000   0.0000000   0.0000000   0.0000000   0.0000000   0.0000000   0.0000000   0.0000000   0.0000000

  Atom        31          32          33          34          35          36          37          38          39          40
 IAtWgt=          12          14          12          35           1           1           1           1           1           1
 AtmWgt=  12.0000000  14.0030740  12.0000000  34.9688527   1.0078250   1.0078250   1.0078250   1.0078250   1.0078250   1.0078250
 NucSpn=           0           2           0           3           1           1           1           1           1           1
 AtZEff=   0.0000000   0.0000000   0.0000000   0.0000000   0.0000000   0.0000000   0.0000000   0.0000000   0.0000000   0.0000000
 NQMom=    0.0000000   2.0440000   0.0000000  -8.1650000   0.0000000   0.0000000   0.0000000   0.0000000   0.0000000   0.0000000
 NMagM=    0.0000000   0.4037610   0.0000000   0.8218740   2.7928460   2.7928460   2.7928460   2.7928460   2.7928460   2.7928460

  Atom        41          42          43          44          45          46          47          48          49          50
 IAtWgt=           1           1           1           1           1           1           1           1           1           1
 AtmWgt=   1.0078250   1.0078250   1.0078250   1.0078250   1.0078250   1.0078250   1.0078250   1.0078250   1.0078250   1.0078250
 NucSpn=           1           1           1           1           1           1           1           1           1           1
 AtZEff=   0.0000000   0.0000000   0.0000000   0.0000000   0.0000000   0.0000000   0.0000000   0.0000000   0.0000000   0.0000000
 NQMom=    0.0000000   0.0000000   0.0000000   0.0000000   0.0000000   0.0000000   0.0000000   0.0000000   0.0000000   0.0000000
 NMagM=    2.7928460   2.7928460   2.7928460   2.7928460   2.7928460   2.7928460   2.7928460   2.7928460   2.7928460   2.7928460

  Atom        51          52          53
 IAtWgt=           1           1           1
 AtmWgt=   1.0078250   1.0078250   1.0078250
 NucSpn=           1           1           1
 AtZEff=   0.0000000   0.0000000   0.0000000
 NQMom=    0.0000000   0.0000000   0.0000000
 NMagM=    2.7928460   2.7928460   2.7928460
 Leave Link  101 at Tue Sep  6 15:53:53 2022, MaxMem=  209715200 cpu:       0.9
 (Enter /opt/gaussian/l103.exe)

 GradGradGradGradGradGradGradGradGradGradGradGradGradGradGradGradGradGrad
 Berny optimization.
 Initialization pass.
                           ----------------------------
                           !    Initial Parameters    !
                           ! (Angstroms and Degrees)  !
 --------------------------                            --------------------------
 ! Name  Definition              Value          Derivative Info.                !
 --------------------------------------------------------------------------------
 ! R1    R(1,2)                  1.8037         estimate D2E/DX2                !
 ! R2    R(2,3)                  1.3781         estimate D2E/DX2                !
 ! R3    R(2,7)                  1.3815         estimate D2E/DX2                !
 ! R4    R(3,4)                  1.3817         estimate D2E/DX2                !
 ! R5    R(3,35)                 1.0689         estimate D2E/DX2                !
 ! R6    R(4,5)                  1.3774         estimate D2E/DX2                !
 ! R7    R(4,34)                 1.8052         estimate D2E/DX2                !
 ! R8    R(5,6)                  1.3927         estimate D2E/DX2                !
 ! R9    R(5,36)                 1.0697         estimate D2E/DX2                !
 ! R10   R(6,7)                  1.391          estimate D2E/DX2                !
 ! R11   R(6,8)                  1.519          estimate D2E/DX2                !
 ! R12   R(7,37)                 1.072          estimate D2E/DX2                !
 ! R13   R(8,9)                  1.4733         estimate D2E/DX2                !
 ! R14   R(8,38)                 1.0776         estimate D2E/DX2                !
 ! R15   R(8,39)                 1.0795         estimate D2E/DX2                !
 ! R16   R(9,10)                 1.3641         estimate D2E/DX2                !
 ! R17   R(9,22)                 1.4386         estimate D2E/DX2                !
 ! R18   R(10,11)                1.2272         estimate D2E/DX2                !
 ! R19   R(10,12)                1.5233         estimate D2E/DX2                !
 ! R20   R(12,13)                1.4453         estimate D2E/DX2                !
 ! R21   R(12,40)                1.079          estimate D2E/DX2                !
 ! R22   R(12,41)                1.0762         estimate D2E/DX2                !
 ! R23   R(13,14)                1.3652         estimate D2E/DX2                !
 ! R24   R(13,21)                1.3662         estimate D2E/DX2                !
 ! R25   R(14,15)                1.2688         estimate D2E/DX2                !
 ! R26   R(15,16)                1.3849         estimate D2E/DX2                !
 ! R27   R(16,17)                1.3956         estimate D2E/DX2                !
 ! R28   R(16,21)                1.3897         estimate D2E/DX2                !
 ! R29   R(17,18)                1.3725         estimate D2E/DX2                !
 ! R30   R(17,42)                1.0712         estimate D2E/DX2                !
 ! R31   R(18,19)                1.4143         estimate D2E/DX2                !
 ! R32   R(18,43)                1.072          estimate D2E/DX2                !
 ! R33   R(19,20)                1.3744         estimate D2E/DX2                !
 ! R34   R(19,44)                1.0726         estimate D2E/DX2                !
 ! R35   R(20,21)                1.3991         estimate D2E/DX2                !
 ! R36   R(20,45)                1.0709         estimate D2E/DX2                !
 ! R37   R(22,23)                1.3873         estimate D2E/DX2                !
 ! R38   R(22,27)                1.3873         estimate D2E/DX2                !
 ! R39   R(23,24)                1.3852         estimate D2E/DX2                !
 ! R40   R(23,46)                1.073          estimate D2E/DX2                !
 ! R41   R(24,25)                1.3934         estimate D2E/DX2                !
 ! R42   R(24,47)                1.0727         estimate D2E/DX2                !
 ! R43   R(25,26)                1.3943         estimate D2E/DX2                !
 ! R44   R(25,28)                1.4843         estimate D2E/DX2                !
 ! R45   R(26,27)                1.3847         estimate D2E/DX2                !
 ! R46   R(26,48)                1.0724         estimate D2E/DX2                !
 ! R47   R(27,49)                1.071          estimate D2E/DX2                !
 ! R48   R(28,29)                1.3933         estimate D2E/DX2                !
 ! R49   R(28,33)                1.3938         estimate D2E/DX2                !
 ! R50   R(29,30)                1.3857         estimate D2E/DX2                !
 ! R51   R(29,50)                1.0728         estimate D2E/DX2                !
 ! R52   R(30,31)                1.385          estimate D2E/DX2                !
 ! R53   R(30,51)                1.0715         estimate D2E/DX2                !
 ! R54   R(31,32)                1.3315         estimate D2E/DX2                !
 ! R55   R(31,52)                1.0703         estimate D2E/DX2                !
 ! R56   R(32,33)                1.3294         estimate D2E/DX2                !
 ! R57   R(33,53)                1.0709         estimate D2E/DX2                !
 ! A1    A(1,2,3)              118.7669         estimate D2E/DX2                !
 ! A2    A(1,2,7)              119.1573         estimate D2E/DX2                !
 ! A3    A(3,2,7)              122.0751         estimate D2E/DX2                !
 ! A4    A(2,3,4)              117.4808         estimate D2E/DX2                !
 ! A5    A(2,3,35)             121.3008         estimate D2E/DX2                !
 ! A6    A(4,3,35)             121.2184         estimate D2E/DX2                !
 ! A7    A(3,4,5)              122.2321         estimate D2E/DX2                !
 ! A8    A(3,4,34)             118.6305         estimate D2E/DX2                !
 ! A9    A(5,4,34)             119.1371         estimate D2E/DX2                !
 ! A10   A(4,5,6)              119.4107         estimate D2E/DX2                !
 ! A11   A(4,5,36)             119.894          estimate D2E/DX2                !
 ! A12   A(6,5,36)             120.6946         estimate D2E/DX2                !
 ! A13   A(5,6,7)              119.304          estimate D2E/DX2                !
 ! A14   A(5,6,8)              121.2138         estimate D2E/DX2                !
 ! A15   A(7,6,8)              119.4441         estimate D2E/DX2                !
 ! A16   A(2,7,6)              119.4968         estimate D2E/DX2                !
 ! A17   A(2,7,37)             120.0103         estimate D2E/DX2                !
 ! A18   A(6,7,37)             120.4905         estimate D2E/DX2                !
 ! A19   A(6,8,9)              114.8901         estimate D2E/DX2                !
 ! A20   A(6,8,38)             109.2967         estimate D2E/DX2                !
 ! A21   A(6,8,39)             108.8569         estimate D2E/DX2                !
 ! A22   A(9,8,38)             110.0809         estimate D2E/DX2                !
 ! A23   A(9,8,39)             106.6203         estimate D2E/DX2                !
 ! A24   A(38,8,39)            106.7544         estimate D2E/DX2                !
 ! A25   A(8,9,10)             122.9008         estimate D2E/DX2                !
 ! A26   A(8,9,22)             118.1585         estimate D2E/DX2                !
 ! A27   A(10,9,22)            118.8944         estimate D2E/DX2                !
 ! A28   A(9,10,11)            122.6893         estimate D2E/DX2                !
 ! A29   A(9,10,12)            119.3743         estimate D2E/DX2                !
 ! A30   A(11,10,12)           117.9276         estimate D2E/DX2                !
 ! A31   A(10,12,13)           111.8676         estimate D2E/DX2                !
 ! A32   A(10,12,40)           106.1177         estimate D2E/DX2                !
 ! A33   A(10,12,41)           112.937          estimate D2E/DX2                !
 ! A34   A(13,12,40)           109.5702         estimate D2E/DX2                !
 ! A35   A(13,12,41)           107.3802         estimate D2E/DX2                !
 ! A36   A(40,12,41)           108.9207         estimate D2E/DX2                !
 ! A37   A(12,13,14)           120.5194         estimate D2E/DX2                !
 ! A38   A(12,13,21)           130.0015         estimate D2E/DX2                !
 ! A39   A(14,13,21)           109.3044         estimate D2E/DX2                !
 ! A40   A(13,14,15)           109.5644         estimate D2E/DX2                !
 ! A41   A(14,15,16)           108.936          estimate D2E/DX2                !
 ! A42   A(15,16,17)           130.6468         estimate D2E/DX2                !
 ! A43   A(15,16,21)           107.935          estimate D2E/DX2                !
 ! A44   A(17,16,21)           121.4174         estimate D2E/DX2                !
 ! A45   A(16,17,18)           117.105          estimate D2E/DX2                !
 ! A46   A(16,17,42)           120.6024         estimate D2E/DX2                !
 ! A47   A(18,17,42)           122.2924         estimate D2E/DX2                !
 ! A48   A(17,18,19)           121.1485         estimate D2E/DX2                !
 ! A49   A(17,18,43)           119.9571         estimate D2E/DX2                !
 ! A50   A(19,18,43)           118.8943         estimate D2E/DX2                !
 ! A51   A(18,19,20)           122.2601         estimate D2E/DX2                !
 ! A52   A(18,19,44)           118.6645         estimate D2E/DX2                !
 ! A53   A(20,19,44)           119.0748         estimate D2E/DX2                !
 ! A54   A(19,20,21)           116.1061         estimate D2E/DX2                !
 ! A55   A(19,20,45)           122.0799         estimate D2E/DX2                !
 ! A56   A(21,20,45)           121.804          estimate D2E/DX2                !
 ! A57   A(13,21,16)           104.2574         estimate D2E/DX2                !
 ! A58   A(13,21,20)           133.7805         estimate D2E/DX2                !
 ! A59   A(16,21,20)           121.962          estimate D2E/DX2                !
 ! A60   A(9,22,23)            119.629          estimate D2E/DX2                !
 ! A61   A(9,22,27)            120.9744         estimate D2E/DX2                !
 ! A62   A(23,22,27)           119.3952         estimate D2E/DX2                !
 ! A63   A(22,23,24)           120.3017         estimate D2E/DX2                !
 ! A64   A(22,23,46)           119.8279         estimate D2E/DX2                !
 ! A65   A(24,23,46)           119.8587         estimate D2E/DX2                !
 ! A66   A(23,24,25)           120.906          estimate D2E/DX2                !
 ! A67   A(23,24,47)           119.2626         estimate D2E/DX2                !
 ! A68   A(25,24,47)           119.8027         estimate D2E/DX2                !
 ! A69   A(24,25,26)           118.1712         estimate D2E/DX2                !
 ! A70   A(24,25,28)           120.907          estimate D2E/DX2                !
 ! A71   A(26,25,28)           120.921          estimate D2E/DX2                !
 ! A72   A(25,26,27)           121.0804         estimate D2E/DX2                !
 ! A73   A(25,26,48)           119.7527         estimate D2E/DX2                !
 ! A74   A(27,26,48)           119.1568         estimate D2E/DX2                !
 ! A75   A(22,27,26)           120.1372         estimate D2E/DX2                !
 ! A76   A(22,27,49)           119.8047         estimate D2E/DX2                !
 ! A77   A(26,27,49)           120.0499         estimate D2E/DX2                !
 ! A78   A(25,28,29)           121.8182         estimate D2E/DX2                !
 ! A79   A(25,28,33)           121.0494         estimate D2E/DX2                !
 ! A80   A(29,28,33)           117.1323         estimate D2E/DX2                !
 ! A81   A(28,29,30)           119.7356         estimate D2E/DX2                !
 ! A82   A(28,29,50)           120.0732         estimate D2E/DX2                !
 ! A83   A(30,29,50)           120.1813         estimate D2E/DX2                !
 ! A84   A(29,30,31)           118.728          estimate D2E/DX2                !
 ! A85   A(29,30,51)           120.8984         estimate D2E/DX2                !
 ! A86   A(31,30,51)           120.3715         estimate D2E/DX2                !
 ! A87   A(30,31,32)           121.9892         estimate D2E/DX2                !
 ! A88   A(30,31,52)           121.4962         estimate D2E/DX2                !
 ! A89   A(32,31,52)           116.5146         estimate D2E/DX2                !
 ! A90   A(31,32,33)           119.3323         estimate D2E/DX2                !
 ! A91   A(28,33,32)           123.0816         estimate D2E/DX2                !
 ! A92   A(28,33,53)           120.7605         estimate D2E/DX2                !
 ! A93   A(32,33,53)           116.1493         estimate D2E/DX2                !
 ! D1    D(1,2,3,4)            179.8361         estimate D2E/DX2                !
 ! D2    D(1,2,3,35)            -0.0957         estimate D2E/DX2                !
 ! D3    D(7,2,3,4)              0.135          estimate D2E/DX2                !
 ! D4    D(7,2,3,35)          -179.7968         estimate D2E/DX2                !
 ! D5    D(1,2,7,6)           -179.9261         estimate D2E/DX2                !
 ! D6    D(1,2,7,37)            -0.4879         estimate D2E/DX2                !
 ! D7    D(3,2,7,6)             -0.2261         estimate D2E/DX2                !
 ! D8    D(3,2,7,37)           179.212          estimate D2E/DX2                !
 ! D9    D(2,3,4,5)              0.0958         estimate D2E/DX2                !
 ! D10   D(2,3,4,34)           179.8977         estimate D2E/DX2                !
 ! D11   D(35,3,4,5)          -179.9723         estimate D2E/DX2                !
 ! D12   D(35,3,4,34)           -0.1704         estimate D2E/DX2                !
 ! D13   D(3,4,5,6)             -0.2296         estimate D2E/DX2                !
 ! D14   D(3,4,5,36)           179.465          estimate D2E/DX2                !
 ! D15   D(34,4,5,6)           179.9695         estimate D2E/DX2                !
 ! D16   D(34,4,5,36)           -0.3359         estimate D2E/DX2                !
 ! D17   D(4,5,6,7)              0.1337         estimate D2E/DX2                !
 ! D18   D(4,5,6,8)            177.874          estimate D2E/DX2                !
 ! D19   D(36,5,6,7)          -179.5585         estimate D2E/DX2                !
 ! D20   D(36,5,6,8)            -1.8182         estimate D2E/DX2                !
 ! D21   D(5,6,7,2)              0.0868         estimate D2E/DX2                !
 ! D22   D(5,6,7,37)          -179.3486         estimate D2E/DX2                !
 ! D23   D(8,6,7,2)           -177.694          estimate D2E/DX2                !
 ! D24   D(8,6,7,37)             2.8706         estimate D2E/DX2                !
 ! D25   D(5,6,8,9)             48.8184         estimate D2E/DX2                !
 ! D26   D(5,6,8,38)           173.1155         estimate D2E/DX2                !
 ! D27   D(5,6,8,39)           -70.6316         estimate D2E/DX2                !
 ! D28   D(7,6,8,9)           -133.4444         estimate D2E/DX2                !
 ! D29   D(7,6,8,38)            -9.1473         estimate D2E/DX2                !
 ! D30   D(7,6,8,39)           107.1056         estimate D2E/DX2                !
 ! D31   D(6,8,9,10)            78.7441         estimate D2E/DX2                !
 ! D32   D(6,8,9,22)          -103.7615         estimate D2E/DX2                !
 ! D33   D(38,8,9,10)          -45.1384         estimate D2E/DX2                !
 ! D34   D(38,8,9,22)          132.356          estimate D2E/DX2                !
 ! D35   D(39,8,9,10)         -160.57           estimate D2E/DX2                !
 ! D36   D(39,8,9,22)           16.9244         estimate D2E/DX2                !
 ! D37   D(8,9,10,11)         -178.2999         estimate D2E/DX2                !
 ! D38   D(8,9,10,12)            2.8013         estimate D2E/DX2                !
 ! D39   D(22,9,10,11)           4.2233         estimate D2E/DX2                !
 ! D40   D(22,9,10,12)        -174.6755         estimate D2E/DX2                !
 ! D41   D(8,9,22,23)          -61.3316         estimate D2E/DX2                !
 ! D42   D(8,9,22,27)          118.2267         estimate D2E/DX2                !
 ! D43   D(10,9,22,23)         116.2656         estimate D2E/DX2                !
 ! D44   D(10,9,22,27)         -64.1762         estimate D2E/DX2                !
 ! D45   D(9,10,12,13)          77.6587         estimate D2E/DX2                !
 ! D46   D(9,10,12,40)        -162.8907         estimate D2E/DX2                !
 ! D47   D(9,10,12,41)         -43.6296         estimate D2E/DX2                !
 ! D48   D(11,10,12,13)       -101.2924         estimate D2E/DX2                !
 ! D49   D(11,10,12,40)         18.1583         estimate D2E/DX2                !
 ! D50   D(11,10,12,41)        137.4193         estimate D2E/DX2                !
 ! D51   D(10,12,13,14)       -117.1684         estimate D2E/DX2                !
 ! D52   D(10,12,13,21)         68.1826         estimate D2E/DX2                !
 ! D53   D(40,12,13,14)        125.4348         estimate D2E/DX2                !
 ! D54   D(40,12,13,21)        -49.2142         estimate D2E/DX2                !
 ! D55   D(41,12,13,14)          7.2787         estimate D2E/DX2                !
 ! D56   D(41,12,13,21)       -167.3703         estimate D2E/DX2                !
 ! D57   D(12,13,14,15)       -176.2091         estimate D2E/DX2                !
 ! D58   D(21,13,14,15)         -0.5501         estimate D2E/DX2                !
 ! D59   D(12,13,21,16)        175.4656         estimate D2E/DX2                !
 ! D60   D(12,13,21,20)         -4.5243         estimate D2E/DX2                !
 ! D61   D(14,13,21,16)          0.3487         estimate D2E/DX2                !
 ! D62   D(14,13,21,20)       -179.6413         estimate D2E/DX2                !
 ! D63   D(13,14,15,16)          0.5056         estimate D2E/DX2                !
 ! D64   D(14,15,16,17)        179.3933         estimate D2E/DX2                !
 ! D65   D(14,15,16,21)         -0.2833         estimate D2E/DX2                !
 ! D66   D(15,16,17,18)       -179.6114         estimate D2E/DX2                !
 ! D67   D(15,16,17,42)          0.276          estimate D2E/DX2                !
 ! D68   D(21,16,17,18)          0.028          estimate D2E/DX2                !
 ! D69   D(21,16,17,42)        179.9155         estimate D2E/DX2                !
 ! D70   D(15,16,21,13)         -0.0526         estimate D2E/DX2                !
 ! D71   D(15,16,21,20)        179.9389         estimate D2E/DX2                !
 ! D72   D(17,16,21,13)       -179.765          estimate D2E/DX2                !
 ! D73   D(17,16,21,20)          0.2264         estimate D2E/DX2                !
 ! D74   D(16,17,18,19)         -0.175          estimate D2E/DX2                !
 ! D75   D(16,17,18,43)        179.9523         estimate D2E/DX2                !
 ! D76   D(42,17,18,19)        179.9396         estimate D2E/DX2                !
 ! D77   D(42,17,18,43)          0.0669         estimate D2E/DX2                !
 ! D78   D(17,18,19,20)          0.0772         estimate D2E/DX2                !
 ! D79   D(17,18,19,44)       -179.6475         estimate D2E/DX2                !
 ! D80   D(43,18,19,20)        179.9513         estimate D2E/DX2                !
 ! D81   D(43,18,19,44)          0.2265         estimate D2E/DX2                !
 ! D82   D(18,19,20,21)          0.1669         estimate D2E/DX2                !
 ! D83   D(18,19,20,45)       -178.6999         estimate D2E/DX2                !
 ! D84   D(44,19,20,21)        179.8906         estimate D2E/DX2                !
 ! D85   D(44,19,20,45)          1.0238         estimate D2E/DX2                !
 ! D86   D(19,20,21,13)        179.6733         estimate D2E/DX2                !
 ! D87   D(19,20,21,16)         -0.3152         estimate D2E/DX2                !
 ! D88   D(45,20,21,13)         -1.4565         estimate D2E/DX2                !
 ! D89   D(45,20,21,16)        178.555          estimate D2E/DX2                !
 ! D90   D(9,22,23,24)         178.4918         estimate D2E/DX2                !
 ! D91   D(9,22,23,46)          -2.7564         estimate D2E/DX2                !
 ! D92   D(27,22,23,24)         -1.0735         estimate D2E/DX2                !
 ! D93   D(27,22,23,46)        177.6783         estimate D2E/DX2                !
 ! D94   D(9,22,27,26)        -178.826          estimate D2E/DX2                !
 ! D95   D(9,22,27,49)           2.213          estimate D2E/DX2                !
 ! D96   D(23,22,27,26)          0.7332         estimate D2E/DX2                !
 ! D97   D(23,22,27,49)       -178.2277         estimate D2E/DX2                !
 ! D98   D(22,23,24,25)          0.6315         estimate D2E/DX2                !
 ! D99   D(22,23,24,47)        178.6812         estimate D2E/DX2                !
 ! D100  D(46,23,24,25)       -178.1199         estimate D2E/DX2                !
 ! D101  D(46,23,24,47)         -0.0703         estimate D2E/DX2                !
 ! D102  D(23,24,25,26)          0.1548         estimate D2E/DX2                !
 ! D103  D(23,24,25,28)        179.8134         estimate D2E/DX2                !
 ! D104  D(47,24,25,26)       -177.8844         estimate D2E/DX2                !
 ! D105  D(47,24,25,28)          1.7742         estimate D2E/DX2                !
 ! D106  D(24,25,26,27)         -0.4974         estimate D2E/DX2                !
 ! D107  D(24,25,26,48)       -179.3301         estimate D2E/DX2                !
 ! D108  D(28,25,26,27)        179.844          estimate D2E/DX2                !
 ! D109  D(28,25,26,48)          1.0114         estimate D2E/DX2                !
 ! D110  D(24,25,28,29)         44.3135         estimate D2E/DX2                !
 ! D111  D(24,25,28,33)       -135.5964         estimate D2E/DX2                !
 ! D112  D(26,25,28,29)       -136.0373         estimate D2E/DX2                !
 ! D113  D(26,25,28,33)         44.0527         estimate D2E/DX2                !
 ! D114  D(25,26,27,22)          0.055          estimate D2E/DX2                !
 ! D115  D(25,26,27,49)        179.0134         estimate D2E/DX2                !
 ! D116  D(48,26,27,22)        178.8945         estimate D2E/DX2                !
 ! D117  D(48,26,27,49)         -2.1471         estimate D2E/DX2                !
 ! D118  D(25,28,29,30)        179.9753         estimate D2E/DX2                !
 ! D119  D(25,28,29,50)          1.1162         estimate D2E/DX2                !
 ! D120  D(33,28,29,30)         -0.1114         estimate D2E/DX2                !
 ! D121  D(33,28,29,50)       -178.9705         estimate D2E/DX2                !
 ! D122  D(25,28,33,32)       -179.7869         estimate D2E/DX2                !
 ! D123  D(25,28,33,53)          1.3238         estimate D2E/DX2                !
 ! D124  D(29,28,33,32)          0.2991         estimate D2E/DX2                !
 ! D125  D(29,28,33,53)       -178.5903         estimate D2E/DX2                !
 ! D126  D(28,29,30,31)         -0.1581         estimate D2E/DX2                !
 ! D127  D(28,29,30,51)       -179.6255         estimate D2E/DX2                !
 ! D128  D(50,29,30,31)        178.6998         estimate D2E/DX2                !
 ! D129  D(50,29,30,51)         -0.7676         estimate D2E/DX2                !
 ! D130  D(29,30,31,32)          0.2737         estimate D2E/DX2                !
 ! D131  D(29,30,31,52)       -179.7217         estimate D2E/DX2                !
 ! D132  D(51,30,31,32)        179.744          estimate D2E/DX2                !
 ! D133  D(51,30,31,52)         -0.2514         estimate D2E/DX2                !
 ! D134  D(30,31,32,33)         -0.0987         estimate D2E/DX2                !
 ! D135  D(52,31,32,33)        179.8969         estimate D2E/DX2                !
 ! D136  D(31,32,33,28)         -0.197          estimate D2E/DX2                !
 ! D137  D(31,32,33,53)        178.7398         estimate D2E/DX2                !
 --------------------------------------------------------------------------------
 Trust Radius=3.00D-01 FncErr=1.00D-07 GrdErr=1.00D-06
 Number of steps in this run=    297 maximum allowed number of steps=    318.
 GradGradGradGradGradGradGradGradGradGradGradGradGradGradGradGradGradGrad

 Leave Link  103 at Tue Sep  6 15:53:53 2022, MaxMem=  209715200 cpu:       0.1
 (Enter /opt/gaussian/l202.exe)
 Stoichiometry    C26H19Cl2N5O
 Framework group  C1[X(C26H19Cl2N5O)]
 Deg. of freedom   153
 Full point group                 C1      NOp   1
 Largest Abelian subgroup         C1      NOp   1
 Largest concise Abelian subgroup C1      NOp   1
                         Standard orientation:                         
 ---------------------------------------------------------------------
 Center     Atomic      Atomic             Coordinates (Angstroms)
 Number     Number       Type             X           Y           Z
 ---------------------------------------------------------------------
      1         17           0       -4.975140    3.888219   -0.906210
      2          6           0       -3.266340    3.462929   -0.515970
      3          6           0       -2.465360    4.413919    0.078390
      4          6           0       -1.162090    4.058649    0.368850
      5          6           0       -0.660290    2.808309    0.082520
      6          6           0       -1.486650    1.860299   -0.515780
      7          6           0       -2.802810    2.196339   -0.815100
      8          6           0       -0.962819    0.485249   -0.892890
      9          7           0       -0.213209   -0.205831    0.170600
     10          6           0       -0.821779   -0.843631    1.211550
     11          8           0       -0.193149   -1.392081    2.111540
     12          6           0       -2.342829   -0.908201    1.261850
     13          7           0       -2.869319   -1.907681    0.360300
     14          7           0       -3.676729   -1.546791   -0.679750
     15          7           0       -4.080019   -2.586391   -1.285130
     16          6           0       -3.557889   -3.703991   -0.655660
     17          6           0       -3.716889   -5.062111   -0.934970
     18          6           0       -3.068149   -5.949651   -0.113310
     19          6           0       -2.271649   -5.500051    0.965460
     20          6           0       -2.106069   -4.165431    1.248740
     21          6           0       -2.775999   -3.269871    0.408050
     22          6           0        1.221311   -0.250091    0.071210
     23          6           0        1.814581   -0.878951   -1.013820
     24          6           0        3.193901   -0.902681   -1.139550
     25          6           0        4.010501   -0.310551   -0.178200
     26          6           0        3.401161    0.303519    0.915280
     27          6           0        2.022561    0.335289    1.040680
     28          6           0        5.488551   -0.339540   -0.310800
     29          6           0        6.122871   -0.070620   -1.521880
     30          6           0        7.505971   -0.109210   -1.596750
     31          6           0        8.226311   -0.413780   -0.453640
     32          7           0        7.629451   -0.674380    0.707700
     33          6           0        6.302401   -0.641100    0.779810
     34         17           0       -0.084720    5.281509    1.145150
     35          1           0       -2.837850    5.389309    0.307340
     36          1           0        0.357510    2.576019    0.315900
     37          1           0       -3.458430    1.478129   -1.266140
     38          1           0       -1.782909   -0.129041   -1.226580
     39          1           0       -0.288830    0.586179   -1.730130
     40          1           0       -2.598219   -1.167321    2.277690
     41          1           0       -2.810869    0.028269    1.012370
     42          1           0       -4.323799   -5.382271   -1.757530
     43          1           0       -3.159309   -7.003711   -0.285780
     44          1           0       -1.777839   -6.228251    1.578870
     45          1           0       -1.485959   -3.827551    2.053800
     46          1           0        1.202761   -1.366291   -1.748290
     47          1           0        3.635681   -1.411931   -1.973910
     48          1           0        4.004990    0.776479    1.664740
     49          1           0        1.572310    0.797599    1.895390
     50          1           0        5.542721    0.183190   -2.387890
     51          1           0        8.013261    0.100290   -2.517030
     52          1           0        9.295921   -0.451420   -0.460180
     53          1           0        5.875421   -0.879080    1.732590
 ---------------------------------------------------------------------
 Rotational constants (GHZ):      0.1056772      0.0681643      0.0448712
 Leave Link  202 at Tue Sep  6 15:53:53 2022, MaxMem=  209715200 cpu:       0.0
 (Enter /opt/gaussian/l301.exe)
 Standard basis: CC-pVDZ (5D, 7F)
 Ernie: Thresh=  0.10000D-02 Tol=  0.10000D-05 Strict=F.
 Ernie:  84 primitive shells out of 899 were deleted.
 There are   579 symmetry adapted basis functions of A   symmetry.
 Integral buffers will be    131072 words long.
 Raffenetti 2 integral format.
 Two-electron integral symmetry is turned on.
   579 basis functions,  1331 primitive gaussians,   613 cartesian basis functions
   126 alpha electrons      126 beta electrons
       nuclear repulsion energy      3519.0048999986 Hartrees.
 IExCor=  402 DFT=T Ex+Corr=B3LYP ExCW=0 ScaHFX=  0.200000
 ScaDFX=  0.800000  0.720000  1.000000  0.810000 ScalE2=  1.000000  1.000000
 IRadAn=      0 IRanWt=     -1 IRanGd=            0 ICorTp=0
 NAtoms=   53 NActive=   53 NUniq=   53 SFac= 1.00D+00 NAtFMM=   60 NAOKFM=F Big=F
 Leave Link  301 at Tue Sep  6 15:53:53 2022, MaxMem=  209715200 cpu:       0.3
 (Enter /opt/gaussian/l302.exe)
 NPDir=0 NMtPBC=     1 NCelOv=     1 NCel=       1 NClECP=     1 NCelD=      1
         NCelK=      1 NCelE2=     1 NClLst=     1 CellRange=     0.0.
 One-electron integrals computed using PRISM.
 NBasis=   579 RedAO= T  NBF=   579
 NBsUse=   579 1.00D-06 NBFU=   579
 Precomputing XC quadrature grid using
 IXCGrd= 2 IRadAn=           0 IRanWt=          -1 IRanGd=           0 AccXCQ= 0.00D+00.
 NRdTot=    3411 NPtTot=      435714 NUsed=      460293 NTot=      460325
 NSgBfM=   588   588   588   590   590 NAtAll=    53    53.
 Leave Link  302 at Tue Sep  6 15:53:55 2022, MaxMem=  209715200 cpu:       9.5
 (Enter /opt/gaussian/l303.exe)
 DipDrv:  MaxL=1.
 Leave Link  303 at Tue Sep  6 15:53:55 2022, MaxMem=  209715200 cpu:       1.3
 (Enter /opt/gaussian/l401.exe)
 Harris functional with IExCor=  402 diagonalized for initial guess.
 ExpMin= 1.22D-01 ExpMax= 1.28D+05 ExpMxC= 1.24D+03 IAcc=2 IRadAn=         4 AccDes= 0.00D+00
 HarFok:  IExCor=  402 AccDes= 0.00D+00 IRadAn=         4 IDoV= 1
 ScaDFX=  1.000000  1.000000  1.000000  1.000000
 FoFCou: FMM=F IPFlag=           0 FMFlag=      100000 FMFlg1=           0
         NFxFlg=           0 DoJE=T BraDBF=F KetDBF=T FulRan=T
         Omega=  0.000000  0.000000  1.000000  0.000000  0.000000 ICntrl=     500 IOpCl=  0
         NMat0=    1 NMatS0=    1 NMatT0=    0 NMatD0=    1 NMtDS0=    0 NMtDT0=    0
         I1Cent=           4 NGrid=           0.
 Petite list used in FoFCou.
 Harris En= -2271.30664254487    
 Initial guess orbital symmetries:
       Occupied  (A) (A) (A) (A) (A) (A) (A) (A) (A) (A) (A) (A)
                 (A) (A) (A) (A) (A) (A) (A) (A) (A) (A) (A) (A)
                 (A) (A) (A) (A) (A) (A) (A) (A) (A) (A) (A) (A)
                 (A) (A) (A) (A) (A) (A) (A) (A) (A) (A) (A) (A)
                 (A) (A) (A) (A) (A) (A) (A) (A) (A) (A) (A) (A)
                 (A) (A) (A) (A) (A) (A) (A) (A) (A) (A) (A) (A)
                 (A) (A) (A) (A) (A) (A) (A) (A) (A) (A) (A) (A)
                 (A) (A) (A) (A) (A) (A) (A) (A) (A) (A) (A) (A)
                 (A) (A) (A) (A) (A) (A) (A) (A) (A) (A) (A) (A)
                 (A) (A) (A) (A) (A) (A) (A) (A) (A) (A) (A) (A)
                 (A) (A) (A) (A) (A) (A)
       Virtual   (A) (A) (A) (A) (A) (A) (A) (A) (A) (A) (A) (A)
                 (A) (A) (A) (A) (A) (A) (A) (A) (A) (A) (A) (A)
                 (A) (A) (A) (A) (A) (A) (A) (A) (A) (A) (A) (A)
                 (A) (A) (A) (A) (A) (A) (A) (A) (A) (A) (A) (A)
                 (A) (A) (A) (A) (A) (A) (A) (A) (A) (A) (A) (A)
                 (A) (A) (A) (A) (A) (A) (A) (A) (A) (A) (A) (A)
                 (A) (A) (A) (A) (A) (A) (A) (A) (A) (A) (A) (A)
                 (A) (A) (A) (A) (A) (A) (A) (A) (A) (A) (A) (A)
                 (A) (A) (A) (A) (A) (A) (A) (A) (A) (A) (A) (A)
                 (A) (A) (A) (A) (A) (A) (A) (A) (A) (A) (A) (A)
                 (A) (A) (A) (A) (A) (A) (A) (A) (A) (A) (A) (A)
                 (A) (A) (A) (A) (A) (A) (A) (A) (A) (A) (A) (A)
                 (A) (A) (A) (A) (A) (A) (A) (A) (A) (A) (A) (A)
                 (A) (A) (A) (A) (A) (A) (A) (A) (A) (A) (A) (A)
                 (A) (A) (A) (A) (A) (A) (A) (A) (A) (A) (A) (A)
                 (A) (A) (A) (A) (A) (A) (A) (A) (A) (A) (A) (A)
                 (A) (A) (A) (A) (A) (A) (A) (A) (A) (A) (A) (A)
                 (A) (A) (A) (A) (A) (A) (A) (A) (A) (A) (A) (A)
                 (A) (A) (A) (A) (A) (A) (A) (A) (A) (A) (A) (A)
                 (A) (A) (A) (A) (A) (A) (A) (A) (A) (A) (A) (A)
                 (A) (A) (A) (A) (A) (A) (A) (A) (A) (A) (A) (A)
                 (A) (A) (A) (A) (A) (A) (A) (A) (A) (A) (A) (A)
                 (A) (A) (A) (A) (A) (A) (A) (A) (A) (A) (A) (A)
                 (A) (A) (A) (A) (A) (A) (A) (A) (A) (A) (A) (A)
                 (A) (A) (A) (A) (A) (A) (A) (A) (A) (A) (A) (A)
                 (A) (A) (A) (A) (A) (A) (A) (A) (A) (A) (A) (A)
                 (A) (A) (A) (A) (A) (A) (A) (A) (A) (A) (A) (A)
                 (A) (A) (A) (A) (A) (A) (A) (A) (A) (A) (A) (A)
                 (A) (A) (A) (A) (A) (A) (A) (A) (A) (A) (A) (A)
                 (A) (A) (A) (A) (A) (A) (A) (A) (A) (A) (A) (A)
                 (A) (A) (A) (A) (A) (A) (A) (A) (A) (A) (A) (A)
                 (A) (A) (A) (A) (A) (A) (A) (A) (A) (A) (A) (A)
                 (A) (A) (A) (A) (A) (A) (A) (A) (A) (A) (A) (A)
                 (A) (A) (A) (A) (A) (A) (A) (A) (A) (A) (A) (A)
                 (A) (A) (A) (A) (A) (A) (A) (A) (A) (A) (A) (A)
                 (A) (A) (A) (A) (A) (A) (A) (A) (A) (A) (A) (A)
                 (A) (A) (A) (A) (A) (A) (A) (A) (A) (A) (A) (A)
                 (A) (A) (A) (A) (A) (A) (A) (A) (A)
 The electronic state of the initial guess is 1-A.
 Leave Link  401 at Tue Sep  6 15:53:59 2022, MaxMem=  209715200 cpu:      28.6
 (Enter /opt/gaussian/l502.exe)
 Closed shell SCF:
 Requested convergence on RMS density matrix=1.00D-08 within 128 cycles.
 Requested convergence on MAX density matrix=1.00D-06.
 Requested convergence on             energy=1.00D-06.
 No special actions if energy rises.
 Using DIIS extrapolation, IDIIS=  1040.
 Integral symmetry usage will be decided dynamically.
       459803 words used for storage of precomputed grid.
 IEnd=     1614788 IEndB=     1614788 NGot=   209715200 MDV=   208493435
 LenX=   208493435 LenY=   208117053
 Fock matrices will be formed incrementally for  20 cycles.
 Integral accuracy reduced to 1.0D-05 until final iterations.

 Cycle   1  Pass 0  IDiag  1:
 FoFCou: FMM=F IPFlag=           0 FMFlag=      100000 FMFlg1=           0
         NFxFlg=           0 DoJE=F BraDBF=F KetDBF=F FulRan=T
         Omega=  0.000000  0.000000  1.000000  0.000000  0.000000 ICntrl=       0 IOpCl=  0
         NMat0=    1 NMatS0=    1 NMatT0=    0 NMatD0=    1 NMtDS0=    0 NMtDT0=    0
         I1Cent=           0 NGrid=           0.
 Symmetry not used in FoFCou.
 E= -2271.04204961056    
 DIIS: error= 1.95D-02 at cycle   1 NSaved=   1.
 NSaved= 1 IEnMin= 1 EnMin= -2271.04204961056     IErMin= 1 ErrMin= 1.95D-02
 ErrMax= 1.95D-02 EMaxC= 1.00D-01 BMatC= 5.89D-01 BMatP= 5.89D-01
 IDIUse=3 WtCom= 8.05D-01 WtEn= 1.95D-01
 Coeff-Com:  0.100D+01
 Coeff-En:   0.100D+01
 Coeff:      0.100D+01
 Gap=     0.327 Goal=   None    Shift=    0.000
 GapD=    0.327 DampG=1.000 DampE=0.500 DampFc=0.5000 IDamp=-1.
 Damping current iteration by 5.00D-01
 RMSDP=3.83D-03 MaxDP=2.09D-01              OVMax= 3.14D-01

 Cycle   2  Pass 0  IDiag  1:
 RMSU=  1.33D-03    CP:  9.77D-01
 E= -2271.20744070668     Delta-E=       -0.165391096126 Rises=F Damp=T
 DIIS: error= 9.23D-03 at cycle   2 NSaved=   2.
 NSaved= 2 IEnMin= 2 EnMin= -2271.20744070668     IErMin= 2 ErrMin= 9.23D-03
 ErrMax= 9.23D-03 EMaxC= 1.00D-01 BMatC= 1.19D-01 BMatP= 5.89D-01
 IDIUse=3 WtCom= 9.08D-01 WtEn= 9.23D-02
 Coeff-Com:  0.234D+00 0.766D+00
 Coeff-En:   0.348D+00 0.652D+00
 Coeff:      0.245D+00 0.755D+00
 Gap=     0.257 Goal=   None    Shift=    0.000
 RMSDP=1.34D-03 MaxDP=7.61D-02 DE=-1.65D-01 OVMax= 3.33D-01

 Cycle   3  Pass 0  IDiag  1:
 RMSU=  9.20D-04    CP:  9.63D-01  8.64D-01
 E= -2271.55884303886     Delta-E=       -0.351402332177 Rises=F Damp=F
 DIIS: error= 1.26D-02 at cycle   3 NSaved=   3.
 NSaved= 3 IEnMin= 3 EnMin= -2271.55884303886     IErMin= 2 ErrMin= 9.23D-03
 ErrMax= 1.26D-02 EMaxC= 1.00D-01 BMatC= 1.28D-01 BMatP= 1.19D-01
 IDIUse=3 WtCom= 8.74D-01 WtEn= 1.26D-01
 Coeff-Com:  0.595D-01 0.498D+00 0.443D+00
 Coeff-En:   0.000D+00 0.000D+00 0.100D+01
 Coeff:      0.520D-01 0.435D+00 0.513D+00
 Gap=     0.200 Goal=   None    Shift=    0.000
 RMSDP=8.76D-04 MaxDP=6.95D-02 DE=-3.51D-01 OVMax= 9.17D-02

 Cycle   4  Pass 0  IDiag  1:
 RMSU=  4.33D-04    CP:  9.66D-01  9.60D-01  5.40D-01
 E= -2271.64978863838     Delta-E=       -0.090945599516 Rises=F Damp=F
 DIIS: error= 5.54D-03 at cycle   4 NSaved=   4.
 NSaved= 4 IEnMin= 4 EnMin= -2271.64978863838     IErMin= 4 ErrMin= 5.54D-03
 ErrMax= 5.54D-03 EMaxC= 1.00D-01 BMatC= 3.13D-02 BMatP= 1.19D-01
 IDIUse=3 WtCom= 9.45D-01 WtEn= 5.54D-02
 Coeff-Com:  0.142D-01 0.129D+00 0.339D+00 0.518D+00
 Coeff-En:   0.000D+00 0.000D+00 0.238D+00 0.762D+00
 Coeff:      0.134D-01 0.122D+00 0.333D+00 0.532D+00
 Gap=     0.201 Goal=   None    Shift=    0.000
 RMSDP=3.60D-04 MaxDP=2.41D-02 DE=-9.09D-02 OVMax= 3.98D-02

 Cycle   5  Pass 0  IDiag  1:
 RMSU=  1.35D-04    CP:  9.65D-01  9.23D-01  6.64D-01  5.94D-01
 E= -2271.67637732698     Delta-E=       -0.026588688598 Rises=F Damp=F
 DIIS: error= 1.14D-03 at cycle   5 NSaved=   5.
 NSaved= 5 IEnMin= 5 EnMin= -2271.67637732698     IErMin= 5 ErrMin= 1.14D-03
 ErrMax= 1.14D-03 EMaxC= 1.00D-01 BMatC= 1.82D-03 BMatP= 3.13D-02
 IDIUse=3 WtCom= 9.89D-01 WtEn= 1.14D-02
 Coeff-Com:  0.245D-02 0.207D-01 0.145D+00 0.315D+00 0.518D+00
 Coeff-En:   0.000D+00 0.000D+00 0.000D+00 0.123D-02 0.999D+00
 Coeff:      0.242D-02 0.204D-01 0.143D+00 0.311D+00 0.523D+00
 Gap=     0.192 Goal=   None    Shift=    0.000
 RMSDP=1.11D-04 MaxDP=6.09D-03 DE=-2.66D-02 OVMax= 1.21D-02

 Cycle   6  Pass 0  IDiag  1:
 RMSU=  4.03D-05    CP:  9.65D-01  9.27D-01  6.69D-01  6.50D-01  5.42D-01
 E= -2271.67811777927     Delta-E=       -0.001740452292 Rises=F Damp=F
 DIIS: error= 4.16D-04 at cycle   6 NSaved=   6.
 NSaved= 6 IEnMin= 6 EnMin= -2271.67811777927     IErMin= 6 ErrMin= 4.16D-04
 ErrMax= 4.16D-04 EMaxC= 1.00D-01 BMatC= 2.38D-04 BMatP= 1.82D-03
 IDIUse=3 WtCom= 9.96D-01 WtEn= 4.16D-03
 Coeff-Com:  0.216D-03-0.387D-02 0.438D-01 0.119D+00 0.318D+00 0.522D+00
 Coeff-En:   0.000D+00 0.000D+00 0.000D+00 0.000D+00 0.102D+00 0.898D+00
 Coeff:      0.215D-03-0.386D-02 0.436D-01 0.119D+00 0.317D+00 0.524D+00
 Gap=     0.191 Goal=   None    Shift=    0.000
 RMSDP=3.64D-05 MaxDP=1.95D-03 DE=-1.74D-03 OVMax= 4.36D-03

 Cycle   7  Pass 0  IDiag  1:
 RMSU=  1.53D-05    CP:  9.65D-01  9.27D-01  6.71D-01  6.53D-01  6.11D-01
                    CP:  5.44D-01
 E= -2271.67835835650     Delta-E=       -0.000240577231 Rises=F Damp=F
 DIIS: error= 1.34D-04 at cycle   7 NSaved=   7.
 NSaved= 7 IEnMin= 7 EnMin= -2271.67835835650     IErMin= 7 ErrMin= 1.34D-04
 ErrMax= 1.34D-04 EMaxC= 1.00D-01 BMatC= 2.63D-05 BMatP= 2.38D-04
 IDIUse=3 WtCom= 9.99D-01 WtEn= 1.34D-03
 Coeff-Com:  0.811D-04-0.445D-02 0.108D-01 0.363D-01 0.133D+00 0.315D+00
 Coeff-Com:  0.509D+00
 Coeff-En:   0.000D+00 0.000D+00 0.000D+00 0.000D+00 0.000D+00 0.530D-01
 Coeff-En:   0.947D+00
 Coeff:      0.810D-04-0.445D-02 0.108D-01 0.362D-01 0.133D+00 0.315D+00
 Coeff:      0.510D+00
 Gap=     0.191 Goal=   None    Shift=    0.000
 RMSDP=1.14D-05 MaxDP=5.19D-04 DE=-2.41D-04 OVMax= 1.05D-03

 Cycle   8  Pass 0  IDiag  1:
 RMSU=  3.73D-06    CP:  9.65D-01  9.27D-01  6.71D-01  6.52D-01  6.18D-01
                    CP:  6.29D-01  5.93D-01
 E= -2271.67838869964     Delta-E=       -0.000030343142 Rises=F Damp=F
 DIIS: error= 4.99D-05 at cycle   8 NSaved=   8.
 NSaved= 8 IEnMin= 8 EnMin= -2271.67838869964     IErMin= 8 ErrMin= 4.99D-05
 ErrMax= 4.99D-05 EMaxC= 1.00D-01 BMatC= 1.68D-06 BMatP= 2.63D-05
 IDIUse=1 WtCom= 1.00D+00 WtEn= 0.00D+00
 Coeff-Com:  0.136D-03-0.217D-02 0.275D-02 0.104D-01 0.476D-01 0.128D+00
 Coeff-Com:  0.272D+00 0.542D+00
 Coeff:      0.136D-03-0.217D-02 0.275D-02 0.104D-01 0.476D-01 0.128D+00
 Coeff:      0.272D+00 0.542D+00
 Gap=     0.191 Goal=   None    Shift=    0.000
 RMSDP=3.19D-06 MaxDP=1.67D-04 DE=-3.03D-05 OVMax= 3.71D-04

 Initial convergence to 1.0D-05 achieved.  Increase integral accuracy.
 Cycle   9  Pass 1  IDiag  1:
 E= -2271.67833571181     Delta-E=        0.000052987830 Rises=F Damp=F
 DIIS: error= 2.12D-04 at cycle   1 NSaved=   1.
 NSaved= 1 IEnMin= 1 EnMin= -2271.67833571181     IErMin= 1 ErrMin= 2.12D-04
 ErrMax= 2.12D-04 EMaxC= 1.00D-01 BMatC= 1.59D-05 BMatP= 1.59D-05
 IDIUse=3 WtCom= 9.98D-01 WtEn= 2.12D-03
 Coeff-Com:  0.100D+01
 Coeff-En:   0.100D+01
 Coeff:      0.100D+01
 Gap=     0.191 Goal=   None    Shift=    0.000
 RMSDP=3.19D-06 MaxDP=1.67D-04 DE= 5.30D-05 OVMax= 6.22D-04

 Cycle  10  Pass 1  IDiag  1:
 RMSU=  1.12D-04    CP:  1.00D+00
 E= -2271.67834991538     Delta-E=       -0.000014203571 Rises=F Damp=F
 DIIS: error= 5.43D-05 at cycle   2 NSaved=   2.
 NSaved= 2 IEnMin= 2 EnMin= -2271.67834991538     IErMin= 2 ErrMin= 5.43D-05
 ErrMax= 5.43D-05 EMaxC= 1.00D-01 BMatC= 1.45D-06 BMatP= 1.59D-05
 IDIUse=1 WtCom= 1.00D+00 WtEn= 0.00D+00
 Coeff-Com:  0.108D+00 0.892D+00
 Coeff:      0.108D+00 0.892D+00
 Gap=     0.191 Goal=   None    Shift=    0.000
 RMSDP=6.39D-06 MaxDP=2.89D-04 DE=-1.42D-05 OVMax= 7.21D-04

 Cycle  11  Pass 1  IDiag  1:
 RMSU=  4.37D-06    CP:  1.00D+00  1.01D+00
 E= -2271.67834641906     Delta-E=        0.000003496323 Rises=F Damp=F
 DIIS: error= 1.05D-04 at cycle   3 NSaved=   3.
 NSaved= 3 IEnMin= 2 EnMin= -2271.67834991538     IErMin= 2 ErrMin= 5.43D-05
 ErrMax= 1.05D-04 EMaxC= 1.00D-01 BMatC= 4.78D-06 BMatP= 1.45D-06
 IDIUse=3 WtCom= 4.94D-01 WtEn= 5.06D-01
 Coeff-Com: -0.422D-02 0.647D+00 0.357D+00
 Coeff-En:   0.000D+00 0.712D+00 0.288D+00
 Coeff:     -0.209D-02 0.680D+00 0.322D+00
 Gap=     0.191 Goal=   None    Shift=    0.000
 RMSDP=3.57D-06 MaxDP=1.74D-04 DE= 3.50D-06 OVMax= 4.34D-04

 Cycle  12  Pass 1  IDiag  1:
 RMSU=  4.23D-07    CP:  1.00D+00  1.01D+00  4.33D-01
 E= -2271.67835138184     Delta-E=       -0.000004962780 Rises=F Damp=F
 DIIS: error= 7.85D-06 at cycle   4 NSaved=   4.
 NSaved= 4 IEnMin= 4 EnMin= -2271.67835138184     IErMin= 4 ErrMin= 7.85D-06
 ErrMax= 7.85D-06 EMaxC= 1.00D-01 BMatC= 7.12D-08 BMatP= 1.45D-06
 IDIUse=1 WtCom= 1.00D+00 WtEn= 0.00D+00
 Coeff-Com: -0.377D-02 0.395D+00 0.174D+00 0.434D+00
 Coeff:     -0.377D-02 0.395D+00 0.174D+00 0.434D+00
 Gap=     0.191 Goal=   None    Shift=    0.000
 RMSDP=4.95D-07 MaxDP=3.84D-05 DE=-4.96D-06 OVMax= 6.63D-05

 Cycle  13  Pass 1  IDiag  1:
 RMSU=  1.68D-07    CP:  1.00D+00  1.01D+00  3.67D-01  7.29D-01
 E= -2271.67835145756     Delta-E=       -0.000000075718 Rises=F Damp=F
 DIIS: error= 1.08D-06 at cycle   5 NSaved=   5.
 NSaved= 5 IEnMin= 5 EnMin= -2271.67835145756     IErMin= 5 ErrMin= 1.08D-06
 ErrMax= 1.08D-06 EMaxC= 1.00D-01 BMatC= 1.21D-09 BMatP= 7.12D-08
 IDIUse=1 WtCom= 1.00D+00 WtEn= 0.00D+00
 Coeff-Com: -0.207D-02 0.207D+00 0.877D-01 0.262D+00 0.446D+00
 Coeff:     -0.207D-02 0.207D+00 0.877D-01 0.262D+00 0.446D+00
 Gap=     0.191 Goal=   None    Shift=    0.000
 RMSDP=7.84D-08 MaxDP=4.65D-06 DE=-7.57D-08 OVMax= 1.31D-05

 Cycle  14  Pass 1  IDiag  1:
 RMSU=  4.83D-08    CP:  1.00D+00  1.01D+00  3.69D-01  7.49D-01  8.51D-01
 E= -2271.67835145871     Delta-E=       -0.000000001151 Rises=F Damp=F
 DIIS: error= 2.72D-07 at cycle   6 NSaved=   6.
 NSaved= 6 IEnMin= 6 EnMin= -2271.67835145871     IErMin= 6 ErrMin= 2.72D-07
 ErrMax= 2.72D-07 EMaxC= 1.00D-01 BMatC= 1.34D-10 BMatP= 1.21D-09
 IDIUse=1 WtCom= 1.00D+00 WtEn= 0.00D+00
 Coeff-Com: -0.586D-03 0.559D-01 0.226D-01 0.809D-01 0.267D+00 0.574D+00
 Coeff:     -0.586D-03 0.559D-01 0.226D-01 0.809D-01 0.267D+00 0.574D+00
 Gap=     0.191 Goal=   None    Shift=    0.000
 RMSDP=2.70D-08 MaxDP=1.94D-06 DE=-1.15D-09 OVMax= 3.30D-06

 Cycle  15  Pass 1  IDiag  1:
 RMSU=  1.46D-08    CP:  1.00D+00  1.01D+00  3.68D-01  7.58D-01  8.74D-01
                    CP:  7.78D-01
 E= -2271.67835145880     Delta-E=       -0.000000000096 Rises=F Damp=F
 DIIS: error= 1.67D-07 at cycle   7 NSaved=   7.
 NSaved= 7 IEnMin= 7 EnMin= -2271.67835145880     IErMin= 7 ErrMin= 1.67D-07
 ErrMax= 1.67D-07 EMaxC= 1.00D-01 BMatC= 2.78D-11 BMatP= 1.34D-10
 IDIUse=1 WtCom= 1.00D+00 WtEn= 0.00D+00
 Coeff-Com: -0.719D-04 0.535D-02 0.160D-02 0.130D-01 0.107D+00 0.373D+00
 Coeff-Com:  0.499D+00
 Coeff:     -0.719D-04 0.535D-02 0.160D-02 0.130D-01 0.107D+00 0.373D+00
 Coeff:      0.499D+00
 Gap=     0.191 Goal=   None    Shift=    0.000
 RMSDP=1.28D-08 MaxDP=8.07D-07 DE=-9.64D-11 OVMax= 1.48D-06

 Cycle  16  Pass 1  IDiag  1:
 RMSU=  5.17D-09    CP:  1.00D+00  1.01D+00  3.68D-01  7.59D-01  8.86D-01
                    CP:  8.04D-01  5.18D-01
 E= -2271.67835145874     Delta-E=        0.000000000065 Rises=F Damp=F
 DIIS: error= 6.53D-08 at cycle   8 NSaved=   8.
 NSaved= 8 IEnMin= 7 EnMin= -2271.67835145880     IErMin= 8 ErrMin= 6.53D-08
 ErrMax= 6.53D-08 EMaxC= 1.00D-01 BMatC= 3.43D-12 BMatP= 2.78D-11
 IDIUse=1 WtCom= 1.00D+00 WtEn= 0.00D+00
 Coeff-Com:  0.319D-04-0.401D-02-0.195D-02-0.266D-02 0.324D-01 0.164D+00
 Coeff-Com:  0.319D+00 0.493D+00
 Coeff:      0.319D-04-0.401D-02-0.195D-02-0.266D-02 0.324D-01 0.164D+00
 Coeff:      0.319D+00 0.493D+00
 Gap=     0.191 Goal=   None    Shift=    0.000
 RMSDP=3.84D-09 MaxDP=1.93D-07 DE= 6.55D-11 OVMax= 4.56D-07

 SCF Done:  E(RB3LYP) =  -2271.67835146     A.U. after   16 cycles
             Convg  =    0.3839D-08             -V/T =  2.0042
 KE= 2.262113963551D+03 PE=-1.236497682422D+04 EE= 4.312179609214D+03
 Leave Link  502 at Tue Sep  6 16:08:54 2022, MaxMem=  209715200 cpu:    6841.3
 (Enter /opt/gaussian/l601.exe)
 Copying SCF densities to generalized density rwf, IOpCl= 0 IROHF=0.

 **********************************************************************

            Population analysis using the SCF density.

 **********************************************************************

 Orbital symmetries:
       Occupied  (A) (A) (A) (A) (A) (A) (A) (A) (A) (A) (A) (A)
                 (A) (A) (A) (A) (A) (A) (A) (A) (A) (A) (A) (A)
                 (A) (A) (A) (A) (A) (A) (A) (A) (A) (A) (A) (A)
                 (A) (A) (A) (A) (A) (A) (A) (A) (A) (A) (A) (A)
                 (A) (A) (A) (A) (A) (A) (A) (A) (A) (A) (A) (A)
                 (A) (A) (A) (A) (A) (A) (A) (A) (A) (A) (A) (A)
                 (A) (A) (A) (A) (A) (A) (A) (A) (A) (A) (A) (A)
                 (A) (A) (A) (A) (A) (A) (A) (A) (A) (A) (A) (A)
                 (A) (A) (A) (A) (A) (A) (A) (A) (A) (A) (A) (A)
                 (A) (A) (A) (A) (A) (A) (A) (A) (A) (A) (A) (A)
                 (A) (A) (A) (A) (A) (A)
       Virtual   (A) (A) (A) (A) (A) (A) (A) (A) (A) (A) (A) (A)
                 (A) (A) (A) (A) (A) (A) (A) (A) (A) (A) (A) (A)
                 (A) (A) (A) (A) (A) (A) (A) (A) (A) (A) (A) (A)
                 (A) (A) (A) (A) (A) (A) (A) (A) (A) (A) (A) (A)
                 (A) (A) (A) (A) (A) (A) (A) (A) (A) (A) (A) (A)
                 (A) (A) (A) (A) (A) (A) (A) (A) (A) (A) (A) (A)
                 (A) (A) (A) (A) (A) (A) (A) (A) (A) (A) (A) (A)
                 (A) (A) (A) (A) (A) (A) (A) (A) (A) (A) (A) (A)
                 (A) (A) (A) (A) (A) (A) (A) (A) (A) (A) (A) (A)
                 (A) (A) (A) (A) (A) (A) (A) (A) (A) (A) (A) (A)
                 (A) (A) (A) (A) (A) (A) (A) (A) (A) (A) (A) (A)
                 (A) (A) (A) (A) (A) (A) (A) (A) (A) (A) (A) (A)
                 (A) (A) (A) (A) (A) (A) (A) (A) (A) (A) (A) (A)
                 (A) (A) (A) (A) (A) (A) (A) (A) (A) (A) (A) (A)
                 (A) (A) (A) (A) (A) (A) (A) (A) (A) (A) (A) (A)
                 (A) (A) (A) (A) (A) (A) (A) (A) (A) (A) (A) (A)
                 (A) (A) (A) (A) (A) (A) (A) (A) (A) (A) (A) (A)
                 (A) (A) (A) (A) (A) (A) (A) (A) (A) (A) (A) (A)
                 (A) (A) (A) (A) (A) (A) (A) (A) (A) (A) (A) (A)
                 (A) (A) (A) (A) (A) (A) (A) (A) (A) (A) (A) (A)
                 (A) (A) (A) (A) (A) (A) (A) (A) (A) (A) (A) (A)
                 (A) (A) (A) (A) (A) (A) (A) (A) (A) (A) (A) (A)
                 (A) (A) (A) (A) (A) (A) (A) (A) (A) (A) (A) (A)
                 (A) (A) (A) (A) (A) (A) (A) (A) (A) (A) (A) (A)
                 (A) (A) (A) (A) (A) (A) (A) (A) (A) (A) (A) (A)
                 (A) (A) (A) (A) (A) (A) (A) (A) (A) (A) (A) (A)
                 (A) (A) (A) (A) (A) (A) (A) (A) (A) (A) (A) (A)
                 (A) (A) (A) (A) (A) (A) (A) (A) (A) (A) (A) (A)
                 (A) (A) (A) (A) (A) (A) (A) (A) (A) (A) (A) (A)
                 (A) (A) (A) (A) (A) (A) (A) (A) (A) (A) (A) (A)
                 (A) (A) (A) (A) (A) (A) (A) (A) (A) (A) (A) (A)
                 (A) (A) (A) (A) (A) (A) (A) (A) (A) (A) (A) (A)
                 (A) (A) (A) (A) (A) (A) (A) (A) (A) (A) (A) (A)
                 (A) (A) (A) (A) (A) (A) (A) (A) (A) (A) (A) (A)
                 (A) (A) (A) (A) (A) (A) (A) (A) (A) (A) (A) (A)
                 (A) (A) (A) (A) (A) (A) (A) (A) (A) (A) (A) (A)
                 (A) (A) (A) (A) (A) (A) (A) (A) (A) (A) (A) (A)
                 (A) (A) (A) (A) (A) (A) (A) (A) (A)
 The electronic state is 1-A.
 Alpha  occ. eigenvalues -- -101.55600-101.55443 -19.12539 -14.42341 -14.40404
 Alpha  occ. eigenvalues --  -14.38869 -14.35976 -14.32844 -10.30727 -10.27298
 Alpha  occ. eigenvalues --  -10.27211 -10.25484 -10.25236 -10.24515 -10.23902
 Alpha  occ. eigenvalues --  -10.23218 -10.22538 -10.22477 -10.22310 -10.21898
 Alpha  occ. eigenvalues --  -10.21828 -10.21760 -10.21537 -10.21293 -10.21200
 Alpha  occ. eigenvalues --  -10.20870 -10.20712 -10.20596 -10.20563 -10.20529
 Alpha  occ. eigenvalues --  -10.20387 -10.20381 -10.20299 -10.19938  -9.47339
 Alpha  occ. eigenvalues --   -9.47182  -7.23620  -7.23465  -7.22624  -7.22592
 Alpha  occ. eigenvalues --   -7.22467  -7.22432  -1.11490  -1.05908  -0.96976
 Alpha  occ. eigenvalues --   -0.95250  -0.94047  -0.92181  -0.88377  -0.88027
 Alpha  occ. eigenvalues --   -0.87308  -0.84534  -0.82526  -0.79695  -0.79154
 Alpha  occ. eigenvalues --   -0.78818  -0.78024  -0.77326  -0.76064  -0.75676
 Alpha  occ. eigenvalues --   -0.74663  -0.72617  -0.66667  -0.66080  -0.65127
 Alpha  occ. eigenvalues --   -0.63859  -0.63400  -0.62787  -0.62248  -0.61789
 Alpha  occ. eigenvalues --   -0.60620  -0.58032  -0.55115  -0.54755  -0.54340
 Alpha  occ. eigenvalues --   -0.53960  -0.52729  -0.52005  -0.51006  -0.50185
 Alpha  occ. eigenvalues --   -0.50165  -0.48522  -0.48242  -0.47861  -0.47126
 Alpha  occ. eigenvalues --   -0.46330  -0.46141  -0.45658  -0.45554  -0.45383
 Alpha  occ. eigenvalues --   -0.44877  -0.44356  -0.44115  -0.43436  -0.42914
 Alpha  occ. eigenvalues --   -0.41746  -0.41349  -0.41078  -0.40696  -0.39875
 Alpha  occ. eigenvalues --   -0.39483  -0.38900  -0.38655  -0.38252  -0.37473
 Alpha  occ. eigenvalues --   -0.37136  -0.36836  -0.36701  -0.36598  -0.34771
 Alpha  occ. eigenvalues --   -0.33058  -0.32814  -0.32597  -0.32141  -0.30871
 Alpha  occ. eigenvalues --   -0.29075  -0.28306  -0.27795  -0.27617  -0.27176
 Alpha  occ. eigenvalues --   -0.26922  -0.26628  -0.26291  -0.25713  -0.24580
 Alpha  occ. eigenvalues --   -0.24280
 Alpha virt. eigenvalues --   -0.05158  -0.05108  -0.04370  -0.03768  -0.03124
 Alpha virt. eigenvalues --   -0.02768  -0.01648  -0.01078  -0.00127   0.00779
 Alpha virt. eigenvalues --    0.02582   0.03128   0.05590   0.06422   0.06689
 Alpha virt. eigenvalues --    0.07426   0.08010   0.08990   0.09444   0.10173
 Alpha virt. eigenvalues --    0.10274   0.10725   0.10852   0.11258   0.11725
 Alpha virt. eigenvalues --    0.12319   0.12502   0.13106   0.13507   0.14543
 Alpha virt. eigenvalues --    0.14726   0.14904   0.15190   0.15669   0.16537
 Alpha virt. eigenvalues --    0.16890   0.17595   0.18627   0.19838   0.20735
 Alpha virt. eigenvalues --    0.21901   0.22227   0.22698   0.22919   0.24032
 Alpha virt. eigenvalues --    0.24472   0.25781   0.25867   0.26993   0.27529
 Alpha virt. eigenvalues --    0.27923   0.28926   0.29827   0.29873   0.30339
 Alpha virt. eigenvalues --    0.31036   0.31411   0.32676   0.33369   0.34328
 Alpha virt. eigenvalues --    0.35135   0.35642   0.36020   0.36775   0.37310
 Alpha virt. eigenvalues --    0.38001   0.38311   0.40723   0.42206   0.42508
 Alpha virt. eigenvalues --    0.42839   0.43646   0.44135   0.44315   0.44906
 Alpha virt. eigenvalues --    0.45022   0.45155   0.45495   0.45811   0.46130
 Alpha virt. eigenvalues --    0.46365   0.46805   0.47120   0.47353   0.47444
 Alpha virt. eigenvalues --    0.47880   0.48071   0.48443   0.48584   0.48669
 Alpha virt. eigenvalues --    0.49076   0.49366   0.49677   0.49749   0.49946
 Alpha virt. eigenvalues --    0.50468   0.50530   0.50591   0.51197   0.51881
 Alpha virt. eigenvalues --    0.51988   0.52445   0.52814   0.53289   0.53444
 Alpha virt. eigenvalues --    0.53655   0.54009   0.54764   0.54901   0.55194
 Alpha virt. eigenvalues --    0.55373   0.56003   0.56207   0.56663   0.57373
 Alpha virt. eigenvalues --    0.57641   0.58257   0.58494   0.59326   0.59584
 Alpha virt. eigenvalues --    0.59920   0.60174   0.60606   0.60823   0.61744
 Alpha virt. eigenvalues --    0.62239   0.62806   0.62956   0.63580   0.64276
 Alpha virt. eigenvalues --    0.64383   0.64733   0.65025   0.65581   0.66122
 Alpha virt. eigenvalues --    0.66262   0.66662   0.67153   0.67344   0.67622
 Alpha virt. eigenvalues --    0.67996   0.68258   0.68520   0.68693   0.69749
 Alpha virt. eigenvalues --    0.69869   0.70346   0.71359   0.71484   0.72081
 Alpha virt. eigenvalues --    0.72207   0.72281   0.72769   0.73162   0.74023
 Alpha virt. eigenvalues --    0.74724   0.75311   0.76207   0.77398   0.78126
 Alpha virt. eigenvalues --    0.78771   0.78907   0.80067   0.80930   0.81336
 Alpha virt. eigenvalues --    0.81746   0.83871   0.84156   0.84817   0.85154
 Alpha virt. eigenvalues --    0.85611   0.86269   0.86469   0.87018   0.87534
 Alpha virt. eigenvalues --    0.87987   0.88102   0.88449   0.88690   0.89306
 Alpha virt. eigenvalues --    0.89651   0.90125   0.91299   0.91460   0.91833
 Alpha virt. eigenvalues --    0.92528   0.93043   0.93386   0.93756   0.94565
 Alpha virt. eigenvalues --    0.95021   0.95627   0.96476   0.96899   0.97733
 Alpha virt. eigenvalues --    0.98169   0.98594   0.99041   0.99930   1.00378
 Alpha virt. eigenvalues --    1.00672   1.00892   1.01340   1.01603   1.01764
 Alpha virt. eigenvalues --    1.02207   1.02339   1.02755   1.03359   1.03972
 Alpha virt. eigenvalues --    1.04977   1.05503   1.05955   1.06242   1.06393
 Alpha virt. eigenvalues --    1.06784   1.07307   1.08388   1.08636   1.09844
 Alpha virt. eigenvalues --    1.10676   1.11349   1.11790   1.12064   1.13261
 Alpha virt. eigenvalues --    1.13740   1.15031   1.15308   1.15511   1.16376
 Alpha virt. eigenvalues --    1.16877   1.18291   1.19009   1.19505   1.20042
 Alpha virt. eigenvalues --    1.21497   1.22225   1.23305   1.24114   1.24886
 Alpha virt. eigenvalues --    1.25650   1.27624   1.28474   1.29043   1.29839
 Alpha virt. eigenvalues --    1.30721   1.31122   1.32878   1.33884   1.34345
 Alpha virt. eigenvalues --    1.36105   1.36256   1.38153   1.38660   1.40675
 Alpha virt. eigenvalues --    1.41303   1.41585   1.43748   1.44052   1.45072
 Alpha virt. eigenvalues --    1.46487   1.47494   1.47550   1.48153   1.48572
 Alpha virt. eigenvalues --    1.48799   1.49318   1.49631   1.49857   1.50124
 Alpha virt. eigenvalues --    1.50798   1.51789   1.52358   1.53077   1.53360
 Alpha virt. eigenvalues --    1.54831   1.55284   1.55569   1.56032   1.56860
 Alpha virt. eigenvalues --    1.57423   1.58194   1.58684   1.59243   1.59659
 Alpha virt. eigenvalues --    1.59840   1.60598   1.61149   1.61653   1.62129
 Alpha virt. eigenvalues --    1.62689   1.62856   1.63297   1.63371   1.64293
 Alpha virt. eigenvalues --    1.64512   1.65155   1.65538   1.65852   1.66120
 Alpha virt. eigenvalues --    1.66604   1.67497   1.68212   1.68343   1.69583
 Alpha virt. eigenvalues --    1.69866   1.70126   1.71262   1.71768   1.71956
 Alpha virt. eigenvalues --    1.72433   1.73213   1.73502   1.74190   1.74786
 Alpha virt. eigenvalues --    1.75329   1.75442   1.76279   1.76591   1.77180
 Alpha virt. eigenvalues --    1.77572   1.77711   1.77939   1.78372   1.78910
 Alpha virt. eigenvalues --    1.79855   1.80603   1.80917   1.81772   1.82187
 Alpha virt. eigenvalues --    1.83165   1.83464   1.83989   1.84777   1.85225
 Alpha virt. eigenvalues --    1.85538   1.85637   1.86348   1.86831   1.87348
 Alpha virt. eigenvalues --    1.88229   1.88562   1.88976   1.89166   1.90390
 Alpha virt. eigenvalues --    1.90665   1.91991   1.92687   1.93577   1.93733
 Alpha virt. eigenvalues --    1.94796   1.95723   1.96693   1.97122   1.98504
 Alpha virt. eigenvalues --    1.98642   1.99741   1.99919   2.01030   2.01400
 Alpha virt. eigenvalues --    2.02333   2.02530   2.03326   2.03819   2.04472
 Alpha virt. eigenvalues --    2.05108   2.05793   2.07027   2.08030   2.08353
 Alpha virt. eigenvalues --    2.10212   2.10589   2.12315   2.14218   2.14624
 Alpha virt. eigenvalues --    2.15107   2.16895   2.17134   2.18794   2.18986
 Alpha virt. eigenvalues --    2.19375   2.20374   2.20831   2.22319   2.22991
 Alpha virt. eigenvalues --    2.24178   2.25814   2.28071   2.29573   2.29960
 Alpha virt. eigenvalues --    2.31515   2.34372   2.34487   2.37323   2.38938
 Alpha virt. eigenvalues --    2.41463   2.42046   2.42522   2.43200   2.43519
 Alpha virt. eigenvalues --    2.44661   2.46667   2.46709   2.47539   2.48443
 Alpha virt. eigenvalues --    2.49224   2.50085   2.50783   2.51531   2.52818
 Alpha virt. eigenvalues --    2.53145   2.53858   2.54487   2.55448   2.56382
 Alpha virt. eigenvalues --    2.57682   2.61059   2.63565   2.64569   2.66117
 Alpha virt. eigenvalues --    2.68501   2.68984   2.69714   2.70443   2.71744
 Alpha virt. eigenvalues --    2.73750   2.74359   2.75221   2.75515   2.76457
 Alpha virt. eigenvalues --    2.76797   2.77680   2.79269   2.81677   2.82831
 Alpha virt. eigenvalues --    2.83679   2.86588   2.88009   2.89914   2.93988
 Alpha virt. eigenvalues --    2.95575   2.98731   2.99405   3.01442   3.09191
 Alpha virt. eigenvalues --    3.11013   3.13394   3.28010   3.39711   3.45653
 Alpha virt. eigenvalues --    3.48437   3.59258   3.59367
          Condensed to atoms (all electrons):
 Mulliken atomic charges:
              1
     1  Cl  -0.083090
     2  C   -0.166537
     3  C    0.255043
     4  C   -0.169828
     5  C    0.179858
     6  C   -0.120482
     7  C    0.160668
     8  C    0.185026
     9  N   -0.274813
    10  C    0.115218
    11  O   -0.264444
    12  C    0.202901
    13  N   -0.250018
    14  N   -0.065656
    15  N   -0.172346
    16  C   -0.003643
    17  C    0.063099
    18  C    0.052023
    19  C    0.055779
    20  C    0.047522
    21  C    0.182077
    22  C    0.054144
    23  C    0.080346
    24  C    0.045755
    25  C    0.025481
    26  C    0.039651
    27  C    0.105301
    28  C   -0.063712
    29  C    0.097416
    30  C   -0.001242
    31  C    0.122322
    32  N   -0.171559
    33  C    0.121629
    34  Cl  -0.088587
    35  H   -0.016152
    36  H   -0.041416
    37  H   -0.018698
    38  H    0.027926
    39  H    0.044069
    40  H    0.039641
    41  H    0.044977
    42  H   -0.030914
    43  H   -0.033907
    44  H   -0.029704
    45  H   -0.019501
    46  H   -0.039388
    47  H   -0.043614
    48  H   -0.039376
    49  H   -0.034264
    50  H   -0.040347
    51  H   -0.033994
    52  H   -0.012548
    53  H   -0.018093
 Sum of Mulliken atomic charges =   0.00000
 Mulliken charges with hydrogens summed into heavy atoms:
              1
     1  Cl  -0.083090
     2  C   -0.166537
     3  C    0.238891
     4  C   -0.169828
     5  C    0.138443
     6  C   -0.120482
     7  C    0.141970
     8  C    0.257022
     9  N   -0.274813
    10  C    0.115218
    11  O   -0.264444
    12  C    0.287519
    13  N   -0.250018
    14  N   -0.065656
    15  N   -0.172346
    16  C   -0.003643
    17  C    0.032185
    18  C    0.018115
    19  C    0.026075
    20  C    0.028020
    21  C    0.182077
    22  C    0.054144
    23  C    0.040959
    24  C    0.002141
    25  C    0.025481
    26  C    0.000275
    27  C    0.071037
    28  C   -0.063712
    29  C    0.057069
    30  C   -0.035237
    31  C    0.109774
    32  N   -0.171559
    33  C    0.103536
    34  Cl  -0.088587
 Sum of Mulliken charges with hydrogens summed into heavy atoms =   0.00000
 Electronic spatial extent (au):  <R**2>=          22270.9426
 Charge=              0.0000 electrons
 Dipole moment (field-independent basis, Debye):
    X=              1.3025    Y=             -0.7563    Z=             -1.7984  Tot=              2.3458
 Quadrupole moment (field-independent basis, Debye-Ang):
   XX=           -224.4365   YY=           -203.7214   ZZ=           -206.6857
   XY=              6.8853   XZ=            -21.7856   YZ=              2.0154
 Traceless Quadrupole moment (field-independent basis, Debye-Ang):
   XX=            -12.8219   YY=              7.8931   ZZ=              4.9288
   XY=              6.8853   XZ=            -21.7856   YZ=              2.0154
 Octapole moment (field-independent basis, Debye-Ang**2):
  XXX=             33.3588  YYY=            -99.3086  ZZZ=             -3.9635  XYY=            -56.5769
  XXY=             36.3170  XXZ=            -75.8558  XZZ=             15.3606  YZZ=              8.9059
  YYZ=              6.6661  XYZ=              8.9469
 Hexadecapole moment (field-independent basis, Debye-Ang**3):
 XXXX=         -18479.2246 YYYY=         -10277.2832 ZZZZ=          -1419.8521 XXXY=            159.5136
 XXXZ=          -1023.8825 YYYX=            208.8457 YYYZ=             18.7855 ZZZX=            -51.6660
 ZZZY=             19.0432 XXYY=          -4903.9106 XXZZ=          -3181.3840 YYZZ=          -2079.3167
 XXYZ=             79.8653 YYXZ=             37.5441 ZZXY=              2.3042
 N-N= 3.519004899999D+03 E-N=-1.236497683475D+04  KE= 2.262113963551D+03
 No NMR shielding tensors so no spin-rotation constants.
 Leave Link  601 at Tue Sep  6 16:08:55 2022, MaxMem=  209715200 cpu:       4.5
 (Enter /opt/gaussian/l701.exe)
 Compute integral first derivatives.
 ... and contract with generalized density number  0.
 Leave Link  701 at Tue Sep  6 16:08:55 2022, MaxMem=  209715200 cpu:       3.8
 (Enter /opt/gaussian/l702.exe)
 L702 exits ... SP integral derivatives will be done elsewhere.
 Leave Link  702 at Tue Sep  6 16:08:56 2022, MaxMem=  209715200 cpu:       0.2
 (Enter /opt/gaussian/l703.exe)
 Compute integral first derivatives, UseDBF=F ICtDFT=           0.
 Integral derivatives from FoFDir, PRISM(SPDF).
 Calling FoFJK, ICntrl=      2127 FMM=F ISym2X=0 I1Cent= 0 IOpClX= 0 NMat=1 NMatS=1 NMatT=0.
 FoFCou: FMM=F IPFlag=           0 FMFlag=      100000 FMFlg1=         800
         NFxFlg=           0 DoJE=F BraDBF=F KetDBF=F FulRan=T
         Omega=  0.000000  0.000000  1.000000  0.000000  0.000000 ICntrl=    2127 IOpCl=  0
         NMat0=    1 NMatS0=    1 NMatT0=    0 NMatD0=    1 NMtDS0=    0 NMtDT0=    0
         I1Cent=           0 NGrid=           0.
 Symmetry not used in FoFCou.
 Leave Link  703 at Tue Sep  6 16:13:56 2022, MaxMem=  209715200 cpu:    2302.1
 (Enter /opt/gaussian/l716.exe)
 Dipole        = 5.12445591D-01-2.97562401D-01-7.07555995D-01
 ***** Axes restored to original set *****
 -------------------------------------------------------------------
 Center     Atomic                   Forces (Hartrees/Bohr)
 Number     Number              X              Y              Z
 -------------------------------------------------------------------
      1       17           0.016164957   -0.004027692    0.003740775
      2        6          -0.025957783    0.005599752   -0.006466574
      3        6          -0.000568851    0.003509903    0.001039243
      4        6           0.016164455    0.018620703    0.011786382
      5        6           0.000528348   -0.002961817   -0.000803327
      6        6           0.002166388   -0.005126271   -0.001569707
      7        6           0.000373388   -0.002115880   -0.000666915
      8        6           0.001020948    0.004560147    0.011860008
      9        7           0.001535420    0.004952512   -0.009166058
     10        6           0.005797515   -0.007264026    0.016956941
     11        8           0.001343586    0.000134875   -0.001940248
     12        6           0.004630218   -0.004608246   -0.008868558
     13        7          -0.001690710    0.000925012    0.001319995
     14        7           0.003591779    0.016722648    0.005578302
     15        7          -0.009598984   -0.015798599   -0.014510779
     16        6          -0.008443157    0.008525441   -0.010898005
     17        6           0.000365174    0.003114499    0.000677803
     18        6           0.004608350    0.003022579    0.006296274
     19        6          -0.004528761   -0.002743443   -0.005838763
     20        6          -0.001801362    0.003934054   -0.002097048
     21        6           0.007700526    0.002740537    0.010272568
     22        6          -0.008970085    0.000657028    0.001349399
     23        6           0.002442536    0.000969038    0.000599587
     24        6          -0.002472882    0.002117902    0.001682824
     25        6           0.010472117   -0.000048366   -0.001472285
     26        6          -0.003001623   -0.001841010   -0.001438033
     27        6           0.002433585   -0.002028821   -0.000543685
     28        6          -0.012957434    0.001010856   -0.000172180
     29        6           0.003344268   -0.001613821    0.002368757
     30        6          -0.002473497   -0.000322873    0.000698337
     31        6          -0.015179824   -0.000210804    0.003405322
     32        7           0.009906070   -0.004324152    0.015371540
     33        6           0.010540230    0.003267737   -0.011645789
     34       17          -0.010228582   -0.011451070   -0.007343487
     35        1          -0.005057850    0.013175432    0.003139924
     36        1           0.013770890   -0.003052888    0.003348429
     37        1          -0.008435303   -0.009576763   -0.005662490
     38        1          -0.010643028   -0.007531533   -0.004451916
     39        1           0.008390495    0.001177677   -0.010103159
     40        1          -0.002309145   -0.003110168    0.012508764
[...]
 00000730,-0.00001297,0.00000851,-0.00001265,0.00002725,-0.00000655,-0.
 00001465,-0.00000958,-0.00000196,0.00000090,-0.00000451,0.00000142,0.0
 0000329,0.00000214,0.00000052,-0.00000214,0.00000080,-0.00000150,0.000
 00285,-0.00000047,-0.00000027,-0.00000535,0.00000232,-0.00000198,0.000
 02124,-0.00000609,0.00012364,0.00018355,0.00035762,0.00047258,-0.00009
 433,0.00014966,-0.00014223,-0.00051334,0.00009006,-0.00246562,-0.00126
 370,0.00046610,0.00071780,-0.00023801,-0.00041607,-0.00043510,0.000033
 46,-0.00016357,-0.01581410,0.00762052,-0.01578148,-0.11635538,0.071197
 94,-0.23254919,0.00266248,-0.00004396,0.00448027,0.00090655,0.00199114
 ,0.00287915,0.00058303,-0.00117280,-0.00031760,0.00445304,0.00317712,-
 0.00256793,-0.00000131,0.00000663,0.00000359,-0.00000033,0.00000036,-0
 .00000081,0.00000470,-0.00000739,-0.00000820,0.00000095,0.00000002,-0.
 00000068,-0.00000207,0.00000513,-0.00000073,0.00000889,0.00000100,0.00
 000751,-0.00000459,-0.00000316,-0.00000143,-0.00000086,-0.00000165,-0.
 00000212,-0.00000031,-0.00000016,-0.00000101,-0.00000026,-0.00000208,-
 0.00000047,0.00000050,-0.00000148,0.00000090,0.00000169,0.00000620,-0.
 00000381,0.00000802,-0.00002075,-0.00001056,-0.00006185,0.00043911,0.0
 0046026,-0.00002174,0.00004498,0.00008715,0.00001657,0.00001478,-0.000
 00551,0.12648700,-0.07998244,0.24340372,-0.00001367,0.00000550,-0.0000
 0345,0.00001587,-0.00000718,0.00000436,-0.00000462,0.00000824,0.000000
 88,-0.00001105,-0.00001991,-0.00001117,0.00000795,0.00001263,0.0000052
 1,-0.00000249,-0.00000691,-0.00001367,-0.00000307,0.00001315,0.0000019
 5,0.00001367,-0.00002290,0.00004807,-0.00011569,-0.00002259,0.00002731
 ,0.00004072,0.00003619,-0.00009112,-0.00002281,-0.00002903,0.00003368,
 0.00001011,0.00001374,0.00001346,-0.00001802,-0.00000412,-0.00001286,0
 .00001161,-0.00000499,0.00002540,-0.00000603,-0.00001655,-0.00001180,-
 0.00000264,0.00000275,-0.00000426,0.00000130,0.00000019,0.00000146,-0.
 00000069,-0.00000061,-0.00000145,-0.00000028,0.00000328,0.00000120,0.0
 0000077,-0.00000454,0.00000362,-0.00000245,0.00001595,-0.00000557,0.00
 008420,0.00000683,-0.00000374,-0.00002917,-0.00000009,-0.00001894,-0.0
 0002550,0.00009443,0.00005583,0.00023639,-0.00032731,0.00144212,-0.000
 44124,-0.00007977,-0.00012575,-0.00002681,0.00012146,0.00006657,-0.005
 21475,0.00086893,-0.00116868,-0.00945065,-0.00849847,0.02727296,-0.124
 21711,-0.03331877,0.11469280,0.01206355,0.00394626,-0.01366388,-0.0003
 3443,0.00146008,-0.00377452,-0.00158574,0.00027059,-0.00076215,0.00000
 611,0.00001111,0.00000472,-0.00000124,-0.00000004,0.00000068,0.0000003
 6,-0.00001248,0.00000113,0.00000101,-0.00000135,0.00000115,-0.00000677
 ,0.00000737,-0.00000357,0.00000413,-0.00000213,0.00000774,-0.00000527,
 -0.00000191,-0.00000146,-0.00000407,-0.00000281,-0.00000051,-0.0000007
 9,-0.00000045,-0.00000071,-0.00000025,-0.00000169,-0.00000015,0.000000
 62,-0.00000005,0.00000046,0.00000229,0.00000422,-0.00000303,-0.0000270
 3,-0.00000672,-0.00000565,0.00001235,-0.00003171,-0.00000683,0.0000196
 0,-0.00002195,0.00001602,-0.00004470,0.00000470,0.00000577,0.00118771,
 -0.00017028,-0.00031417,0.12723111,-0.00000550,0.00000094,-0.00000149,
 0.00000696,-0.00000060,0.00000231,-0.00000367,-0.00000218,-0.00000207,
 0.00000661,0.00000614,0.00000525,0.00000060,-0.00000292,0.00000003,0.0
 0000020,0.00000157,0.00000059,-0.00000185,0.00000006,-0.00000031,0.000
 00270,0.00000199,0.00000326,-0.00002347,-0.00001824,0.00001309,0.00001
 034,0.00000966,-0.00001826,-0.00000545,-0.00000883,0.00000619,0.000002
 19,0.00000558,0.00000448,-0.00000494,-0.00000226,-0.00000463,0.0000033
 7,-0.00000414,0.00000740,-0.00000152,-0.00000431,-0.00000332,-0.000000
 80,0.00000038,-0.00000121,0.00000059,0.00000094,0.00000004,0.00000080,
 -0.00000051,-0.00000013,0.00000029,0.00000027,-0.00000010,0.00000081,-
 0.00000110,0.00000070,-0.00000109,0.00000556,-0.00000164,0.00003089,0.
 00001644,0.00000854,-0.00001185,0.00001078,0.00001227,-0.00000240,-0.0
 0008119,0.00001238,0.00004851,0.00039371,0.00002043,-0.00004557,-0.000
 11292,0.00002476,-0.00005147,-0.00000437,-0.00002794,0.00091923,0.0076
 8593,0.00181455,0.00119707,0.00304244,-0.00097629,-0.03328857,-0.05644
 452,0.06581300,-0.00594202,-0.00034256,0.00505104,0.00096720,0.0066131
 3,0.00376032,0.00073260,-0.00028192,-0.00015997,-0.00000513,-0.0000046
 4,-0.00000305,0.00000062,0.00000015,-0.00000019,0.00000081,0.00000108,
 -0.00000113,-0.00000013,0.00000050,-0.00000033,-0.00000038,0.00000087,
 -0.00000015,0.00000150,0.00000085,0.00000132,-0.00000102,-0.00000055,-
 0.00000069,0.00000012,-0.00000003,-0.00000034,-0.00000075,0.00000002,-
 0.00000014,-0.00000061,-0.00000088,0.00000022,-0.00000009,-0.00000010,
 0.00000077,0.00000029,0.00000132,-0.00000029,-0.00000439,0.00000229,-0
 .00000105,-0.00004882,0.00001024,0.00002072,-0.00000905,-0.00001728,-0
 .00001639,-0.00000170,0.00000980,-0.00000130,-0.00035539,-0.00369345,-
 0.00153031,0.03605646,0.04747450,0.00001316,-0.00000534,0.00000293,-0.
 00001651,0.00000766,-0.00000398,0.00000355,-0.00000729,-0.00000118,0.0
 0001114,0.00002053,0.00001166,-0.00000546,-0.00001126,-0.00000577,0.00
 000049,0.00000677,0.00000970,0.00000340,-0.00001155,-0.00000228,-0.000
 01250,0.00001847,-0.00003135,0.00008255,0.00000788,-0.00002576,-0.0000
 3511,-0.00002656,0.00006634,0.00002184,0.00002062,-0.00002664,-0.00000
 769,-0.00000934,-0.00000833,0.00001436,0.00000326,0.00000962,-0.000007
 50,0.00000435,-0.00001980,0.00000553,0.00001231,0.00000806,0.00000169,
 -0.00000221,0.00000347,-0.00000080,-0.00000038,-0.00000159,0.00000099,
 -0.00000018,0.00000047,0.00000085,-0.00000251,-0.00000108,0.00000008,0
 .00000343,-0.00000315,0.00000138,-0.00001165,0.00000450,-0.00005983,-0
 .00000755,0.00000584,0.00000209,0.00001132,-0.00001013,0.00006007,-0.0
 0003110,-0.00001953,-0.00039214,0.00010001,0.00008731,-0.00000706,0.00
 000470,0.00003543,0.00000091,-0.00000880,0.00001086,-0.00041059,0.0016
 8278,0.00278718,-0.00225620,0.00006715,0.00298090,0.11483320,0.0655240
 7,-0.25384081,0.01757595,0.00431110,-0.01421353,-0.00336164,0.00379152
 ,-0.00369402,-0.00190673,-0.00019173,0.00047692,-0.00000616,-0.0000112
 3,-0.00000571,0.00000090,0.00000006,-0.00000014,-0.00000039,0.00000928
 ,0.00000086,-0.00000150,0.00000101,-0.00000037,0.00000401,-0.00000573,
 0.00000269,-0.00000260,0.00000076,-0.00000513,0.00000357,0.00000186,0.
 00000097,0.00000285,0.00000216,0.00000089,0.00000009,0.00000012,0.0000
 0094,-0.00000023,0.00000143,0.00000045,-0.00000109,-0.00000020,-0.0000
 0009,-0.00000253,-0.00000310,0.00000279,0.00001058,0.00000268,0.000006
 68,-0.00002687,-0.00001176,-0.00000779,-0.00001161,0.00000762,0.000004
 57,0.00000503,0.00000077,-0.00000303,0.00024062,-0.00147147,0.00034682
 ,-0.12424018,-0.07222463,0.26497564,-0.00001995,0.00000724,-0.00000453
 ,0.00002528,-0.00001015,0.00000624,-0.00000639,0.00000778,0.00000039,-
 0.00001011,-0.00002240,-0.00001157,0.00000719,0.00001203,0.00000740,0.
 00000078,-0.00000721,-0.00000947,-0.00000587,0.00001394,0.00000264,0.0
 0001652,-0.00002359,0.00003448,-0.00010677,-0.00001502,0.00003711,0.00
 005043,0.00003976,-0.00008468,-0.00003118,-0.00002996,0.00003485,0.000
 01036,0.00001405,0.00001069,-0.00002000,-0.00000539,-0.00001345,0.0000
 1009,-0.00000790,0.00002767,-0.00000776,-0.00001672,-0.00001115,-0.000
 00222,0.00000258,-0.00000464,0.00000116,0.00000121,0.00000213,-0.00000
 076,-0.00000008,-0.00000007,-0.00000141,0.00000344,0.00000094,-0.00000
 014,-0.00000484,0.00000416,-0.00000188,0.00001719,-0.00000621,0.000083
 03,0.00001058,-0.00000322,-0.00000192,-0.00002057,0.00000237,-0.000074
 22,0.00001216,0.00000277,0.00011839,-0.00004426,-0.00013408,-0.0000298
 7,0.00000637,0.00000637,-0.00000930,0.00002951,-0.00002540,0.00027424,
 0.00007795,-0.00021503,0.00032545,0.00115272,-0.00299560,-0.01111746,-
 0.00038193,0.00328036,-0.32798025,0.01322590,-0.01031566,-0.01427059,-
 0.00285848,0.01029297,0.00213613,-0.00017438,0.00132064,0.00000440,0.0
 0001141,0.00000554,-0.00000069,0.,-0.00000011,0.00000144,-0.00001036,-
 0.00000210,0.00000182,-0.00000097,0.00000006,-0.00000449,0.00000723,-0
 .00000343,0.00000448,-0.00000056,0.00000682,-0.00000450,-0.00000272,-0
 .00000143,-0.00000331,-0.00000256,-0.00000147,-0.00000027,-0.00000010,
 -0.00000137,0.00000009,-0.00000218,-0.00000066,0.00000142,0.00000008,0
 .00000037,0.00000340,0.00000464,-0.00000391,-0.00001576,-0.00000590,-0
 .00000683,0.00001920,0.00002924,0.00001850,0.00001518,-0.00003566,-0.0
 0001841,-0.00000778,0.00000207,0.00000604,-0.00066381,-0.00005023,0.00
 019879,0.00048830,-0.00002048,-0.00034403,0.35120181,0.00000195,-0.000
 00141,0.00000019,-0.00000244,0.00000221,-0.00000041,-0.00000054,-0.000
 00383,-0.00000148,0.00000755,0.00001197,0.00000732,-0.00000091,-0.0000
 0547,-0.00000227,0.,0.00000344,0.00000385,-0.00000019,-0.00000430,-0.0
 0000098,-0.00000558,0.00000753,-0.00001041,0.00003047,0.00000544,-0.00
 002850,0.00000037,-0.00001274,0.00003670,-0.00000603,0.00000748,-0.000
 01335,-0.00000194,-0.00000109,-0.00000358,0.00000222,-0.00000009,0.000
 00108,-0.00000099,-0.00000077,-0.00000336,0.00000111,0.00000229,0.0000
 0123,0.00000024,-0.00000051,0.00000064,-0.00000005,0.00000037,-0.00000
 058,0.00000080,-0.00000018,0.00000020,0.00000029,-0.00000060,-0.000000
 65,0.00000053,0.00000069,-0.00000059,-0.00000011,-0.00000147,0.0000007
 7,0.00002096,0.00004768,0.00017093,0.00010183,-0.00001660,-0.00019643,
 -0.00030957,0.00003496,0.00013625,-0.00034239,-0.00151102,-0.00053997,
 0.00031677,0.00002873,-0.00008071,-0.00016697,0.00000819,-0.00010387,0
 .00009822,-0.00054877,0.00030198,0.00075408,0.00589681,0.00332065,0.00
 861535,0.00587060,0.00061840,0.01334499,-0.04256042,0.00407327,-0.0103
 7128,-0.00390594,0.00031815,-0.00100721,0.00922103,0.00368629,-0.00000
 509,-0.00000680,-0.00000420,0.00000061,0.00000009,0.,0.00000021,0.0000
 0365,0.00000083,-0.00000068,0.00000054,-0.00000020,0.00000176,-0.00000
 173,0.00000025,-0.00000039,-0.00000019,-0.00000158,0.00000182,0.000000
 54,-0.00000012,0.00000101,0.00000081,0.00000020,-0.00000030,0.00000010
 ,0.00000023,-0.00000045,0.,0.00000019,-0.00000041,-0.00000006,0.000000
 46,-0.00000069,-0.00000041,0.00000090,-0.00001908,-0.00000887,0.000004
 79,-0.00001665,-0.00000721,-0.00003389,0.00002440,-0.00002786,-0.00003
 336,0.00000630,-0.00001076,0.00000043,0.00046843,-0.00031266,-0.000096
 35,-0.00026935,-0.00264525,-0.00108437,-0.01101782,0.02994933,0.000002
 89,-0.00000139,0.00000053,-0.00000338,0.00000195,-0.00000093,0.0000006
 0,-0.00000268,-0.00000075,0.00000449,0.00000749,0.00000437,-0.00000139
 ,-0.00000407,-0.00000142,0.00000081,0.00000244,0.00000402,0.00000037,-
 0.00000388,-0.00000075,-0.00000327,0.00000757,-0.00001343,0.00003177,0
 .00000330,-0.00000919,-0.00000959,-0.00000875,0.00002650,0.00000473,0.
 00000678,-0.00000884,-0.00000256,-0.00000357,-0.00000335,0.00000406,0.
 00000080,0.00000254,-0.00000233,0.00000105,-0.00000587,0.00000162,0.00
 000375,0.00000250,0.00000054,-0.00000069,0.00000101,-0.00000011,0.0000
 0008,-0.00000042,0.00000042,0.00000003,0.00000009,0.00000054,-0.000001
 09,-0.00000022,0.00000015,0.00000110,-0.00000123,0.00000031,-0.0000035
 1,0.00000134,-0.00000218,0.00003302,0.00008661,0.00008778,0.00000755,-
 0.00004182,-0.00006425,-0.00005136,-0.00001526,-0.00009908,-0.00054785
 ,0.00014501,0.00011522,-0.00003057,-0.00005324,-0.00009792,0.00001084,
 -0.00000540,0.00053482,0.00003504,-0.00078044,-0.00187766,0.00341382,-
 0.00358791,-0.02508092,0.00135112,0.00472847,-0.01064533,0.00446564,-0
 .05356231,0.03449947,-0.00095466,-0.00507654,0.00348558,0.00386285,-0.
 00230195,-0.00000287,-0.00000429,-0.00000230,0.00000035,0.,0.00000004,
 0.00000004,0.00000349,-0.00000037,-0.00000050,0.00000038,-0.00000016,0
 .00000195,-0.00000224,0.00000126,-0.00000030,0.00000058,-0.00000191,0.
 00000149,0.00000059,0.00000027,0.00000135,0.00000082,0.00000024,-0.000
 00008,0.00000008,0.00000028,-0.00000013,0.00000034,0.00000028,-0.00000
 043,-0.00000001,0.00000011,-0.00000101,-0.00000108,0.00000114,0.000002
 68,-0.00000049,0.00000115,0.00000934,0.00003537,0.00002348,-0.00000782
 ,0.00002723,0.00002203,0.00000130,-0.00000438,-0.00000133,-0.00133564,
 -0.00004047,0.00006409,0.00046139,-0.00108084,0.00032361,-0.00100197,-
 0.01065160,0.05999226,0.00001414,-0.00000557,0.00000286,-0.00001739,0.
 00000770,-0.00000409,0.00000396,-0.00000825,-0.00000167,0.00001278,0.0
 0002369,0.00001308,-0.00000584,-0.00001267,-0.00000595,0.00000097,0.00
 000832,0.00000852,0.00000299,-0.00001283,-0.00000301,-0.00001463,0.000
 02501,-0.00003041,0.00010827,0.00002998,-0.00004024,-0.00004152,-0.000
 04113,0.00008902,0.00002444,0.00003100,-0.00003236,-0.00000958,-0.0000
 1660,-0.00001079,0.00001740,0.00000519,0.00001099,-0.00000871,0.000009
 35,-0.00002432,0.00000632,0.00001399,0.00000943,0.00000200,-0.00000182
 ,0.00000403,-0.00000081,-0.00000169,-0.00000157,0.00000012,0.00000147,
 -0.00000033,0.00000208,-0.00000406,0.00000057,0.00000019,0.00000478,-0
 .00000392,0.00000148,-0.00001771,0.00000562,-0.00006487,0.00005117,0.0
 0027960,0.00021488,-0.00001612,-0.00011787,-0.00012424,-0.00014547,-0.
 00005370,0.00099023,0.00002375,-0.00043810,-0.00032806,0.00048141,-0.0
 0004464,-0.00039495,-0.00017807,-0.00000695,0.00887489,0.00508270,-0.0
 1435492,-0.00193185,0.00132365,-0.00284780,-0.00068327,-0.00011087,0.0
 0014777,-0.00421288,0.00033801,0.00069921,-0.02528046,-0.00920511,0.02
 985682,-0.09080281,-0.03045205,0.09025707,-0.00000704,-0.00001259,-0.0
 0000698,0.00000085,-0.00000013,0.00000038,-0.00000121,0.00001153,0.000
 00089,-0.00000172,0.00000075,-0.00000005,0.00000518,-0.00000742,0.0000
 0297,-0.00000177,0.00000096,-0.00000968,0.00000518,0.00000265,0.000001
 14,0.00000440,0.00000264,0.00000147,0.00000006,0.00000018,0.00000093,0
 .00000020,0.00000178,0.00000080,-0.00000082,0.00000099,-0.00000055,-0.
 00000291,-0.00000555,0.00000431,0.00001005,0.00001083,0.00000268,0.000
 00884,0.00003017,0.00001954,-0.00076854,0.00069739,-0.00012527,0.00000
 211,0.00004760,-0.00002274,0.00052168,0.00031141,-0.00093685,0.0001792
 7,-0.00015266,0.00021608,-0.00040194,-0.00025514,0.00098466,0.11409286
 ,-0.00001635,0.00000473,-0.00000441,0.00001971,-0.00000568,0.00000588,
 -0.00000787,0.00000103,-0.00000266,0.00000333,-0.00000067,0.00000148,0
 .00000938,0.00000256,0.00000187,-0.00000001,-0.00000071,-0.00000454,-0
 .00000625,0.00000620,0.00000064,-0.00000183,-0.00001978,0.00002472,-0.
 00005819,-0.00000981,-0.00003854,0.00005175,0.00003489,-0.00004099,-0.
 00003715,-0.00004188,0.00001929,0.00000829,0.00001709,0.00001106,-0.00
 001592,-0.00000670,-0.00001252,0.00000931,-0.00001340,0.00002295,-0.00
 000540,-0.00001263,-0.00000909,-0.00000215,0.00000051,-0.00000386,0.00
 000116,0.00000315,0.00000095,0.00000153,-0.00000328,0.00000029,-0.0000
 0068,0.00000248,-0.00000204,0.00000209,-0.00000464,0.00000188,-0.00000
 284,0.00002080,-0.00000543,0.00003466,0.00010045,0.00034048,0.00024871
 ,-0.00001832,-0.00029489,-0.00048749,0.00003167,-0.00031247,0.00072280
 ,-0.00206179,-0.00090450,0.00073251,0.00009220,0.00084872,-0.00032849,
 -0.00018868,-0.00046208,-0.00564484,0.00443013,0.00742625,0.00201316,0
 .00533364,0.00255671,-0.00014164,-0.00037640,-0.00040432,0.00132152,0.
 00980703,0.00271441,-0.00096659,-0.00265065,-0.00442818,-0.02990080,-0
 .06621535,0.07549449,-0.00000505,-0.00000063,-0.00000316,-0.00000003,0
 .00000010,0.00000035,0.00000292,-0.00000581,0.00000262,0.00000024,0.00
 000025,-0.00000018,-0.00000493,0.00000756,-0.00000575,0.00000642,-0.00
 000083,0.00000355,-0.00000306,-0.00000116,-0.00000182,-0.00000167,-0.0
 0000141,-0.00000075,-0.00000071,-0.00000023,-0.00000046,-0.00000110,-0
 .00000185,-0.00000017,-0.00000080,-0.00000205,0.00000197,-0.00000037,0
 .00000658,-0.00000154,-0.00000311,-0.00002188,-0.00000093,-0.00006563,
 -0.00007741,-0.00004452,0.00070311,-0.00041496,-0.00037561,0.00004000,
 -0.00000102,0.00001068,-0.00031100,-0.00034260,0.00024827,-0.00007739,
 -0.00162242,-0.00048573,0.00008332,0.00049252,0.00011437,0.03208342,0.
 05372905,0.00001620,-0.00000653,0.00000381,-0.00002035,0.00000940,-0.0
 0000424,0.00000449,-0.00000844,-0.00000153,0.00001226,0.00002256,0.000
 01364,-0.00000728,-0.00001202,-0.00000382,-0.00000021,0.00000653,0.000
 00681,0.00000406,-0.00001326,-0.00000145,-0.00001558,0.00004439,-0.000
 02991,0.00010011,0.00001610,0.00001089,-0.00005787,-0.00001514,0.00001
 872,0.00005258,0.00000970,0.00000286,-0.00000734,-0.00001488,-0.000007
 09,0.00001780,0.00000267,0.00001259,-0.00001092,0.00000051,-0.00002519
 ,0.00000698,0.00001764,0.00001165,0.00000228,-0.00000395,0.00000426,-0
 .00000107,0.00000139,-0.00000222,0.00000243,-0.00000198,0.00000135,0.0
 0000145,-0.00000443,-0.00000293,0.00000126,0.00000440,-0.00000564,0.00
 000152,-0.00001017,0.00000543,-0.00006719,0.00019594,0.00029840,0.0004
 1419,-0.00004974,-0.00014273,-0.00081432,-0.00020944,-0.00030710,0.002
 10847,-0.00087004,-0.00004565,0.00014345,-0.00070334,-0.00014886,-0.00
 037708,-0.00009708,0.00029376,0.01142838,0.00714617,-0.01581391,-0.003
 68367,0.00284662,-0.00184733,-0.00088638,-0.00009666,0.00006329,-0.001
 40894,0.00245800,0.00420575,0.00600550,-0.00322672,0.00377689,0.089576
 79,0.07430515,-0.26400652,-0.00000684,-0.00001313,-0.00000564,0.000001
 20,0.00000004,-0.00000062,-0.00000201,0.00001361,-0.00000442,-0.000001
 36,0.00000192,-0.00000150,0.00000657,-0.00000767,0.00000489,-0.0000052
 4,0.00000142,-0.00000920,0.00000235,0.00000235,0.00000118,0.00000543,0
 .00000274,0.00000101,0.00000028,0.00000027,0.00000131,-0.00000071,0.00
 000179,0.00000070,-0.00000247,-0.00000159,0.00000100,-0.00000527,-0.00
 000242,0.00000500,-0.00001666,0.00001680,-0.00000473,0.00003764,0.0000
 6408,0.00007353,0.00036304,0.00038041,0.00058367,-0.00001720,-0.000029
 69,0.00000072,0.00063131,0.00014728,-0.00101899,0.00005334,-0.00052545
 ,-0.00023693,-0.00008983,0.00020660,0.00004409,-0.10349567,-0.08200273
 ,0.27423091\\0.00000368,-0.00000169,-0.00000063,-0.00000587,0.00000131
 ,-0.00000323,-0.00000024,-0.00000225,-0.00000262,0.00000440,0.00000392
 ,0.00000130,-0.00000480,-0.00000134,-0.00000300,0.00000426,-0.00000295
 ,-0.00000033,0.00000336,-0.00000031,-0.00000119,-0.00000491,0.00000617
 ,0.00000325,-0.00000575,-0.00000263,-0.00000082,0.00000578,0.00000128,
 -0.00000510,-0.00000480,-0.00000055,0.00000218,-0.00000246,-0.00000254
 ,-0.00000153,0.00000106,0.00000243,0.00000965,-0.00000279,-0.00000211,
 -0.00000875,0.00000146,0.00000523,0.00000365,0.00000423,-0.00000775,0.
 00000550,-0.00000140,0.00000123,0.00000022,0.00000205,0.00000043,0.000
 00417,-0.00000174,-0.00000061,-0.00000066,-0.00000002,0.00000131,0.000
 00364,-0.00000135,-0.00000177,-0.00000266,0.00000632,-0.00000106,-0.00
 000064,-0.00000219,0.00000139,0.00000172,0.00000302,-0.00000009,-0.000
 00012,-0.00000335,-0.00000320,-0.00000135,-0.00000348,0.00000361,0.000
 00238,0.00000452,0.00000260,-0.00000116,0.00000143,0.00000058,0.000000
 15,-0.00000066,0.00000076,-0.00000199,0.00000241,-0.00000135,0.0000012
 3,-0.00000207,0.00000182,-0.00000443,0.00000111,-0.00000108,0.00000303
 ,-0.00000094,0.00000178,-0.00000129,-0.00000277,-0.00000230,-0.0000039
 7,0.00000056,-0.00000144,-0.00000230,-0.00000030,0.00000101,-0.0000012
 2,-0.00000022,0.00000074,0.00000060,-0.00000032,-0.00000151,0.00000021
 ,0.00000131,-0.00000302,0.00000036,0.00000159,0.00000077,0.00000024,0.
 00000077,0.00000003,0.00000025,0.00000121,0.00000021,0.00000321,0.0000
 0048,0.00000120,0.00000309,-0.00000072,0.00000126,0.00000108,-0.000000
 39,0.00000139,-0.00000102,-0.00000059,0.00000013,0.00000175,0.00000051
 ,0.00000015,0.00000185,0.00000010,-0.00000031,-0.00000264,0.00000036,0
 .00000070,-0.00000239,-0.00000048,-0.00000175,0.00000126,0.00000003,-0
 .00000105,0.00000216,-0.00000070,0.00000036,-0.00000151,-0.00000071,0.
 00000086,-0.00000162\\\@


 I LOVE THOSE WHO LONG FOR THE IMPOSSIBLE.

                                 -- GOETHE
 Job cpu time:  0 days 23 hours 44 minutes  1.2 seconds.
 File lengths (MBytes):  RWF=   2040 Int=      0 D2E=      0 Chk=     27 Scr=      1
 Normal termination of Gaussian 09 at Tue Sep  6 22:18:58 2022.
