 Entering Gaussian System, Link 0=g09
 Input=Mol39.gjf
 Output=Mol39.log
 Initial command:
 /opt/gaussian/l1.exe /home/scr/lqcapf-6/Gau-416111.inp -scrdir=/home/scr/lqcapf-6/
 Entering Link 1 = /opt/gaussian/l1.exe PID=    416113.
  
 Copyright (c) 1988,1990,1992,1993,1995,1998,2003,2009,2011,
            Gaussian, Inc.  All Rights Reserved.
  
 This is part of the Gaussian(R) 09 program.  It is based on
 the Gaussian(R) 03 system (copyright 2003, Gaussian, Inc.),
 the Gaussian(R) 98 system (copyright 1998, Gaussian, Inc.),
 the Gaussian(R) 94 system (copyright 1995, Gaussian, Inc.),
 the Gaussian 92(TM) system (copyright 1992, Gaussian, Inc.),
 the Gaussian 90(TM) system (copyright 1990, Gaussian, Inc.),
 the Gaussian 88(TM) system (copyright 1988, Gaussian, Inc.),
 the Gaussian 86(TM) system (copyright 1986, Carnegie Mellon
 University), and the Gaussian 82(TM) system (copyright 1983,
 Carnegie Mellon University). Gaussian is a federally registered
 trademark of Gaussian, Inc.
  
 This software contains proprietary and confidential information,
 including trade secrets, belonging to Gaussian, Inc.
  
 This software is provided under written license and may be
 used, copied, transmitted, or stored only in accord with that
 written license.
  
 The following legend is applicable only to US Government
 contracts under FAR:
  
                    RESTRICTED RIGHTS LEGEND
  
 Use, reproduction and disclosure by the US Government is
 subject to restrictions as set forth in subparagraphs (a)
 and (c) of the Commercial Computer Software - Restricted
 Rights clause in FAR 52.227-19.
  
 Gaussian, Inc.
 340 Quinnipiac St., Bldg. 40, Wallingford CT 06492
  
  
 ---------------------------------------------------------------
 Warning -- This program may not be used in any manner that
 competes with the business of Gaussian, Inc. or will provide
 assistance to any competitor of Gaussian, Inc.  The licensee
 of this program is prohibited from giving any competitor of
 Gaussian, Inc. access to this program.  By using this program,
 the user acknowledges that Gaussian, Inc. is engaged in the
 business of creating and licensing software in the field of
 computational chemistry and represents and warrants to the
 licensee that it is not a competitor of Gaussian, Inc. and that
 it will not use this program in any manner prohibited above.
 ---------------------------------------------------------------
  

 Cite this work as:
 Gaussian 09, Revision C.01,
 M. J. Frisch, G. W. Trucks, H. B. Schlegel, G. E. Scuseria, 
 M. A. Robb, J. R. Cheeseman, G. Scalmani, V. Barone, B. Mennucci, 
 G. A. Petersson, H. Nakatsuji, M. Caricato, X. Li, H. P. Hratchian, 
 A. F. Izmaylov, J. Bloino, G. Zheng, J. L. Sonnenberg, M. Hada, 
 M. Ehara, K. Toyota, R. Fukuda, J. Hasegawa, M. Ishida, T. Nakajima, 
 Y. Honda, O. Kitao, H. Nakai, T. Vreven, J. A. Montgomery, Jr., 
 J. E. Peralta, F. Ogliaro, M. Bearpark, J. J. Heyd, E. Brothers, 
 K. N. Kudin, V. N. Staroverov, T. Keith, R. Kobayashi, J. Normand, 
 K. Raghavachari, A. Rendell, J. C. Burant, S. S. Iyengar, J. Tomasi, 
 M. Cossi, N. Rega, J. M. Millam, M. Klene, J. E. Knox, J. B. Cross, 
 V. Bakken, C. Adamo, J. Jaramillo, R. Gomperts, R. E. Stratmann, 
 O. Yazyev, A. J. Austin, R. Cammi, C. Pomelli, J. W. Ochterski, 
 R. L. Martin, K. Morokuma, V. G. Zakrzewski, G. A. Voth, 
 P. Salvador, J. J. Dannenberg, S. Dapprich, A. D. Daniels, 
 O. Farkas, J. B. Foresman, J. V. Ortiz, J. Cioslowski, 
 and D. J. Fox, Gaussian, Inc., Wallingford CT, 2010.
 
 ******************************************
 Gaussian 09:  EM64L-G09RevC.01 23-Sep-2011
                 9-Sep-2022 
 ******************************************
 %nprocshared=8
 Will use up to    8 processors via shared memory.
 %mem=1600MB
 -------------------------
 #p opt freq b3lyp/cc-pvdz
 -------------------------
 1/14=-1,18=20,19=15,26=3,38=1/1,3;
 2/9=110,12=2,17=6,18=5,40=1/2;
 3/5=16,11=2,16=1,25=1,30=1,71=1,74=-5/1,2,3;
 4//1;
 5/5=2,38=5/2;
 6/7=2,8=2,9=2,10=2,28=1/1;
 7//1,2,3,16;
 1/14=-1,18=20,19=15/3(2);
 2/9=110/2;
 99//99;
 2/9=110/2;
 3/5=16,11=2,16=1,25=1,30=1,71=1,74=-5/1,2,3;
 4/5=5,16=3/1;
 5/5=2,38=5/2;
 7//1,2,3,16;
 1/14=-1,18=20,19=15/3(-5);
 2/9=110/2;
 6/7=2,8=2,9=2,10=2,19=2,28=1/1;
 99/9=1/99;
 Leave Link    1 at Fri Sep  9 07:36:36 2022, MaxMem=  209715200 cpu:       0.2
 (Enter /opt/gaussian/l101.exe)
 ---------
 Mol39.log
 ---------
 Charge =  0 Multiplicity = 1
 Symbolic Z-Matrix:
 Cl                   -2.78982   6.00281  -0.55759 
 C                    -2.06811   4.48257   0.10113 
 C                    -2.17827   4.21749   1.45238 
 C                    -1.62156   3.04685   1.93966 
 C                    -0.96739   2.16538   1.08713 
 C                    -0.86258   2.44483  -0.26957 
 C                    -1.42738   3.62077  -0.76102 
 C                    -0.14155   1.53377  -1.25389 
 N                     0.26048   0.22711  -0.73074 
 C                    -0.62378  -0.8105   -0.55745 
 O                    -0.2961   -1.8677   -0.04353 
 C                    -2.05317  -0.58782  -1.03331 
 N                    -2.8476   -1.77262  -0.93513 
 N                    -3.11148  -2.49543  -2.06246 
 N                    -3.80312  -3.51299  -1.75982 
 C                    -4.02536  -3.51472  -0.39186 
 C                    -4.72817  -4.41159   0.41162 
 C                    -4.78082  -4.14239   1.75711 
 C                    -4.14174  -3.00381   2.29694 
 C                    -3.44436  -2.11697   1.51212 
 C                    -3.40067  -2.3955    0.14377 
 C                     1.64653   0.02652  -0.42814 
 C                     2.33805   0.88711   0.41066 
 C                     3.68946   0.68673   0.63196 
 C                     4.33204  -0.38194   0.01423 
 N                     3.64832  -1.20524  -0.78914 
 C                     2.35669  -1.01599  -1.01008 
 C                     5.7512   -0.672     0.18594 
 C                     6.69774  -0.00114   0.91899 
 N                     7.85965  -0.66398   0.75481 
 N                     7.72195  -1.74276  -0.05358 
 C                     6.45881  -1.75722  -0.40137 
 H                    -2.68425   4.90282   2.1003 
 H                    -1.69625   2.82031   2.98519 
 H                    -0.54098   1.26538   1.48407 
 H                    -1.36741   3.86099  -1.80463 
 H                    -0.75746   1.40731  -2.13557 
 H                     0.76075   2.02347  -1.59164 
 H                    -2.51357   0.2117   -0.46819 
 H                    -2.05829  -0.30508  -2.07519 
 H                    -5.20133  -5.27128  -0.01799 
 H                    -5.30797  -4.80328   2.41625 
 H                    -4.19925  -2.83391   3.35463 
 H                    -2.94661  -1.26813   1.93541 
 H                     1.83549   1.70532   0.88684 
 H                     4.2265    1.35051   1.27859 
 H                     1.87207  -1.71844  -1.6539 
 H                     6.6306    0.87244   1.52573 
 H                     6.06718  -2.51009  -1.04252 
 H                     8.74541  -0.45749   1.14059 
 
 NAtoms=     50 NQM=        0 NQMF=       0 NMMI=     50 NMMIF=      0
                NMic=       0 NMicF=      0.
                    Isotopes and Nuclear Properties:
 (Nuclear quadrupole moments (NQMom) in fm**2, nuclear magnetic moments (NMagM)
  in nuclear magnetons)

  Atom         1           2           3           4           5           6           7           8           9          10
 IAtWgt=          35          12          12          12          12          12          12          12          14          12
 AtmWgt=  34.9688527  12.0000000  12.0000000  12.0000000  12.0000000  12.0000000  12.0000000  12.0000000  14.0030740  12.0000000
 NucSpn=           3           0           0           0           0           0           0           0           2           0
 AtZEff=   0.0000000   0.0000000   0.0000000   0.0000000   0.0000000   0.0000000   0.0000000   0.0000000   0.0000000   0.0000000
 NQMom=   -8.1650000   0.0000000   0.0000000   0.0000000   0.0000000   0.0000000   0.0000000   0.0000000   2.0440000   0.0000000
 NMagM=    0.8218740   0.0000000   0.0000000   0.0000000   0.0000000   0.0000000   0.0000000   0.0000000   0.4037610   0.0000000

  Atom        11          12          13          14          15          16          17          18          19          20
 IAtWgt=          16          12          14          14          14          12          12          12          12          12
 AtmWgt=  15.9949146  12.0000000  14.0030740  14.0030740  14.0030740  12.0000000  12.0000000  12.0000000  12.0000000  12.0000000
 NucSpn=           0           0           2           2           2           0           0           0           0           0
 AtZEff=   0.0000000   0.0000000   0.0000000   0.0000000   0.0000000   0.0000000   0.0000000   0.0000000   0.0000000   0.0000000
 NQMom=    0.0000000   0.0000000   2.0440000   2.0440000   2.0440000   0.0000000   0.0000000   0.0000000   0.0000000   0.0000000
 NMagM=    0.0000000   0.0000000   0.4037610   0.4037610   0.4037610   0.0000000   0.0000000   0.0000000   0.0000000   0.0000000

  Atom        21          22          23          24          25          26          27          28          29          30
 IAtWgt=          12          12          12          12          12          14          12          12          12          14
 AtmWgt=  12.0000000  12.0000000  12.0000000  12.0000000  12.0000000  14.0030740  12.0000000  12.0000000  12.0000000  14.0030740
 NucSpn=           0           0           0           0           0           2           0           0           0           2
 AtZEff=   0.0000000   0.0000000   0.0000000   0.0000000   0.0000000   0.0000000   0.0000000   0.0000000   0.0000000   0.0000000
 NQMom=    0.0000000   0.0000000   0.0000000   0.0000000   0.0000000   2.0440000   0.0000000   0.0000000   0.0000000   2.0440000
 NMagM=    0.0000000   0.0000000   0.0000000   0.0000000   0.0000000   0.4037610   0.0000000   0.0000000   0.0000000   0.4037610

  Atom        31          32          33          34          35          36          37          38          39          40
 IAtWgt=          14          12           1           1           1           1           1           1           1           1
 AtmWgt=  14.0030740  12.0000000   1.0078250   1.0078250   1.0078250   1.0078250   1.0078250   1.0078250   1.0078250   1.0078250
 NucSpn=           2           0           1           1           1           1           1           1           1           1
 AtZEff=   0.0000000   0.0000000   0.0000000   0.0000000   0.0000000   0.0000000   0.0000000   0.0000000   0.0000000   0.0000000
 NQMom=    2.0440000   0.0000000   0.0000000   0.0000000   0.0000000   0.0000000   0.0000000   0.0000000   0.0000000   0.0000000
 NMagM=    0.4037610   0.0000000   2.7928460   2.7928460   2.7928460   2.7928460   2.7928460   2.7928460   2.7928460   2.7928460

  Atom        41          42          43          44          45          46          47          48          49          50
 IAtWgt=           1           1           1           1           1           1           1           1           1           1
 AtmWgt=   1.0078250   1.0078250   1.0078250   1.0078250   1.0078250   1.0078250   1.0078250   1.0078250   1.0078250   1.0078250
 NucSpn=           1           1           1           1           1           1           1           1           1           1
 AtZEff=   0.0000000   0.0000000   0.0000000   0.0000000   0.0000000   0.0000000   0.0000000   0.0000000   0.0000000   0.0000000
 NQMom=    0.0000000   0.0000000   0.0000000   0.0000000   0.0000000   0.0000000   0.0000000   0.0000000   0.0000000   0.0000000
 NMagM=    2.7928460   2.7928460   2.7928460   2.7928460   2.7928460   2.7928460   2.7928460   2.7928460   2.7928460   2.7928460
 Leave Link  101 at Fri Sep  9 07:36:36 2022, MaxMem=  209715200 cpu:       1.0
 (Enter /opt/gaussian/l103.exe)

 GradGradGradGradGradGradGradGradGradGradGradGradGradGradGradGradGradGrad
 Berny optimization.
 Initialization pass.
                           ----------------------------
                           !    Initial Parameters    !
                           ! (Angstroms and Degrees)  !
 --------------------------                            --------------------------
 ! Name  Definition              Value          Derivative Info.                !
 --------------------------------------------------------------------------------
 ! R1    R(1,2)                  1.8072         estimate D2E/DX2                !
 ! R2    R(2,3)                  1.3814         estimate D2E/DX2                !
 ! R3    R(2,7)                  1.3771         estimate D2E/DX2                !
 ! R4    R(3,4)                  1.3848         estimate D2E/DX2                !
 ! R5    R(3,33)                 1.0703         estimate D2E/DX2                !
 ! R6    R(4,5)                  1.3899         estimate D2E/DX2                !
 ! R7    R(4,34)                 1.0724         estimate D2E/DX2                !
 ! R8    R(5,6)                  1.3891         estimate D2E/DX2                !
 ! R9    R(5,35)                 1.0721         estimate D2E/DX2                !
 ! R10   R(6,7)                  1.394          estimate D2E/DX2                !
 ! R11   R(6,8)                  1.5228         estimate D2E/DX2                !
 ! R12   R(7,36)                 1.0726         estimate D2E/DX2                !
 ! R13   R(8,9)                  1.4638         estimate D2E/DX2                !
 ! R14   R(8,37)                 1.0829         estimate D2E/DX2                !
 ! R15   R(8,38)                 1.0808         estimate D2E/DX2                !
 ! R16   R(9,10)                 1.3743         estimate D2E/DX2                !
 ! R17   R(9,22)                 1.4328         estimate D2E/DX2                !
 ! R18   R(10,11)                1.2203         estimate D2E/DX2                !
 ! R19   R(10,12)                1.5229         estimate D2E/DX2                !
 ! R20   R(12,13)                1.4299         estimate D2E/DX2                !
 ! R21   R(12,39)                1.0819         estimate D2E/DX2                !
 ! R22   R(12,40)                1.0796         estimate D2E/DX2                !
 ! R23   R(13,14)                1.3649         estimate D2E/DX2                !
 ! R24   R(13,21)                1.363          estimate D2E/DX2                !
 ! R25   R(14,15)                1.267          estimate D2E/DX2                !
 ! R26   R(15,16)                1.3859         estimate D2E/DX2                !
 ! R27   R(16,17)                1.3942         estimate D2E/DX2                !
 ! R28   R(16,21)                1.3892         estimate D2E/DX2                !
 ! R29   R(17,18)                1.3732         estimate D2E/DX2                !
 ! R30   R(17,41)                1.0712         estimate D2E/DX2                !
 ! R31   R(18,19)                1.4129         estimate D2E/DX2                !
 ! R32   R(18,42)                1.072          estimate D2E/DX2                !
 ! R33   R(19,20)                1.3743         estimate D2E/DX2                !
 ! R34   R(19,43)                1.0728         estimate D2E/DX2                !
 ! R35   R(20,21)                1.3971         estimate D2E/DX2                !
 ! R36   R(20,44)                1.0712         estimate D2E/DX2                !
 ! R37   R(22,23)                1.3865         estimate D2E/DX2                !
 ! R38   R(22,27)                1.3892         estimate D2E/DX2                !
 ! R39   R(23,24)                1.384          estimate D2E/DX2                !
 ! R40   R(23,45)                1.0718         estimate D2E/DX2                !
 ! R41   R(24,25)                1.3916         estimate D2E/DX2                !
 ! R42   R(24,46)                1.071          estimate D2E/DX2                !
 ! R43   R(25,26)                1.3382         estimate D2E/DX2                !
 ! R44   R(25,28)                1.4586         estimate D2E/DX2                !
 ! R45   R(26,27)                1.324          estimate D2E/DX2                !
 ! R46   R(27,47)                1.069          estimate D2E/DX2                !
 ! R47   R(28,29)                1.3724         estimate D2E/DX2                !
 ! R48   R(28,32)                1.4224         estimate D2E/DX2                !
 ! R49   R(29,30)                1.3477         estimate D2E/DX2                !
 ! R50   R(29,48)                1.0657         estimate D2E/DX2                !
 ! R51   R(30,31)                1.3551         estimate D2E/DX2                !
 ! R52   R(30,50)                0.9879         estimate D2E/DX2                !
 ! R53   R(31,32)                1.3102         estimate D2E/DX2                !
 ! R54   R(32,49)                1.0636         estimate D2E/DX2                !
 ! A1    A(1,2,3)              119.086          estimate D2E/DX2                !
 ! A2    A(1,2,7)              118.9493         estimate D2E/DX2                !
 ! A3    A(3,2,7)              121.9645         estimate D2E/DX2                !
 ! A4    A(2,3,4)              118.3165         estimate D2E/DX2                !
 ! A5    A(2,3,33)             120.4634         estimate D2E/DX2                !
 ! A6    A(4,3,33)             121.22           estimate D2E/DX2                !
 ! A7    A(3,4,5)              120.6303         estimate D2E/DX2                !
 ! A8    A(3,4,34)             119.5793         estimate D2E/DX2                !
 ! A9    A(5,4,34)             119.7904         estimate D2E/DX2                !
 ! A10   A(4,5,6)              120.4638         estimate D2E/DX2                !
 ! A11   A(4,5,35)             119.5052         estimate D2E/DX2                !
 ! A12   A(6,5,35)             120.0309         estimate D2E/DX2                !
 ! A13   A(5,6,7)              118.9096         estimate D2E/DX2                !
 ! A14   A(5,6,8)              123.1394         estimate D2E/DX2                !
 ! A15   A(7,6,8)              117.9466         estimate D2E/DX2                !
 ! A16   A(2,7,6)              119.7145         estimate D2E/DX2                !
 ! A17   A(2,7,36)             119.6692         estimate D2E/DX2                !
 ! A18   A(6,7,36)             120.6163         estimate D2E/DX2                !
 ! A19   A(6,8,9)              115.6643         estimate D2E/DX2                !
 ! A20   A(6,8,37)             109.0776         estimate D2E/DX2                !
 ! A21   A(6,8,38)             109.0404         estimate D2E/DX2                !
 ! A22   A(9,8,37)             110.0566         estimate D2E/DX2                !
 ! A23   A(9,8,38)             106.6702         estimate D2E/DX2                !
 ! A24   A(37,8,38)            105.8616         estimate D2E/DX2                !
 ! A25   A(8,9,10)             122.8424         estimate D2E/DX2                !
 ! A26   A(8,9,22)             117.7838         estimate D2E/DX2                !
 ! A27   A(10,9,22)            119.3481         estimate D2E/DX2                !
 ! A28   A(9,10,11)            122.3058         estimate D2E/DX2                !
 ! A29   A(9,10,12)            117.0095         estimate D2E/DX2                !
 ! A30   A(11,10,12)           120.6843         estimate D2E/DX2                !
 ! A31   A(10,12,13)           112.2638         estimate D2E/DX2                !
 ! A32   A(10,12,39)           110.1363         estimate D2E/DX2                !
 ! A33   A(10,12,40)           110.1396         estimate D2E/DX2                !
 ! A34   A(13,12,39)           109.8789         estimate D2E/DX2                !
 ! A35   A(13,12,40)           106.2986         estimate D2E/DX2                !
 ! A36   A(39,12,40)           107.9709         estimate D2E/DX2                !
 ! A37   A(12,13,14)           119.3083         estimate D2E/DX2                !
 ! A38   A(12,13,21)           131.1815         estimate D2E/DX2                !
 ! A39   A(14,13,21)           109.4701         estimate D2E/DX2                !
 ! A40   A(13,14,15)           109.4844         estimate D2E/DX2                !
 ! A41   A(14,15,16)           108.9233         estimate D2E/DX2                !
 ! A42   A(15,16,17)           130.5767         estimate D2E/DX2                !
 ! A43   A(15,16,21)           107.9068         estimate D2E/DX2                !
 ! A44   A(17,16,21)           121.5164         estimate D2E/DX2                !
 ! A45   A(16,17,18)           117.2511         estimate D2E/DX2                !
 ! A46   A(16,17,41)           120.5161         estimate D2E/DX2                !
 ! A47   A(18,17,41)           122.2328         estimate D2E/DX2                !
 ! A48   A(17,18,19)           120.9988         estimate D2E/DX2                !
 ! A49   A(17,18,42)           120.0319         estimate D2E/DX2                !
 ! A50   A(19,18,42)           118.9684         estimate D2E/DX2                !
 ! A51   A(18,19,20)           122.0969         estimate D2E/DX2                !
 ! A52   A(18,19,43)           118.6906         estimate D2E/DX2                !
 ! A53   A(20,19,43)           119.211          estimate D2E/DX2                !
 ! A54   A(19,20,21)           116.5213         estimate D2E/DX2                !
 ! A55   A(19,20,44)           121.4313         estimate D2E/DX2                !
 ! A56   A(21,20,44)           122.0377         estimate D2E/DX2                !
 ! A57   A(13,21,16)           104.208          estimate D2E/DX2                !
 ! A58   A(13,21,20)           134.1737         estimate D2E/DX2                !
 ! A59   A(16,21,20)           121.6146         estimate D2E/DX2                !
 ! A60   A(9,22,23)            121.5569         estimate D2E/DX2                !
 ! A61   A(9,22,27)            120.7383         estimate D2E/DX2                !
 ! A62   A(23,22,27)           117.6625         estimate D2E/DX2                !
 ! A63   A(22,23,24)           119.5958         estimate D2E/DX2                !
 ! A64   A(22,23,45)           120.5803         estimate D2E/DX2                !
 ! A65   A(24,23,45)           119.8239         estimate D2E/DX2                !
 ! A66   A(23,24,25)           119.4123         estimate D2E/DX2                !
 ! A67   A(23,24,46)           119.7633         estimate D2E/DX2                !
 ! A68   A(25,24,46)           120.8236         estimate D2E/DX2                !
 ! A69   A(24,25,26)           120.2012         estimate D2E/DX2                !
 ! A70   A(24,25,28)           123.3473         estimate D2E/DX2                !
 ! A71   A(26,25,28)           116.4511         estimate D2E/DX2                !
 ! A72   A(25,26,27)           120.7099         estimate D2E/DX2                !
 ! A73   A(22,27,26)           122.4172         estimate D2E/DX2                !
 ! A74   A(22,27,47)           120.9082         estimate D2E/DX2                !
 ! A75   A(26,27,47)           116.6686         estimate D2E/DX2                !
 ! A76   A(25,28,29)           129.5479         estimate D2E/DX2                !
 ! A77   A(25,28,32)           125.9517         estimate D2E/DX2                !
 ! A78   A(29,28,32)           104.5003         estimate D2E/DX2                !
 ! A79   A(28,29,30)           106.8062         estimate D2E/DX2                !
 ! A80   A(28,29,48)           131.4032         estimate D2E/DX2                !
 ! A81   A(30,29,48)           121.7906         estimate D2E/DX2                !
 ! A82   A(29,30,31)           112.1238         estimate D2E/DX2                !
 ! A83   A(29,30,50)           128.5058         estimate D2E/DX2                !
 ! A84   A(31,30,50)           119.3703         estimate D2E/DX2                !
 ! A85   A(30,31,32)           105.3733         estimate D2E/DX2                !
 ! A86   A(28,32,31)           111.1964         estimate D2E/DX2                !
 ! A87   A(28,32,49)           127.2833         estimate D2E/DX2                !
 ! A88   A(31,32,49)           121.5202         estimate D2E/DX2                !
 ! D1    D(1,2,3,4)            179.8849         estimate D2E/DX2                !
 ! D2    D(1,2,3,33)             0.0146         estimate D2E/DX2                !
 ! D3    D(7,2,3,4)              0.0641         estimate D2E/DX2                !
 ! D4    D(7,2,3,33)          -179.8062         estimate D2E/DX2                !
 ! D5    D(1,2,7,6)            179.8714         estimate D2E/DX2                !
 ! D6    D(1,2,7,36)            -0.1114         estimate D2E/DX2                !
 ! D7    D(3,2,7,6)             -0.3076         estimate D2E/DX2                !
 ! D8    D(3,2,7,36)           179.7097         estimate D2E/DX2                !
 ! D9    D(2,3,4,5)              0.1175         estimate D2E/DX2                !
 ! D10   D(2,3,4,34)          -179.9287         estimate D2E/DX2                !
 ! D11   D(33,3,4,5)           179.9868         estimate D2E/DX2                !
 ! D12   D(33,3,4,34)           -0.0594         estimate D2E/DX2                !
 ! D13   D(3,4,5,6)             -0.0539         estimate D2E/DX2                !
 ! D14   D(3,4,5,35)           179.8568         estimate D2E/DX2                !
 ! D15   D(34,4,5,6)           179.9924         estimate D2E/DX2                !
 ! D16   D(34,4,5,35)           -0.0969         estimate D2E/DX2                !
 ! D17   D(4,5,6,7)             -0.1877         estimate D2E/DX2                !
 ! D18   D(4,5,6,8)            179.0279         estimate D2E/DX2                !
 ! D19   D(35,5,6,7)           179.902          estimate D2E/DX2                !
 ! D20   D(35,5,6,8)            -0.8823         estimate D2E/DX2                !
 ! D21   D(5,6,7,2)              0.3637         estimate D2E/DX2                !
 ! D22   D(5,6,7,36)          -179.6537         estimate D2E/DX2                !
 ! D23   D(8,6,7,2)           -178.8928         estimate D2E/DX2                !
 ! D24   D(8,6,7,36)             1.0897         estimate D2E/DX2                !
 ! D25   D(5,6,8,9)              9.3711         estimate D2E/DX2                !
 ! D26   D(5,6,8,37)           134.0359         estimate D2E/DX2                !
 ! D27   D(5,6,8,38)          -110.7949         estimate D2E/DX2                !
 ! D28   D(7,6,8,9)           -171.4061         estimate D2E/DX2                !
 ! D29   D(7,6,8,37)           -46.7414         estimate D2E/DX2                !
 ! D30   D(7,6,8,38)            68.4278         estimate D2E/DX2                !
 ! D31   D(6,8,9,10)            77.0791         estimate D2E/DX2                !
 ! D32   D(6,8,9,22)          -104.7784         estimate D2E/DX2                !
 ! D33   D(37,8,9,10)          -47.0776         estimate D2E/DX2                !
 ! D34   D(37,8,9,22)          131.0648         estimate D2E/DX2                !
 ! D35   D(38,8,9,10)         -161.4742         estimate D2E/DX2                !
 ! D36   D(38,8,9,22)           16.6683         estimate D2E/DX2                !
 ! D37   D(8,9,10,11)         -175.3345         estimate D2E/DX2                !
 ! D38   D(8,9,10,12)            4.4407         estimate D2E/DX2                !
 ! D39   D(22,9,10,11)           6.5509         estimate D2E/DX2                !
 ! D40   D(22,9,10,12)        -173.6739         estimate D2E/DX2                !
 ! D41   D(8,9,22,23)           53.8405         estimate D2E/DX2                !
 ! D42   D(8,9,22,27)         -123.7379         estimate D2E/DX2                !
 ! D43   D(10,9,22,23)        -127.9499         estimate D2E/DX2                !
 ! D44   D(10,9,22,27)          54.4717         estimate D2E/DX2                !
 ! D45   D(9,10,12,13)         173.8233         estimate D2E/DX2                !
 ! D46   D(9,10,12,39)         -63.3939         estimate D2E/DX2                !
 ! D47   D(9,10,12,40)          55.5852         estimate D2E/DX2                !
 ! D48   D(11,10,12,13)         -6.3976         estimate D2E/DX2                !
 ! D49   D(11,10,12,39)        116.3851         estimate D2E/DX2                !
 ! D50   D(11,10,12,40)       -124.6358         estimate D2E/DX2                !
 ! D51   D(10,12,13,14)       -102.6445         estimate D2E/DX2                !
 ! D52   D(10,12,13,21)         74.7872         estimate D2E/DX2                !
 ! D53   D(39,12,13,14)        134.4276         estimate D2E/DX2                !
 ! D54   D(39,12,13,21)        -48.1407         estimate D2E/DX2                !
 ! D55   D(40,12,13,14)         17.8414         estimate D2E/DX2                !
 ! D56   D(40,12,13,21)       -164.7269         estimate D2E/DX2                !
 ! D57   D(12,13,14,15)        178.7609         estimate D2E/DX2                !
 ! D58   D(21,13,14,15)          0.8109         estimate D2E/DX2                !
 ! D59   D(12,13,21,16)       -178.4841         estimate D2E/DX2                !
 ! D60   D(12,13,21,20)          2.2319         estimate D2E/DX2                !
 ! D61   D(14,13,21,16)         -0.8594         estimate D2E/DX2                !
 ! D62   D(14,13,21,20)        179.8566         estimate D2E/DX2                !
 ! D63   D(13,14,15,16)         -0.3886         estimate D2E/DX2                !
 ! D64   D(14,15,16,17)        179.7084         estimate D2E/DX2                !
 ! D65   D(14,15,16,21)         -0.1581         estimate D2E/DX2                !
 ! D66   D(15,16,17,18)       -179.7212         estimate D2E/DX2                !
 ! D67   D(15,16,17,41)          0.3404         estimate D2E/DX2                !
 ! D68   D(21,16,17,18)          0.1298         estimate D2E/DX2                !
 ! D69   D(21,16,17,41)       -179.8085         estimate D2E/DX2                !
 ! D70   D(15,16,21,13)          0.6233         estimate D2E/DX2                !
 ! D71   D(15,16,21,20)       -179.9797         estimate D2E/DX2                !
 ! D72   D(17,16,21,13)       -179.2578         estimate D2E/DX2                !
 ! D73   D(17,16,21,20)          0.1392         estimate D2E/DX2                !
 ! D74   D(16,17,18,19)         -0.2377         estimate D2E/DX2                !
 ! D75   D(16,17,18,42)       -179.9028         estimate D2E/DX2                !
 ! D76   D(41,17,18,19)        179.6996         estimate D2E/DX2                !
 ! D77   D(41,17,18,42)          0.0344         estimate D2E/DX2                !
 ! D78   D(17,18,19,20)          0.0841         estimate D2E/DX2                !
 ! D79   D(17,18,19,43)       -179.4617         estimate D2E/DX2                !
 ! D80   D(42,18,19,20)        179.7527         estimate D2E/DX2                !
 ! D81   D(42,18,19,43)          0.207          estimate D2E/DX2                !
 ! D82   D(18,19,20,21)          0.18           estimate D2E/DX2                !
 ! D83   D(18,19,20,44)       -178.7056         estimate D2E/DX2                !
 ! D84   D(43,19,20,21)        179.7234         estimate D2E/DX2                !
 ! D85   D(43,19,20,44)          0.8379         estimate D2E/DX2                !
 ! D86   D(19,20,21,13)        178.8964         estimate D2E/DX2                !
 ! D87   D(19,20,21,16)         -0.2885         estimate D2E/DX2                !
 ! D88   D(44,20,21,13)         -2.2254         estimate D2E/DX2                !
 ! D89   D(44,20,21,16)        178.5897         estimate D2E/DX2                !
 ! D90   D(9,22,23,24)        -177.3664         estimate D2E/DX2                !
 ! D91   D(9,22,23,45)           2.5475         estimate D2E/DX2                !
 ! D92   D(27,22,23,24)          0.2836         estimate D2E/DX2                !
 ! D93   D(27,22,23,45)       -179.8025         estimate D2E/DX2                !
 ! D94   D(9,22,27,26)         177.6879         estimate D2E/DX2                !
 ! D95   D(9,22,27,47)          -3.2299         estimate D2E/DX2                !
 ! D96   D(23,22,27,26)          0.0177         estimate D2E/DX2                !
 ! D97   D(23,22,27,47)        179.0999         estimate D2E/DX2                !
 ! D98   D(22,23,24,25)         -0.3812         estimate D2E/DX2                !
 ! D99   D(22,23,24,46)        179.935          estimate D2E/DX2                !
 ! D100  D(45,23,24,25)        179.7042         estimate D2E/DX2                !
 ! D101  D(45,23,24,46)          0.0204         estimate D2E/DX2                !
 ! D102  D(23,24,25,26)          0.1799         estimate D2E/DX2                !
 ! D103  D(23,24,25,28)        179.9433         estimate D2E/DX2                !
 ! D104  D(46,24,25,26)        179.8603         estimate D2E/DX2                !
 ! D105  D(46,24,25,28)         -0.3763         estimate D2E/DX2                !
 ! D106  D(24,25,26,27)          0.1228         estimate D2E/DX2                !
 ! D107  D(28,25,26,27)       -179.6564         estimate D2E/DX2                !
 ! D108  D(24,25,28,29)         -0.9677         estimate D2E/DX2                !
 ! D109  D(24,25,28,32)        179.0253         estimate D2E/DX2                !
 ! D110  D(26,25,28,29)        178.8039         estimate D2E/DX2                !
 ! D111  D(26,25,28,32)         -1.2032         estimate D2E/DX2                !
 ! D112  D(25,26,27,22)         -0.2245         estimate D2E/DX2                !
 ! D113  D(25,26,27,47)       -179.3433         estimate D2E/DX2                !
 ! D114  D(25,28,29,30)       -179.9869         estimate D2E/DX2                !
 ! D115  D(25,28,29,48)         -0.0265         estimate D2E/DX2                !
 ! D116  D(32,28,29,30)          0.0189         estimate D2E/DX2                !
 ! D117  D(32,28,29,48)        179.9794         estimate D2E/DX2                !
 ! D118  D(25,28,32,31)        179.9966         estimate D2E/DX2                !
 ! D119  D(25,28,32,49)         -0.1144         estimate D2E/DX2                !
 ! D120  D(29,28,32,31)         -0.009          estimate D2E/DX2                !
 ! D121  D(29,28,32,49)        179.88           estimate D2E/DX2                !
 ! D122  D(28,29,30,31)         -0.0236         estimate D2E/DX2                !
 ! D123  D(28,29,30,50)       -179.9181         estimate D2E/DX2                !
 ! D124  D(48,29,30,31)       -179.9886         estimate D2E/DX2                !
 ! D125  D(48,29,30,50)          0.1168         estimate D2E/DX2                !
 ! D126  D(29,30,31,32)          0.0176         estimate D2E/DX2                !
 ! D127  D(50,30,31,32)        179.923          estimate D2E/DX2                !
 ! D128  D(30,31,32,28)         -0.0047         estimate D2E/DX2                !
 ! D129  D(30,31,32,49)       -179.9011         estimate D2E/DX2                !
 --------------------------------------------------------------------------------
 Trust Radius=3.00D-01 FncErr=1.00D-07 GrdErr=1.00D-06
 Number of steps in this run=    281 maximum allowed number of steps=    300.
 GradGradGradGradGradGradGradGradGradGradGradGradGradGradGradGradGradGrad

 Leave Link  103 at Fri Sep  9 07:36:36 2022, MaxMem=  209715200 cpu:       0.1
 (Enter /opt/gaussian/l202.exe)
                          Input orientation:                          
 ---------------------------------------------------------------------
 Center     Atomic      Atomic             Coordinates (Angstroms)
 Number     Number       Type             X           Y           Z
 ---------------------------------------------------------------------
      1         17           0       -2.789820    6.002810   -0.557590
      2          6           0       -2.068110    4.482570    0.101130
      3          6           0       -2.178270    4.217490    1.452380
      4          6           0       -1.621560    3.046850    1.939660
      5          6           0       -0.967390    2.165380    1.087130
      6          6           0       -0.862580    2.444830   -0.269570
      7          6           0       -1.427380    3.620770   -0.761020
      8          6           0       -0.141550    1.533770   -1.253890
      9          7           0        0.260480    0.227110   -0.730740
     10          6           0       -0.623780   -0.810500   -0.557450
     11          8           0       -0.296100   -1.867700   -0.043530
     12          6           0       -2.053170   -0.587820   -1.033310
     13          7           0       -2.847600   -1.772620   -0.935130
     14          7           0       -3.111480   -2.495430   -2.062460
     15          7           0       -3.803120   -3.512990   -1.759820
     16          6           0       -4.025360   -3.514720   -0.391860
     17          6           0       -4.728170   -4.411590    0.411620
     18          6           0       -4.780820   -4.142390    1.757110
     19          6           0       -4.141740   -3.003810    2.296940
     20          6           0       -3.444360   -2.116970    1.512120
     21          6           0       -3.400670   -2.395500    0.143770
     22          6           0        1.646530    0.026520   -0.428140
     23          6           0        2.338050    0.887110    0.410660
     24          6           0        3.689460    0.686730    0.631960
     25          6           0        4.332040   -0.381940    0.014230
     26          7           0        3.648320   -1.205240   -0.789140
     27          6           0        2.356690   -1.015990   -1.010080
     28          6           0        5.751200   -0.672000    0.185940
     29          6           0        6.697740   -0.001140    0.918990
     30          7           0        7.859650   -0.663980    0.754810
     31          7           0        7.721950   -1.742760   -0.053580
     32          6           0        6.458810   -1.757220   -0.401370
     33          1           0       -2.684250    4.902820    2.100300
     34          1           0       -1.696250    2.820310    2.985190
     35          1           0       -0.540980    1.265380    1.484070
     36          1           0       -1.367410    3.860990   -1.804630
     37          1           0       -0.757460    1.407310   -2.135570
     38          1           0        0.760750    2.023470   -1.591640
     39          1           0       -2.513570    0.211700   -0.468190
     40          1           0       -2.058290   -0.305080   -2.075190
     41          1           0       -5.201330   -5.271280   -0.017990
     42          1           0       -5.307970   -4.803280    2.416250
     43          1           0       -4.199250   -2.833910    3.354630
     44          1           0       -2.946610   -1.268130    1.935410
     45          1           0        1.835490    1.705320    0.886840
     46          1           0        4.226500    1.350510    1.278590
     47          1           0        1.872070   -1.718440   -1.653900
     48          1           0        6.630600    0.872440    1.525730
     49          1           0        6.067180   -2.510090   -1.042520
     50          1           0        8.745410   -0.457490    1.140590
 ---------------------------------------------------------------------
                    Distance matrix (angstroms):
                    1          2          3          4          5
     1  Cl   0.000000
     2  C    1.807182   0.000000
     3  C    2.757053   1.381405   0.000000
     4  C    4.042127   2.375056   1.384834   0.000000
     5  C    4.555461   2.748299   2.410559   1.389869   0.000000
     6  C    4.056653   2.396478   2.799728   2.412297   1.389141
     7  C    2.751680   1.377148   2.412271   2.767808   2.396958
     8  C    5.241229   3.774008   4.321398   3.831266   2.561507
     9  N    6.533990   4.921715   5.161070   4.315558   2.927321
    10  C    7.149330   5.525976   5.633519   4.702156   3.417393
    11  O    8.272111   6.594458   6.542924   5.462846   4.242023
    12  C    6.648712   5.195771   5.411590   4.715471   3.640782
    13  N    7.784805   6.388180   6.483026   5.744117   4.809633
    14  N    8.636445   7.379853   7.634676   6.996692   6.019982
    15  N    9.644822   8.390612   8.527525   7.840718   6.956319
    16  C    9.598823   8.248061   8.160884   7.366712   6.618318
    17  C   10.637495   9.288617   9.057935   8.222789   7.606334
    18  C   10.594668   9.191899   8.760920   7.854898   7.401289
    19  C    9.544382   8.072633   7.530981   6.564255   6.185520
    20  C    8.404936   6.887589   6.460026   5.492761   4.965332
    21  C    8.449654   7.006096   6.851157   6.000802   5.254751
    22  C    7.444058   5.825381   5.977431   5.040762   3.701803
    23  C    7.307732   5.695383   5.707342   4.762439   3.607980
    24  C    8.465034   6.916632   6.897073   5.957112   4.907121
    25  C    9.581905   8.039461   8.099825   7.135071   5.976948
    26  N    9.667432   8.113035   8.269194   7.300565   6.015501
    27  C    8.715209   7.144775   7.349754   6.405787   5.056571
    28  C   10.865309   9.365810   9.401461   8.441740   7.348627
    29  C   11.324376   9.879913   9.841997   8.918675   7.967201
    30  N   12.632486  11.201549  11.183702  10.250243   9.275363
    31  N   13.066950  11.602756  11.653620  10.687121   9.595802
    32  C   12.073923  10.578083  10.664553   9.687718   8.529412
    33  H    2.878455   2.133757   1.070277   2.144700   3.386399
    34  H    4.886255   3.349506   2.129310   1.072395   2.136072
    35  H    5.627513   3.820335   3.375896   2.132803   1.072095
    36  H    2.857578   2.123503   3.375307   3.840198   3.376001
    37  H    5.266795   4.022170   4.773803   4.476858   3.317309
    38  H    5.432399   4.112796   4.766300   4.380957   3.190990
    39  H    5.798384   4.331615   4.455039   3.825114   2.937100
    40  H    6.528991   5.259093   5.736879   5.248351   4.158546
    41  H   11.541735  10.245431  10.066660   9.264903   8.628525
    42  H   11.487227  10.103637   9.596789   8.685695   8.316815
    43  H    9.766247   8.286006   7.577939   6.574950   6.370194
    44  H    7.688056   6.099746   5.560188   4.513848   4.052886
    45  H    6.476750   4.854745   4.768763   3.854780   2.847439
    46  H    8.616507   7.128697   7.019320   6.124899   5.260909
    47  H    9.085858   7.553653   7.828761   6.915715   5.537133
    48  H   10.927270   9.525234   9.422894   8.543860   7.719684
    49  H   12.294351  10.788335  10.930339   9.944330   8.710947
    50  H   13.329697  11.933855  11.886103  10.972373  10.060854
                    6          7          8          9         10
     6  C    0.000000
     7  C    1.394043   0.000000
     8  C    1.522761   2.500370   0.000000
     9  N    2.528285   3.790345   1.463788   0.000000
    10  C    3.276747   4.508145   2.492624   1.374256   0.000000
    11  O    4.355446   5.649592   3.613704   2.273822   1.220311
    12  C    3.346307   4.263565   2.864278   2.471565   1.522887
    13  N    4.708520   5.579964   4.284452   3.701467   2.452283
    14  N    5.716483   6.475943   5.070377   4.533852   3.360461
    15  N    6.809056   7.585003   6.255625   5.617846   4.342505
    16  C    6.747916   7.602697   6.427622   5.699522   4.348675
    17  C    7.900462   8.762939   7.691444   6.907181   5.545535
    18  C    7.927894   8.823446   7.925133   7.120157   5.808585
    19  C    6.857663   7.784853   7.014239   6.243815   5.033308
    20  C    5.536247   6.492845   5.646881   4.924528   3.734388
    21  C    5.481017   6.395938   5.292871   4.587687   3.273385
    22  C    3.488409   4.741135   2.480100   1.432808   2.423145
    23  C    3.623981   4.798353   3.055702   2.460628   3.548458
    24  C    4.962332   6.060613   4.353222   3.718347   4.718096
    25  C    5.920747   7.056459   5.029024   4.183721   5.007058
    26  N    5.825906   7.003848   4.699073   3.678654   4.296550
    27  C    4.784279   5.990055   3.577977   2.453044   3.021639
    28  C    7.325586   8.417637   6.454691   5.638857   6.419671
    29  C    8.034543   9.053079   7.338477   6.649212   7.512629
    30  N    9.316188  10.339524   8.537223   7.794119   8.585574
    31  N    9.553885  10.629119   8.602966   7.746771   8.412741
    32  C    8.442591   9.552179   7.424430   6.516544   7.147288
    33  H    3.869946   3.377947   5.391327   6.208743   6.629570
    34  H    3.380747   3.840197   4.694899   4.935749   5.184908
    35  H    2.137705   3.372536   2.779929   2.574049   2.912720
    36  H    2.148667   1.072578   2.687378   4.124118   4.891959
    37  H    2.137628   2.690276   1.082911   2.098242   2.725255
    38  H    2.135559   2.833586   1.080753   2.053857   3.319316
    39  H    2.784257   3.589891   2.826955   2.786489   2.150388
    40  H    3.500284   4.187767   2.780251   2.732667   2.148675
    41  H    8.855868   9.688310   8.569570   7.782781   6.414323
    42  H    8.916850   9.804012   8.962144   8.137322   6.835702
    43  H    7.220339   8.141544   7.535251   6.778590   5.672966
    44  H    4.794913   5.786202   5.088285   4.430522   3.437923
    45  H    3.027167   4.126828   2.919048   2.698579   3.803069
    46  H    5.430752   6.424986   5.052415   4.585711   5.618383
    47  H    5.169864   6.339619   3.845978   2.689723   2.873295
    48  H    7.864049   8.815531   7.350215   6.788707   7.732914
    49  H    8.553962   9.686853   7.412544   6.427071   6.920466
    50  H   10.135358  11.123578   9.416831   8.715767   9.528362
                   11         12         13         14         15
    11  O    0.000000
    12  C    2.388525   0.000000
    13  N    2.704467   1.429863   0.000000
    14  N    3.520865   2.412083   1.364903   0.000000
    15  N    4.236959   3.485220   2.149888   1.267038   0.000000
    16  C    4.091624   3.587163   2.171905   2.159869   1.385896
    17  C    5.130476   4.885147   3.509194   3.522276   2.525540
    18  C    5.341276   5.278398   4.074470   4.481996   3.704165
    19  C    4.643005   4.614076   3.692818   4.508243   4.102588
    20  C    3.520472   3.279165   2.542387   3.609940   3.575356
    21  C    3.154680   2.543419   1.363045   2.227345   2.243748
    22  C    2.740402   3.798871   4.867355   5.627601   6.633264
    23  C    3.838491   4.852142   5.981328   6.874247   7.860396
    24  C    4.781850   6.113542   7.158025   7.977395   8.916110
    25  C    4.861121   6.473842   7.374450   8.011584   8.895592
    26  N    4.068567   5.740019   6.522286   6.998631   7.860782
    27  C    2.949055   4.430658   5.259538   5.761695   6.688825
    28  C    6.168646   7.899484   8.741140   9.323481  10.155897
    29  C    7.302348   8.985215   9.883796  10.551366  11.391979
    30  N    8.282665  10.073092  10.896338  11.474185  12.266231
    31  N    8.019030   9.891751  10.606291  11.043791  11.784405
    32  C    6.765284   8.615141   9.321717   9.741387  10.499301
    33  H    7.492610   6.353338   7.334986   8.499718   9.326213
    34  H    5.754216   5.281201   6.147318   7.465838   8.189305
    35  H    3.494241   3.472502   4.516909   5.773131   6.633038
    36  H    6.088273   4.566959   5.889359   6.596388   7.765969
    37  H    3.913461   2.621905   3.990200   4.558304   5.798843
    38  H    4.319118   3.879267   5.278399   5.969614   7.177018
    39  H    3.069432   1.081925   2.065704   3.198085   4.147838
    40  H    3.110424   1.079575   2.019015   2.430433   3.665321
    41  H    5.970451   5.733811   4.315300   4.031461   2.842630
    42  H    6.307693   6.345336   5.144907   5.496325   4.622660
    43  H    5.264564   5.376300   4.621183   5.535583   5.174521
    44  H    3.361680   3.174012   2.916216   4.185261   4.407690
    45  H    4.263301   4.905828   6.111217   7.128617   8.125853
    46  H    5.706031   6.966797   8.043469   8.933075   9.867136
    47  H    2.704909   4.131700   4.774395   5.060277   5.953101
    48  H    7.612497   9.170000  10.143394  10.914476  11.785133
    49  H    6.473174   8.344776   8.945876   9.235166   9.947017
    50  H    9.227120  11.015996  11.850572  12.449842  13.236845
                   16         17         18         19         20
    16  C    0.000000
    17  C    1.394237   0.000000
    18  C    2.362787   1.373166   0.000000
    19  C    2.739383   2.424907   1.412871   0.000000
    20  C    2.432366   2.850360   2.438949   1.374324   0.000000
    21  C    1.389169   2.428707   2.749419   2.356983   1.397093
    22  C    6.686706   7.812734   7.966552   7.079056   5.854598
    23  C    7.779019   8.832196   8.819700   7.790057   6.608629
    24  C    8.844141   9.843674   9.814887   8.815891   7.715362
    25  C    8.934504   9.923880  10.011135   9.159144   8.107182
    26  N    8.023521   9.049204   9.282276   8.569935   7.512201
    27  C    6.881599   7.984145   8.268964   7.557606   6.420734
    28  C   10.197845  11.128911  11.199805  10.380940   9.402394
    29  C   11.359949  12.258096  12.231506  11.331774  10.377415
    30  N   12.275791  13.138325  13.148590  12.324217  11.422143
    31  N   11.885014  12.741450  12.859086  12.159866  11.281752
    32  C   10.630462  11.526281  11.690909  11.009383  10.092752
    33  H    8.880564   9.684394   9.291351   8.042247   7.085279
    34  H    7.547306   8.253253   7.713750   6.354092   5.440823
    35  H    6.205592   7.135173   6.877119   5.643777   4.457656
    36  H    7.966286   9.200112   9.401673   8.464352   7.144967
    37  H    6.160038   7.490949   7.882865   7.110448   5.739828
    38  H    7.417403   8.692025   8.940971   8.026768   6.667797
    39  H    4.022131   5.201281   5.389850   4.542729   3.195419
    40  H    4.123682   5.493260   6.068249   5.544315   4.251227
    41  H    2.146669   1.071220   2.145274   3.409260   3.921460
    42  H    3.345289   2.123236   1.071974   2.147654   3.392161
    43  H    3.811814   3.380849   2.145324   1.072791   2.116295
    44  H    3.409847   3.921381   3.414306   2.138136   1.071195
    45  H    7.951947   8.984657   8.872916   7.738964   6.548106
    46  H    9.723891  10.683611  10.560906   9.488128   8.421404
    47  H    6.292777   7.421765   7.859483   7.309393   6.200559
    48  H   11.682200  12.577117  12.466859  11.474467  10.509119
    49  H   10.163267  11.057568  11.321724  10.752572   9.856476
    50  H   13.220727  14.060713  14.032729  13.187097  12.307819
                   21         22         23         24         25
    21  C    0.000000
    22  C    5.627387   0.000000
    23  C    6.616620   1.386507   0.000000
    24  C    7.746510   2.394421   1.383992   0.000000
    25  C    7.991621   2.752180   2.396589   1.391602   0.000000
    26  N    7.209390   2.377965   2.744860   2.366594   1.338170
    27  C    6.031717   1.389175   2.375003   2.715111   2.313707
    28  C    9.312838   4.208722   3.759111   2.509154   1.458641
    29  C   10.407296   5.227834   4.478201   3.099242   2.561276
    30  N   11.409046   6.362313   5.745641   4.385202   3.615527
    31  N   11.143504   6.338878   6.009835   4.757453   3.653480
    32  C    9.895147   5.132298   4.963118   3.835357   2.566568
    33  H    7.589911   6.994781   6.648632   7.781749   9.028217
    34  H    6.179271   5.534461   5.161496   6.252658   7.444548
    35  H    4.834902   3.158563   3.095822   4.354027   5.349805
    36  H    6.861055   5.067713   5.242319   6.448630   7.334469
    37  H    5.161716   3.255928   4.041791   5.287112   5.807415
    38  H    6.313189   2.475106   2.790770   3.912622   4.595533
    39  H    2.821158   4.164412   4.976623   6.317718   6.888216
    40  H    3.331009   4.067975   5.189275   6.430317   6.723682
    41  H    3.396859   8.667646   9.744319  10.722242  10.714095
    42  H    3.820911   8.932110   9.739844  10.690072  10.874178
    43  H    3.337597   7.527586   8.077700   9.057571   9.484373
    44  H    2.164973   5.325357   5.907415   7.039736   7.579908
    45  H    6.692253   2.140852   1.071812   2.130656   3.369104
    46  H    8.572872   3.364836   2.129386   1.071049   2.147354
    47  H    5.611757   2.144351   3.356849   3.783240   3.258887
    48  H   10.640283   5.419792   4.435040   3.079548   3.023488
    49  H    9.542568   5.133615   5.249677   4.321700   2.942185
    50  H   12.340048   7.286239   6.587489   5.208702   4.555461
                   26         27         28         29         30
    26  N    0.000000
    27  C    1.323986   0.000000
    28  C    2.378493   3.615452   0.000000
    29  C    3.696827   4.857566   1.372353   0.000000
    30  N    4.517969   5.789760   2.183859   1.347719   0.000000
    31  N    4.174259   5.498100   2.255605   2.242351   1.355073
    32  C    2.890312   4.212759   1.422444   2.210035   2.119971
    33  H    9.260600   8.373640  10.290783  10.652045  11.998893
    34  H    7.682125   6.863359   8.688875   9.093340  10.412977
    35  H    5.368583   4.452182   6.710448   7.370377   8.650135
    36  H    7.201073   6.187501   8.670927   9.347770  10.590785
    37  H    5.296148   4.103296   7.216342   8.178880   9.321970
    38  H    4.405296   3.481889   5.943899   6.756490   7.944973
    39  H    6.330846   5.051762   8.337580   9.317607  10.481710
    40  H    5.918582   4.596945   8.138518   9.258810  10.320041
    41  H    9.769527   8.730143  11.880778  13.047612  13.871324
    42  H   10.170327   9.210337  12.014450  13.016889  13.902532
    43  H    9.022624   8.083061  10.664235  11.519606  12.525363
    44  H    7.135841   6.071612   8.892014   9.780177  10.887335
    45  H    3.816624   3.357899   4.634188   5.153107   6.474683
    46  H    3.337912   3.786096   2.758467   2.839595   4.187158
    47  H    2.041139   1.069017   4.419015   5.732013   6.539487
    48  H    4.309219   5.316278   2.225686   1.065731   2.113165
    49  H    2.760021   4.000140   2.233278   3.246530   3.138705
    50  H    5.501210   6.764100   3.150026   2.109577   0.987945
                   31         32         33         34         35
    31  N    0.000000
    32  C    1.310225   0.000000
    33  H   12.533632  11.584905   0.000000
    34  H   10.897625   9.946234   2.469012   0.000000
    35  H    8.926886   7.854174   4.266652   2.450677   0.000000
    36  H   10.820566   9.735663   4.250642   4.912589   4.270331
    37  H    9.282134   8.068225   5.820112   5.394449   3.628884
    38  H    8.062780   6.941055   5.812839   5.255395   3.424791
    39  H   10.428695   9.186115   5.350970   4.404395   2.968614
    40  H   10.089942   8.800646   6.704384   5.958740   4.175752
    41  H   13.396376  12.184189  10.692762   9.315498   8.167189
    42  H   13.610498  12.476962  10.059429   8.455019   7.773145
    43  H   12.446747  11.351698   7.982829   6.194489   5.803974
    44  H   10.862759   9.703694   6.178725   4.402361   3.522703
    45  H    6.886513   5.918087   5.667852   4.256696   2.489546
    46  H    4.853985   4.178930   7.813615   6.336542   4.772665
    47  H    6.064875   4.754842   8.871029   7.406370   4.957101
    48  H    3.244154   3.264711  10.165654   8.675290   7.182458
    49  H    2.074864   1.063607  11.891849  10.242385   8.019078
    50  H    2.031116   3.048849  12.660612  11.098414   9.451100
                   36         37         38         39         40
    36  H    0.000000
    37  H    2.549923   0.000000
    38  H    2.819736   1.726405   0.000000
    39  H    4.051799   2.700659   3.907150   0.000000
    40  H    4.231626   2.151298   3.688218   1.748368   0.000000
    41  H   10.064263   8.296728   9.551762   6.122892   6.226870
    42  H   10.412176   8.944140   9.974821   6.424849   7.139136
    43  H    8.913976   7.744428   8.524161   5.170223   6.360946
    44  H    6.541379   5.340715   6.084343   2.855646   4.219181
    45  H    4.706325   3.993390   2.720138   4.793885   5.289315
    46  H    6.862987   6.041488   4.550002   7.055258   7.313508
    47  H    6.453448   4.112997   3.903947   4.936110   4.197952
    48  H    9.164655   8.262847   6.745221   9.382331   9.478923
    49  H    9.820621   7.944589   7.000921   9.020381   8.482437
    50  H   11.383880  10.223270   8.796308  11.393007  11.273172
                   41         42         43         44         45
    41  H    0.000000
    42  H    2.481113   0.000000
    43  H    4.280129   2.447087   0.000000
    44  H    4.992469   4.278377   2.456615   0.000000
    45  H    9.950302   9.784170   7.944349   5.727948   0.000000
    46  H   11.593671  11.404802   9.633928   7.664346   2.448732
    47  H    8.082813   8.811091   7.949250   6.025413   4.263664
    48  H   13.420989  13.249010  11.591702   9.822058   4.908661
    49  H   11.647023  12.108503  11.173154   9.573868   6.276887
    50  H   14.799542  14.765185  13.345920  11.747008   7.244938
                   46         47         48         49         50
    46  H    0.000000
    47  H    4.853998   0.000000
    48  H    2.463600   6.282222   0.000000
    49  H    4.866198   4.312707   4.284257   0.000000
    50  H    4.869133   7.526086   2.527740   4.018962   0.000000
 Stoichiometry    C23H18ClN7O
 Framework group  C1[X(C23H18ClN7O)]
 Deg. of freedom   144
 Full point group                 C1      NOp   1
 Largest Abelian subgroup         C1      NOp   1
 Largest concise Abelian subgroup C1      NOp   1
                         Standard orientation:                         
 ---------------------------------------------------------------------
 Center     Atomic      Atomic             Coordinates (Angstroms)
 Number     Number       Type             X           Y           Z
 ---------------------------------------------------------------------
      1         17           0       -2.789821    6.002810   -0.557590
      2          6           0       -2.068111    4.482570    0.101130
      3          6           0       -2.178271    4.217490    1.452380
      4          6           0       -1.621561    3.046850    1.939660
      5          6           0       -0.967390    2.165380    1.087130
      6          6           0       -0.862580    2.444830   -0.269570
      7          6           0       -1.427381    3.620770   -0.761020
      8          6           0       -0.141550    1.533770   -1.253890
      9          7           0        0.260480    0.227110   -0.730740
     10          6           0       -0.623780   -0.810500   -0.557450
     11          8           0       -0.296099   -1.867700   -0.043530
     12          6           0       -2.053170   -0.587820   -1.033310
     13          7           0       -2.847599   -1.772620   -0.935130
     14          7           0       -3.111479   -2.495431   -2.062460
     15          7           0       -3.803119   -3.512991   -1.759820
     16          6           0       -4.025359   -3.514721   -0.391860
     17          6           0       -4.728169   -4.411591    0.411620
     18          6           0       -4.780819   -4.142391    1.757110
     19          6           0       -4.141739   -3.003811    2.296940
     20          6           0       -3.444359   -2.116971    1.512120
     21          6           0       -3.400669   -2.395501    0.143770
     22          6           0        1.646530    0.026521   -0.428140
     23          6           0        2.338050    0.887111    0.410660
     24          6           0        3.689460    0.686731    0.631960
     25          6           0        4.332040   -0.381939    0.014230
     26          7           0        3.648321   -1.205239   -0.789140
     27          6           0        2.356690   -1.015989   -1.010080
     28          6           0        5.751200   -0.671998    0.185940
     29          6           0        6.697740   -0.001138    0.918990
     30          7           0        7.859650   -0.663978    0.754810
     31          7           0        7.721951   -1.742758   -0.053580
     32          6           0        6.458811   -1.757218   -0.401370
     33          1           0       -2.684251    4.902820    2.100300
     34          1           0       -1.696251    2.820310    2.985190
     35          1           0       -0.540980    1.265380    1.484070
     36          1           0       -1.367411    3.860990   -1.804630
     37          1           0       -0.757460    1.407310   -2.135570
     38          1           0        0.760750    2.023471   -1.591640
     39          1           0       -2.513570    0.211700   -0.468190
     40          1           0       -2.058290   -0.305080   -2.075190
     41          1           0       -5.201328   -5.271281   -0.017990
     42          1           0       -5.307968   -4.803281    2.416250
     43          1           0       -4.199249   -2.833911    3.354630
     44          1           0       -2.946609   -1.268130    1.935410
     45          1           0        1.835490    1.705321    0.886840
     46          1           0        4.226500    1.350511    1.278590
     47          1           0        1.872071   -1.718439   -1.653900
     48          1           0        6.630600    0.872442    1.525730
     49          1           0        6.067181   -2.510088   -1.042520
     50          1           0        8.745410   -0.457487    1.140590
 ---------------------------------------------------------------------
 Rotational constants (GHZ):      0.1230554      0.0736520      0.0507509
 Leave Link  202 at Fri Sep  9 07:36:36 2022, MaxMem=  209715200 cpu:       0.0
 (Enter /opt/gaussian/l301.exe)
 Standard basis: CC-pVDZ (5D, 7F)
 Ernie: Thresh=  0.10000D-02 Tol=  0.10000D-05 Strict=F.
 Ernie:  72 primitive shells out of 822 were deleted.
 There are   542 symmetry adapted basis functions of A   symmetry.
 Integral buffers will be    131072 words long.
 Raffenetti 2 integral format.
 Two-electron integral symmetry is turned on.
   542 basis functions,  1220 primitive gaussians,   574 cartesian basis functions
   115 alpha electrons      115 beta electrons
       nuclear repulsion energy      3042.0232280302 Hartrees.
 IExCor=  402 DFT=T Ex+Corr=B3LYP ExCW=0 ScaHFX=  0.200000
 ScaDFX=  0.800000  0.720000  1.000000  0.810000 ScalE2=  1.000000  1.000000
 IRadAn=      0 IRanWt=     -1 IRanGd=            0 ICorTp=0
 NAtoms=   50 NActive=   50 NUniq=   50 SFac= 1.00D+00 NAtFMM=   60 NAOKFM=F Big=F
 Leave Link  301 at Fri Sep  9 07:36:36 2022, MaxMem=  209715200 cpu:       0.3
 (Enter /opt/gaussian/l302.exe)
 NPDir=0 NMtPBC=     1 NCelOv=     1 NCel=       1 NClECP=     1 NCelD=      1
         NCelK=      1 NCelE2=     1 NClLst=     1 CellRange=     0.0.
 One-electron integrals computed using PRISM.
 NBasis=   542 RedAO= T  NBF=   542
 NBsUse=   542 1.00D-06 NBFU=   542
 Precomputing XC quadrature grid using
 IXCGrd= 2 IRadAn=           0 IRanWt=          -1 IRanGd=           0 AccXCQ= 0.00D+00.
 NRdTot=    3223 NPtTot=      411698 NUsed=      434922 NTot=      434954
 NSgBfM=   550   550   550   550   550 NAtAll=    50    50.
 Leave Link  302 at Fri Sep  9 07:36:37 2022, MaxMem=  209715200 cpu:       8.1
 (Enter /opt/gaussian/l303.exe)
 DipDrv:  MaxL=1.
 Leave Link  303 at Fri Sep  9 07:36:37 2022, MaxMem=  209715200 cpu:       1.2
 (Enter /opt/gaussian/l401.exe)
 Harris functional with IExCor=  402 diagonalized for initial guess.
 ExpMin= 1.22D-01 ExpMax= 1.28D+05 ExpMxC= 1.24D+03 IAcc=2 IRadAn=         4 AccDes= 0.00D+00
 HarFok:  IExCor=  402 AccDes= 0.00D+00 IRadAn=         4 IDoV= 1
 ScaDFX=  1.000000  1.000000  1.000000  1.000000
 FoFCou: FMM=F IPFlag=           0 FMFlag=      100000 FMFlg1=           0
         NFxFlg=           0 DoJE=T BraDBF=F KetDBF=T FulRan=T
         Omega=  0.000000  0.000000  1.000000  0.000000  0.000000 ICntrl=     500 IOpCl=  0
         NMat0=    1 NMatS0=    1 NMatT0=    0 NMatD0=    1 NMtDS0=    0 NMtDT0=    0
         I1Cent=           4 NGrid=           0.
 Petite list used in FoFCou.
 Harris En= -1805.73022279907    
 Initial guess orbital symmetries:
       Occupied  (A) (A) (A) (A) (A) (A) (A) (A) (A) (A) (A) (A)
                 (A) (A) (A) (A) (A) (A) (A) (A) (A) (A) (A) (A)
                 (A) (A) (A) (A) (A) (A) (A) (A) (A) (A) (A) (A)
                 (A) (A) (A) (A) (A) (A) (A) (A) (A) (A) (A) (A)
                 (A) (A) (A) (A) (A) (A) (A) (A) (A) (A) (A) (A)
                 (A) (A) (A) (A) (A) (A) (A) (A) (A) (A) (A) (A)
                 (A) (A) (A) (A) (A) (A) (A) (A) (A) (A) (A) (A)
                 (A) (A) (A) (A) (A) (A) (A) (A) (A) (A) (A) (A)
                 (A) (A) (A) (A) (A) (A) (A) (A) (A) (A) (A) (A)
                 (A) (A) (A) (A) (A) (A) (A)
       Virtual   (A) (A) (A) (A) (A) (A) (A) (A) (A) (A) (A) (A)
                 (A) (A) (A) (A) (A) (A) (A) (A) (A) (A) (A) (A)
                 (A) (A) (A) (A) (A) (A) (A) (A) (A) (A) (A) (A)
                 (A) (A) (A) (A) (A) (A) (A) (A) (A) (A) (A) (A)
                 (A) (A) (A) (A) (A) (A) (A) (A) (A) (A) (A) (A)
                 (A) (A) (A) (A) (A) (A) (A) (A) (A) (A) (A) (A)
                 (A) (A) (A) (A) (A) (A) (A) (A) (A) (A) (A) (A)
                 (A) (A) (A) (A) (A) (A) (A) (A) (A) (A) (A) (A)
                 (A) (A) (A) (A) (A) (A) (A) (A) (A) (A) (A) (A)
                 (A) (A) (A) (A) (A) (A) (A) (A) (A) (A) (A) (A)
                 (A) (A) (A) (A) (A) (A) (A) (A) (A) (A) (A) (A)
                 (A) (A) (A) (A) (A) (A) (A) (A) (A) (A) (A) (A)
                 (A) (A) (A) (A) (A) (A) (A) (A) (A) (A) (A) (A)
                 (A) (A) (A) (A) (A) (A) (A) (A) (A) (A) (A) (A)
                 (A) (A) (A) (A) (A) (A) (A) (A) (A) (A) (A) (A)
                 (A) (A) (A) (A) (A) (A) (A) (A) (A) (A) (A) (A)
                 (A) (A) (A) (A) (A) (A) (A) (A) (A) (A) (A) (A)
                 (A) (A) (A) (A) (A) (A) (A) (A) (A) (A) (A) (A)
                 (A) (A) (A) (A) (A) (A) (A) (A) (A) (A) (A) (A)
                 (A) (A) (A) (A) (A) (A) (A) (A) (A) (A) (A) (A)
                 (A) (A) (A) (A) (A) (A) (A) (A) (A) (A) (A) (A)
                 (A) (A) (A) (A) (A) (A) (A) (A) (A) (A) (A) (A)
                 (A) (A) (A) (A) (A) (A) (A) (A) (A) (A) (A) (A)
                 (A) (A) (A) (A) (A) (A) (A) (A) (A) (A) (A) (A)
                 (A) (A) (A) (A) (A) (A) (A) (A) (A) (A) (A) (A)
                 (A) (A) (A) (A) (A) (A) (A) (A) (A) (A) (A) (A)
                 (A) (A) (A) (A) (A) (A) (A) (A) (A) (A) (A) (A)
                 (A) (A) (A) (A) (A) (A) (A) (A) (A) (A) (A) (A)
                 (A) (A) (A) (A) (A) (A) (A) (A) (A) (A) (A) (A)
                 (A) (A) (A) (A) (A) (A) (A) (A) (A) (A) (A) (A)
                 (A) (A) (A) (A) (A) (A) (A) (A) (A) (A) (A) (A)
                 (A) (A) (A) (A) (A) (A) (A) (A) (A) (A) (A) (A)
                 (A) (A) (A) (A) (A) (A) (A) (A) (A) (A) (A) (A)
                 (A) (A) (A) (A) (A) (A) (A) (A) (A) (A) (A) (A)
                 (A) (A) (A) (A) (A) (A) (A) (A) (A) (A) (A) (A)
                 (A) (A) (A) (A) (A) (A) (A)
 The electronic state of the initial guess is 1-A.
 Leave Link  401 at Fri Sep  9 07:36:40 2022, MaxMem=  209715200 cpu:      24.0
 (Enter /opt/gaussian/l502.exe)
 Closed shell SCF:
 Requested convergence on RMS density matrix=1.00D-08 within 128 cycles.
 Requested convergence on MAX density matrix=1.00D-06.
 Requested convergence on             energy=1.00D-06.
 No special actions if energy rises.
 Using DIIS extrapolation, IDIIS=  1040.
 Integral symmetry usage will be decided dynamically.
       434459 words used for storage of precomputed grid.
 IEnd=     1449959 IEndB=     1449959 NGot=   209715200 MDV=   208611932
 LenX=   208611932 LenY=   208281882
 Fock matrices will be formed incrementally for  20 cycles.
 Integral accuracy reduced to 1.0D-05 until final iterations.

 Cycle   1  Pass 0  IDiag  1:
 FoFCou: FMM=F IPFlag=           0 FMFlag=      100000 FMFlg1=           0
         NFxFlg=           0 DoJE=F BraDBF=F KetDBF=F FulRan=T
         Omega=  0.000000  0.000000  1.000000  0.000000  0.000000 ICntrl=       0 IOpCl=  0
         NMat0=    1 NMatS0=    1 NMatT0=    0 NMatD0=    1 NMtDS0=    0 NMtDT0=    0
         I1Cent=           0 NGrid=           0.
 Symmetry not used in FoFCou.
 E= -1805.43481469914    
 DIIS: error= 2.32D-02 at cycle   1 NSaved=   1.
 NSaved= 1 IEnMin= 1 EnMin= -1805.43481469914     IErMin= 1 ErrMin= 2.32D-02
 ErrMax= 2.32D-02 EMaxC= 1.00D-01 BMatC= 5.38D-01 BMatP= 5.38D-01
 IDIUse=3 WtCom= 7.68D-01 WtEn= 2.32D-01
 Coeff-Com:  0.100D+01
 Coeff-En:   0.100D+01
 Coeff:      0.100D+01
 Gap=     0.386 Goal=   None    Shift=    0.000
 GapD=    0.386 DampG=1.000 DampE=0.500 DampFc=0.5000 IDamp=-1.
 Damping current iteration by 5.00D-01
 RMSDP=4.10D-03 MaxDP=2.15D-01              OVMax= 2.83D-01

 Cycle   2  Pass 0  IDiag  1:
 RMSU=  1.43D-03    CP:  9.80D-01
 E= -1805.58500274689     Delta-E=       -0.150188047747 Rises=F Damp=T
 DIIS: error= 8.97D-03 at cycle   2 NSaved=   2.
 NSaved= 2 IEnMin= 2 EnMin= -1805.58500274689     IErMin= 2 ErrMin= 8.97D-03
 ErrMax= 8.97D-03 EMaxC= 1.00D-01 BMatC= 1.10D-01 BMatP= 5.38D-01
 IDIUse=3 WtCom= 9.10D-01 WtEn= 8.97D-02
 Coeff-Com:  0.236D+00 0.764D+00
 Coeff-En:   0.350D+00 0.650D+00
 Coeff:      0.247D+00 0.753D+00
 Gap=     0.249 Goal=   None    Shift=    0.000
 RMSDP=1.41D-03 MaxDP=8.07D-02 DE=-1.50D-01 OVMax= 3.16D-01

 Cycle   3  Pass 0  IDiag  1:
 RMSU=  9.40D-04    CP:  9.66D-01  8.00D-01
 E= -1805.91892682958     Delta-E=       -0.333924082684 Rises=F Damp=F
 DIIS: error= 8.83D-03 at cycle   3 NSaved=   3.
 NSaved= 3 IEnMin= 3 EnMin= -1805.91892682958     IErMin= 3 ErrMin= 8.83D-03
 ErrMax= 8.83D-03 EMaxC= 1.00D-01 BMatC= 1.06D-01 BMatP= 1.10D-01
 IDIUse=3 WtCom= 9.12D-01 WtEn= 8.83D-02
 Coeff-Com:  0.560D-01 0.485D+00 0.459D+00
 Coeff-En:   0.000D+00 0.000D+00 0.100D+01
 Coeff:      0.510D-01 0.442D+00 0.507D+00
 Gap=     0.183 Goal=   None    Shift=    0.000
 RMSDP=7.97D-04 MaxDP=6.32D-02 DE=-3.34D-01 OVMax= 9.39D-02

 Cycle   4  Pass 0  IDiag  1:
 RMSU=  3.88D-04    CP:  9.69D-01  9.02D-01  5.96D-01
 E= -1806.00145639360     Delta-E=       -0.082529564024 Rises=F Damp=F
 DIIS: error= 3.20D-03 at cycle   4 NSaved=   4.
 NSaved= 4 IEnMin= 4 EnMin= -1806.00145639360     IErMin= 4 ErrMin= 3.20D-03
 ErrMax= 3.20D-03 EMaxC= 1.00D-01 BMatC= 1.71D-02 BMatP= 1.06D-01
 IDIUse=3 WtCom= 9.68D-01 WtEn= 3.20D-02
 Coeff-Com:  0.106D-01 0.140D+00 0.310D+00 0.540D+00
 Coeff-En:   0.000D+00 0.000D+00 0.162D+00 0.838D+00
 Coeff:      0.102D-01 0.136D+00 0.305D+00 0.549D+00
 Gap=     0.185 Goal=   None    Shift=    0.000
 RMSDP=3.09D-04 MaxDP=1.84D-02 DE=-8.25D-02 OVMax= 3.16D-02

 Cycle   5  Pass 0  IDiag  1:
 RMSU=  1.32D-04    CP:  9.68D-01  8.64D-01  6.85D-01  6.31D-01
 E= -1806.01556219246     Delta-E=       -0.014105798865 Rises=F Damp=F
 DIIS: error= 1.28D-03 at cycle   5 NSaved=   5.
 NSaved= 5 IEnMin= 5 EnMin= -1806.01556219246     IErMin= 5 ErrMin= 1.28D-03
 ErrMax= 1.28D-03 EMaxC= 1.00D-01 BMatC= 1.60D-03 BMatP= 1.71D-02
 IDIUse=3 WtCom= 9.87D-01 WtEn= 1.28D-02
 Coeff-Com:  0.389D-03 0.302D-01 0.132D+00 0.335D+00 0.502D+00
 Coeff-En:   0.000D+00 0.000D+00 0.000D+00 0.594D-01 0.941D+00
 Coeff:      0.384D-03 0.298D-01 0.130D+00 0.332D+00 0.508D+00
 Gap=     0.182 Goal=   None    Shift=    0.000
 RMSDP=1.08D-04 MaxDP=4.03D-03 DE=-1.41D-02 OVMax= 1.34D-02

 Cycle   6  Pass 0  IDiag  1:
 RMSU=  3.98D-05    CP:  9.68D-01  8.71D-01  6.89D-01  6.89D-01  5.44D-01
 E= -1806.01711766062     Delta-E=       -0.001555468157 Rises=F Damp=F
 DIIS: error= 5.46D-04 at cycle   6 NSaved=   6.
 NSaved= 6 IEnMin= 6 EnMin= -1806.01711766062     IErMin= 6 ErrMin= 5.46D-04
 ErrMax= 5.46D-04 EMaxC= 1.00D-01 BMatC= 1.73D-04 BMatP= 1.60D-03
 IDIUse=3 WtCom= 9.95D-01 WtEn= 5.46D-03
 Coeff-Com: -0.718D-03 0.193D-03 0.381D-01 0.124D+00 0.302D+00 0.536D+00
 Coeff-En:   0.000D+00 0.000D+00 0.000D+00 0.000D+00 0.758D-01 0.924D+00
 Coeff:     -0.714D-03 0.192D-03 0.379D-01 0.124D+00 0.300D+00 0.538D+00
 Gap=     0.181 Goal=   None    Shift=    0.000
 RMSDP=3.19D-05 MaxDP=1.63D-03 DE=-1.56D-03 OVMax= 4.12D-03

 Cycle   7  Pass 0  IDiag  1:
 RMSU=  1.35D-05    CP:  9.68D-01  8.71D-01  6.91D-01  6.89D-01  6.09D-01
                    CP:  6.01D-01
 E= -1806.01729166994     Delta-E=       -0.000174009317 Rises=F Damp=F
 DIIS: error= 1.44D-04 at cycle   7 NSaved=   7.
 NSaved= 7 IEnMin= 7 EnMin= -1806.01729166994     IErMin= 7 ErrMin= 1.44D-04
 ErrMax= 1.44D-04 EMaxC= 1.00D-01 BMatC= 1.63D-05 BMatP= 1.73D-04
 IDIUse=3 WtCom= 9.99D-01 WtEn= 1.44D-03
 Coeff-Com: -0.308D-03-0.283D-02 0.980D-02 0.393D-01 0.126D+00 0.311D+00
 Coeff-Com:  0.517D+00
 Coeff-En:   0.000D+00 0.000D+00 0.000D+00 0.000D+00 0.000D+00 0.704D-02
 Coeff-En:   0.993D+00
 Coeff:     -0.308D-03-0.282D-02 0.979D-02 0.393D-01 0.126D+00 0.310D+00
 Coeff:      0.518D+00
 Gap=     0.181 Goal=   None    Shift=    0.000
 RMSDP=8.92D-06 MaxDP=5.27D-04 DE=-1.74D-04 OVMax= 8.50D-04

 Initial convergence to 1.0D-05 achieved.  Increase integral accuracy.
 Cycle   8  Pass 1  IDiag  1:
 E= -1806.01743979159     Delta-E=       -0.000148121648 Rises=F Damp=F
 DIIS: error= 1.80D-04 at cycle   1 NSaved=   1.
 NSaved= 1 IEnMin= 1 EnMin= -1806.01743979159     IErMin= 1 ErrMin= 1.80D-04
 ErrMax= 1.80D-04 EMaxC= 1.00D-01 BMatC= 1.17D-05 BMatP= 1.17D-05
 IDIUse=3 WtCom= 9.98D-01 WtEn= 1.80D-03
 Coeff-Com:  0.100D+01
 Coeff-En:   0.100D+01
 Coeff:      0.100D+01
 Gap=     0.181 Goal=   None    Shift=    0.000
 RMSDP=8.92D-06 MaxDP=5.27D-04 DE=-1.48D-04 OVMax= 7.46D-04

 Cycle   9  Pass 1  IDiag  1:
 RMSU=  8.30D-05    CP:  1.00D+00
 E= -1806.01744662238     Delta-E=       -0.000006830792 Rises=F Damp=F
 DIIS: error= 6.38D-05 at cycle   2 NSaved=   2.
 NSaved= 2 IEnMin= 2 EnMin= -1806.01744662238     IErMin= 2 ErrMin= 6.38D-05
 ErrMax= 6.38D-05 EMaxC= 1.00D-01 BMatC= 4.92D-06 BMatP= 1.17D-05
 IDIUse=1 WtCom= 1.00D+00 WtEn= 0.00D+00
 Coeff-Com:  0.340D+00 0.660D+00
 Coeff:      0.340D+00 0.660D+00
 Gap=     0.181 Goal=   None    Shift=    0.000
 RMSDP=8.35D-06 MaxDP=4.44D-04 DE=-6.83D-06 OVMax= 7.66D-04

 Cycle  10  Pass 1  IDiag  1:
 RMSU=  5.90D-06    CP:  1.00D+00  1.00D+00
 E= -1806.01744570105     Delta-E=        0.000000921324 Rises=F Damp=F
 DIIS: error= 7.01D-05 at cycle   3 NSaved=   3.
 NSaved= 3 IEnMin= 2 EnMin= -1806.01744662238     IErMin= 2 ErrMin= 6.38D-05
 ErrMax= 7.01D-05 EMaxC= 1.00D-01 BMatC= 5.87D-06 BMatP= 4.92D-06
 IDIUse=1 WtCom= 1.00D+00 WtEn= 0.00D+00
 Coeff-Com:  0.386D-02 0.521D+00 0.475D+00
 Coeff:      0.386D-02 0.521D+00 0.475D+00
 Gap=     0.181 Goal=   None    Shift=    0.000
 RMSDP=4.63D-06 MaxDP=2.21D-04 DE= 9.21D-07 OVMax= 4.82D-04

 Cycle  11  Pass 1  IDiag  1:
 RMSU=  8.87D-07    CP:  1.00D+00  1.01D+00  4.72D-01
 E= -1806.01745110660     Delta-E=       -0.000005405544 Rises=F Damp=F
 DIIS: error= 1.07D-05 at cycle   4 NSaved=   4.
 NSaved= 4 IEnMin= 4 EnMin= -1806.01745110660     IErMin= 4 ErrMin= 1.07D-05
 ErrMax= 1.07D-05 EMaxC= 1.00D-01 BMatC= 1.63D-07 BMatP= 4.92D-06
 IDIUse=1 WtCom= 1.00D+00 WtEn= 0.00D+00
 Coeff-Com: -0.367D-02 0.332D+00 0.315D+00 0.357D+00
 Coeff:     -0.367D-02 0.332D+00 0.315D+00 0.357D+00
 Gap=     0.181 Goal=   None    Shift=    0.000
 RMSDP=7.97D-07 MaxDP=4.45D-05 DE=-5.41D-06 OVMax= 1.05D-04

 Cycle  12  Pass 1  IDiag  1:
 RMSU=  2.10D-07    CP:  1.00D+00  1.01D+00  4.88D-01  4.20D-01
 E= -1806.01745126473     Delta-E=       -0.000000158127 Rises=F Damp=F
 DIIS: error= 1.29D-06 at cycle   5 NSaved=   5.
 NSaved= 5 IEnMin= 5 EnMin= -1806.01745126473     IErMin= 5 ErrMin= 1.29D-06
 ErrMax= 1.29D-06 EMaxC= 1.00D-01 BMatC= 2.86D-09 BMatP= 1.63D-07
 IDIUse=1 WtCom= 1.00D+00 WtEn= 0.00D+00
 Coeff-Com: -0.227D-02 0.174D+00 0.166D+00 0.208D+00 0.454D+00
 Coeff:     -0.227D-02 0.174D+00 0.166D+00 0.208D+00 0.454D+00
 Gap=     0.181 Goal=   None    Shift=    0.000
 RMSDP=1.23D-07 MaxDP=8.21D-06 DE=-1.58D-07 OVMax= 1.18D-05

 Cycle  13  Pass 1  IDiag  1:
 RMSU=  7.12D-08    CP:  1.00D+00  1.01D+00  4.86D-01  4.33D-01  7.71D-01
 E= -1806.01745126716     Delta-E=       -0.000000002432 Rises=F Damp=F
 DIIS: error= 4.72D-07 at cycle   6 NSaved=   6.
 NSaved= 6 IEnMin= 6 EnMin= -1806.01745126716     IErMin= 6 ErrMin= 4.72D-07
 ErrMax= 4.72D-07 EMaxC= 1.00D-01 BMatC= 2.48D-10 BMatP= 2.86D-09
 IDIUse=1 WtCom= 1.00D+00 WtEn= 0.00D+00
 Coeff-Com: -0.877D-03 0.616D-01 0.586D-01 0.797D-01 0.262D+00 0.539D+00
 Coeff:     -0.877D-03 0.616D-01 0.586D-01 0.797D-01 0.262D+00 0.539D+00
 Gap=     0.181 Goal=   None    Shift=    0.000
 RMSDP=3.70D-08 MaxDP=2.70D-06 DE=-2.43D-09 OVMax= 3.46D-06

 Cycle  14  Pass 1  IDiag  1:
 RMSU=  2.05D-08    CP:  1.00D+00  1.01D+00  4.86D-01  4.36D-01  8.04D-01
                    CP:  8.00D-01
 E= -1806.01745126742     Delta-E=       -0.000000000264 Rises=F Damp=F
 DIIS: error= 1.57D-07 at cycle   7 NSaved=   7.
 NSaved= 7 IEnMin= 7 EnMin= -1806.01745126742     IErMin= 7 ErrMin= 1.57D-07
 ErrMax= 1.57D-07 EMaxC= 1.00D-01 BMatC= 2.98D-11 BMatP= 2.48D-10
 IDIUse=1 WtCom= 1.00D+00 WtEn= 0.00D+00
 Coeff-Com: -0.199D-03 0.120D-01 0.114D-01 0.186D-01 0.862D-01 0.305D+00
 Coeff-Com:  0.567D+00
 Coeff:     -0.199D-03 0.120D-01 0.114D-01 0.186D-01 0.862D-01 0.305D+00
 Coeff:      0.567D+00
 Gap=     0.181 Goal=   None    Shift=    0.000
 RMSDP=1.33D-08 MaxDP=8.94D-07 DE=-2.64D-10 OVMax= 1.58D-06

 Cycle  15  Pass 1  IDiag  1:
 RMSU=  6.59D-09    CP:  1.00D+00  1.01D+00  4.86D-01  4.36D-01  8.13D-01
                    CP:  8.33D-01  7.12D-01
 E= -1806.01745126746     Delta-E=       -0.000000000036 Rises=F Damp=F
 DIIS: error= 7.42D-08 at cycle   8 NSaved=   8.
 NSaved= 8 IEnMin= 8 EnMin= -1806.01745126746     IErMin= 8 ErrMin= 7.42D-08
 ErrMax= 7.42D-08 EMaxC= 1.00D-01 BMatC= 5.89D-12 BMatP= 2.98D-11
 IDIUse=1 WtCom= 1.00D+00 WtEn= 0.00D+00
 Coeff-Com:  0.107D-04-0.194D-02-0.186D-02-0.346D-03 0.126D-01 0.109D+00
 Coeff-Com:  0.354D+00 0.528D+00
 Coeff:      0.107D-04-0.194D-02-0.186D-02-0.346D-03 0.126D-01 0.109D+00
 Coeff:      0.354D+00 0.528D+00
 Gap=     0.181 Goal=   None    Shift=    0.000
 RMSDP=5.85D-09 MaxDP=3.08D-07 DE=-3.64D-11 OVMax= 8.40D-07

 SCF Done:  E(RB3LYP) =  -1806.01745127     A.U. after   15 cycles
             Convg  =    0.5848D-08             -V/T =  2.0047
 KE= 1.797556559905D+03 PE=-1.030709960018D+04 EE= 3.661502360981D+03
 Leave Link  502 at Fri Sep  9 07:48:09 2022, MaxMem=  209715200 cpu:    5390.4
 (Enter /opt/gaussian/l601.exe)
 Copying SCF densities to generalized density rwf, IOpCl= 0 IROHF=0.

 **********************************************************************

            Population analysis using the SCF density.

 **********************************************************************

 Orbital symmetries:
       Occupied  (A) (A) (A) (A) (A) (A) (A) (A) (A) (A) (A) (A)
                 (A) (A) (A) (A) (A) (A) (A) (A) (A) (A) (A) (A)
                 (A) (A) (A) (A) (A) (A) (A) (A) (A) (A) (A) (A)
                 (A) (A) (A) (A) (A) (A) (A) (A) (A) (A) (A) (A)
                 (A) (A) (A) (A) (A) (A) (A) (A) (A) (A) (A) (A)
                 (A) (A) (A) (A) (A) (A) (A) (A) (A) (A) (A) (A)
                 (A) (A) (A) (A) (A) (A) (A) (A) (A) (A) (A) (A)
                 (A) (A) (A) (A) (A) (A) (A) (A) (A) (A) (A) (A)
                 (A) (A) (A) (A) (A) (A) (A) (A) (A) (A) (A) (A)
                 (A) (A) (A) (A) (A) (A) (A)
       Virtual   (A) (A) (A) (A) (A) (A) (A) (A) (A) (A) (A) (A)
                 (A) (A) (A) (A) (A) (A) (A) (A) (A) (A) (A) (A)
                 (A) (A) (A) (A) (A) (A) (A) (A) (A) (A) (A) (A)
                 (A) (A) (A) (A) (A) (A) (A) (A) (A) (A) (A) (A)
                 (A) (A) (A) (A) (A) (A) (A) (A) (A) (A) (A) (A)
                 (A) (A) (A) (A) (A) (A) (A) (A) (A) (A) (A) (A)
                 (A) (A) (A) (A) (A) (A) (A) (A) (A) (A) (A) (A)
                 (A) (A) (A) (A) (A) (A) (A) (A) (A) (A) (A) (A)
                 (A) (A) (A) (A) (A) (A) (A) (A) (A) (A) (A) (A)
                 (A) (A) (A) (A) (A) (A) (A) (A) (A) (A) (A) (A)
                 (A) (A) (A) (A) (A) (A) (A) (A) (A) (A) (A) (A)
                 (A) (A) (A) (A) (A) (A) (A) (A) (A) (A) (A) (A)
                 (A) (A) (A) (A) (A) (A) (A) (A) (A) (A) (A) (A)
                 (A) (A) (A) (A) (A) (A) (A) (A) (A) (A) (A) (A)
                 (A) (A) (A) (A) (A) (A) (A) (A) (A) (A) (A) (A)
                 (A) (A) (A) (A) (A) (A) (A) (A) (A) (A) (A) (A)
                 (A) (A) (A) (A) (A) (A) (A) (A) (A) (A) (A) (A)
[...]
 -0.00005763,0.00004686,-0.00007024,0.00001961,0.00001412,-0.00000888,-
 0.00001944,-0.00003200,-0.00002391,0.00002671,0.00004324,-0.00000328,-
 0.00000083,0.00000063,-0.00000618,0.00000053,0.00000551,-0.00003357,-0
 .00003944,-0.00001418,-0.00000005,-0.00001083,-0.00000182,0.00003447,-
 0.00001941,-0.00000275,-0.00001625,0.00003757,-0.00008297,-0.00000994,
 -0.00001580,0.00002474,-0.00008548,0.00000828,-0.00004452,-0.00000539,
 -0.00000285,-0.00000081,-0.00000411,-0.00000366,0.00000395,-0.00000214
 ,-0.00000008,0.00000630,0.00000429,-0.00000857,-0.00001686,-0.00080192
 ,-0.00080479,-0.00044121,-0.00021837,-0.00020903,0.00056212,0.10493664
 ,0.22969653,-0.00000686,0.00001585,-0.00000396,0.00000772,-0.00002203,
 -0.00000985,-0.00000137,-0.00000146,0.00000761,0.00000091,0.00001292,0
 .00000159,0.00004429,-0.00001600,0.00000648,0.00002529,0.00002656,-0.0
 0004575,-0.00000796,0.00002375,0.00002032,0.00006962,-0.00016317,0.000
 04579,0.00170277,0.00144940,-0.00280499,0.00053987,-0.00377682,0.00114
 551,-0.00100034,0.00190689,0.00010502,0.00009705,0.00039535,-0.0000490
 2,-0.00001973,-0.00000580,-0.00000138,0.00006476,0.00007363,0.00006770
 ,-0.00003998,-0.00006697,0.00001421,-0.00000239,0.00001060,-0.00001601
 ,-0.00000462,-0.00000076,0.00001202,-0.00000732,-0.00000911,-0.0000121
 2,0.00000543,0.00002694,-0.00001815,-0.00001283,0.00000334,0.00002247,
 0.00006202,0.00001311,-0.00006215,-0.00451148,-0.00560448,0.00352407,-
 0.00047624,-0.00305536,0.00465538,0.00079149,0.00005712,-0.00030387,-0
 .00209743,-0.00231639,0.00967558,-0.00673646,-0.00088877,-0.00623353,-
 0.05950182,-0.10151614,-0.09946450,-0.00019017,-0.00041773,0.00034054,
 0.00006359,0.00008309,-0.00002434,-0.00011092,0.00002231,-0.00008052,-
 0.00005257,-0.00002131,0.00003633,0.00004122,0.00003670,-0.00006986,-0
 .00000203,0.00000015,0.00000027,-0.00000254,-0.00000188,0.00000023,-0.
 00001289,-0.00002270,-0.00000643,-0.00000099,-0.00000255,-0.00000169,-
 0.00001997,0.00004678,0.00002536,-0.00001541,0.00008247,-0.00003299,-0
 .00007798,-0.00000370,-0.00002281,-0.00006991,-0.00000180,0.00000127,-
 0.00000162,-0.00000317,0.00000013,-0.00000074,-0.00000492,0.00000203,0
 .00000274,-0.00000147,0.00000211,0.00001330,-0.00002349,-0.00002058,-0
 .00014266,-0.00005809,-0.00028672,0.00038022,0.00054845,-0.00146542,0.
 07119008,0.11318656,0.09134228,0.00001034,-0.00001889,0.00000718,-0.00
 001330,0.00002469,-0.00001092,0.00000319,-0.00000600,0.00000497,0.0000
 0018,0.00000503,0.00000791,0.00001067,0.00000503,-0.00000293,-0.000000
 13,0.00000124,0.00000132,0.00000536,-0.00000445,-0.00000542,-0.0000120
 0,0.00002042,-0.00000568,0.00008142,0.00007416,0.00000116,-0.00005196,
 -0.00006667,0.00001204,0.00003333,0.00003334,-0.00000528,-0.00000853,-
 0.00001428,0.00000022,0.00001661,0.00001415,0.00000937,-0.00000896,-0.
 00001580,-0.00002085,0.00001198,0.00001771,-0.00000351,0.00000131,0.00
 000136,0.00000524,-0.00000033,-0.00000064,-0.00000156,0.00000122,0.000
 00137,0.00000148,-0.00000131,-0.00000311,0.00000182,0.00000006,-0.0000
 0152,-0.00000605,-0.00000659,-0.00000310,0.00001622,-0.00006367,0.0000
 4305,0.00001422,-0.00000489,0.00029297,0.00018817,-0.00044532,-0.00052
 552,-0.00030347,0.00094986,0.00021041,0.00082925,-0.00033363,0.0000334
 3,-0.00005086,0.00007044,0.00000654,0.00002216,0.01108147,-0.01555888,
 -0.00392199,-0.05677200,0.00025004,-0.00786727,0.00536064,0.02838643,0
 .01405993,-0.00470129,0.00301368,-0.00145771,-0.00453949,-0.00290817,-
 0.00342080,-0.00000042,-0.00000126,-0.00000031,-0.00000361,-0.00000021
 ,0.00000073,-0.00000775,-0.00000765,0.00000289,-0.00000169,0.00000032,
 0.00000045,0.00000809,-0.00000148,0.00000229,-0.00000226,0.00000100,-0
 .00001196,0.00000281,0.00000216,0.00000110,0.00000117,-0.00000015,-0.0
 0000293,0.00000052,0.00000085,0.00000045,0.00000063,0.00000111,-0.0000
 0093,-0.00000098,-0.00000046,-0.00000028,-0.00000117,0.00000185,0.0000
 0218,-0.00003751,-0.00001203,-0.00000630,-0.00098403,0.00048162,-0.000
 15954,-0.00000282,0.00000488,-0.00000562,0.04891450,0.00000358,-0.0000
 0782,0.00000338,-0.00000428,0.00000806,-0.00000456,0.00000104,-0.00000
 297,0.00000268,-0.00000008,0.00000191,0.00000058,0.00000121,0.00000436
 ,-0.00000066,0.00000057,-0.00000165,-0.00000072,0.00000061,-0.00000162
 ,-0.00000073,-0.00000702,0.00001107,-0.00000521,0.00002820,0.00004750,
 -0.00001411,-0.00000474,-0.00001377,-0.00000315,0.00001109,0.00000422,
 0.00000823,-0.00000075,0.00000006,-0.00000157,0.00000479,0.00000275,0.
 00000366,-0.00000394,-0.00000589,-0.00000353,0.00000341,0.00000573,-0.
 00000108,0.00000015,-0.00000003,0.00000168,0.00000039,0.00000043,-0.00
 000125,0.00000044,0.00000041,0.00000168,-0.00000058,-0.00000153,-0.000
 00002,-0.00000010,-0.00000130,-0.00000199,-0.00000029,0.00000058,0.000
 00239,-0.00001085,0.00004664,0.00003492,-0.00006133,0.00019338,0.00017
 878,-0.00000960,-0.00036923,-0.00011688,0.00061001,-0.00061275,0.00076
 180,-0.00041960,-0.00005125,-0.00008718,0.00014753,-0.00004303,0.00001
 168,0.00500289,-0.00359638,-0.00052279,0.00889020,-0.30844886,-0.11626
 381,-0.00453173,-0.01032394,-0.00390658,0.00170970,0.00120072,-0.00177
 779,0.00002885,-0.00067567,-0.00211985,0.00000040,-0.00000011,-0.00000
 038,-0.00000173,0.00000082,0.00000086,-0.00000274,-0.00000310,-0.00000
 066,0.00000067,0.00000008,0.00000090,0.00000265,0.00000002,0.00000036,
 -0.00000141,0.00000136,-0.00000351,0.00000044,0.00000038,-0.00000009,0
 .00000054,0.00000002,-0.00000059,0.00000025,0.00000026,0.00000009,-0.0
 0000003,0.00000020,-0.00000026,-0.00000082,-0.00000014,0.00000059,-0.0
 0000046,0.00000135,-0.00000011,-0.00001591,-0.00000095,0.00000134,0.00
 045234,0.00056355,-0.00000111,-0.00001053,0.00000313,-0.00001187,-0.01
 227652,0.32242969,0.00000098,0.00000018,-0.00000224,-0.00000124,0.0000
 0187,0.00000173,0.00000106,-0.00000203,-0.00000343,-0.00000181,0.00000
 028,0.00000698,0.00000545,-0.00000555,-0.00000565,-0.00000397,0.000007
 97,0.00000733,0.00000335,-0.00000035,-0.00000400,-0.00000558,0.0000058
 7,0.00001285,0.00007832,0.00000868,0.00006456,-0.00005099,-0.00007743,
 0.00002991,0.00000547,0.00005009,-0.00002088,-0.00000520,-0.00001498,-
 0.00000216,0.00000739,0.00000841,0.00000082,-0.00000137,-0.00000332,-0
 .00001373,0.00000413,0.00000659,-0.00000147,0.00000153,0.00000198,0.00
 000157,-0.00000134,-0.00000133,0.00000142,-0.00000019,0.00000099,-0.00
 000254,-0.00000052,0.00000048,0.00000145,0.00000001,0.00000152,-0.0000
 0175,-0.00000592,-0.00000501,0.00001221,-0.00006434,0.00005076,-0.0000
 3163,0.00005293,0.00027473,-0.00011955,-0.00007790,-0.00021012,-0.0002
 6531,0.00104754,0.00063051,-0.00152728,-0.00027472,0.00002526,-0.00015
 571,0.00009038,-0.00004684,0.00004604,0.00461818,-0.00559852,-0.000533
 00,-0.00426509,-0.11833572,-0.07497842,0.00034634,0.00411837,-0.001840
 01,-0.00200497,-0.00143537,0.00535358,-0.00218765,-0.00284305,0.002708
 61,0.00000062,-0.00000114,0.00000057,0.00000304,-0.00000054,-0.0000032
 3,-0.00000099,0.00000075,0.00000683,-0.00000333,0.00000080,-0.00000175
 ,0.00000194,-0.00000510,0.00000142,0.00000209,-0.00000215,-0.00000364,
 0.00000325,0.00000164,0.00000224,-0.00000124,-0.00000023,-0.00000196,0
 .00000051,0.,0.00000017,0.00000112,0.00000040,-0.00000037,0.00000141,-
 0.00000023,-0.00000165,0.00000022,-0.00000136,0.00000259,-0.00001427,-
 0.00000013,-0.00001259,-0.00019710,0.00004815,0.00074076,-0.00001051,-
 0.00000636,0.00001118,0.00215644,0.12352264,0.07124905,0.00001088,-0.0
 0002079,0.00000651,-0.00001269,0.00002483,-0.00000995,0.00000490,-0.00
 001022,0.00000189,-0.00000294,0.00000390,0.00000981,0.00000701,0.00000
 072,-0.00000956,-0.00000570,-0.00000276,0.00001592,0.00000652,-0.00000
 893,-0.00001252,0.00000342,0.00005747,-0.00001975,0.00009563,-0.000075
 80,-0.00001241,-0.00008450,0.00001220,-0.00000553,0.00007740,-0.000026
 18,-0.00001108,-0.00001206,-0.00002063,0.00001323,0.00002020,0.0000157
 8,0.00001091,-0.00000633,-0.00001886,-0.00002749,0.00001440,0.00001831
 ,-0.00000432,0.00000100,0.00000253,0.00000595,-0.00000135,-0.00000293,
 -0.00000089,0.00000157,0.00000037,0.00000055,-0.00000049,-0.00000408,0
 .00000307,0.00000304,-0.00000055,-0.00000547,-0.00001240,-0.00000463,0
 .00002134,-0.00000422,-0.00013881,-0.00007382,0.00017275,-0.00002751,0
 .00004594,-0.00034503,0.00003833,-0.00005762,0.00093987,-0.00089119,0.
 00024664,-0.00077763,0.00038238,0.00005596,-0.00037983,-0.00025340,-0.
 00016110,0.01049752,0.01101624,0.00650970,-0.00300390,0.00384608,0.000
 03017,-0.00602570,-0.00081424,-0.00362705,-0.00728914,-0.02596987,-0.0
 1083096,-0.09172457,-0.08492165,-0.04978914,0.00000118,-0.00000144,-0.
 00000019,0.00000015,0.00000045,-0.00000154,-0.00000584,-0.00000201,0.0
 0000942,-0.00000130,0.00000229,0.00000066,0.00001217,-0.00000802,0.000
 00240,-0.00000302,0.00000133,-0.00001009,0.00000764,0.00000399,0.00000
 033,0.00000349,0.00000128,-0.00000208,0.,0.00000131,0.00000064,0.00000
 055,0.00000182,-0.00000141,-0.00000126,0.00000017,-0.00000108,-0.00000
 273,0.00000334,0.00000353,-0.00001017,-0.00000512,-0.00000514,0.000064
 11,-0.00014672,-0.00004377,-0.00003828,0.00005317,0.00001854,0.0011299
 7,0.00036642,0.00020619,0.09622024,-0.00000723,0.00001311,-0.00000352,
 0.00000843,-0.00001566,0.00000588,-0.00000368,0.00000701,-0.00000015,0
 .00000179,-0.00000270,-0.00000708,-0.00000689,0.00000095,0.00000781,0.
 00000416,-0.00000162,-0.00001385,-0.00000539,0.00000688,0.00000915,-0.
 00001903,-0.00003733,0.00000222,-0.00008141,0.00009259,-0.00001464,0.0
 0008452,0.00005012,-0.00001314,-0.00004792,-0.00002451,0.00002068,0.00
 001226,0.00001913,-0.00000899,-0.00001773,-0.00001545,-0.00000863,0.00
 000712,0.00001468,0.00002477,-0.00001103,-0.00001780,0.00000387,-0.000
 00186,-0.00000238,-0.00000523,0.00000131,0.00000123,0.00000028,-0.0000
 0055,-0.00000210,0.00000061,0.00000146,0.00000221,-0.00000144,-0.00000
 024,0.00000010,0.00000519,0.00000931,0.00000563,-0.00001995,-0.0001056
 7,0.00014689,0.00004427,-0.00016729,-0.00003509,-0.00005630,0.00043713
 ,-0.00015608,0.00007161,-0.00179555,-0.00045385,0.00006098,-0.00077046
 ,0.00041019,0.00006687,0.00047138,0.00036308,0.00037727,-0.01098140,-0
 .00811387,-0.00722471,0.00269084,-0.00273446,-0.00193609,0.00227988,0.
 00338665,-0.00110088,-0.00075102,0.00274783,0.00404972,-0.08948518,-0.
 26024059,-0.11692803,-0.00000072,0.00000126,0.00000015,-0.00000036,0.0
 0000018,0.00000194,0.00000531,0.00000146,-0.00000733,0.00000168,-0.000
 00189,-0.00000004,-0.00000936,0.00001112,-0.00000400,0.00000067,-0.000
 00382,0.00000672,-0.00000475,-0.00000334,-0.00000109,-0.00000132,0.000
 00009,0.00000258,-0.00000121,-0.00000055,-0.00000049,-0.00000145,-0.00
 000089,0.00000113,-0.00000027,0.00000057,0.00000120,0.00000082,-0.0000
 0097,-0.00000306,0.00002363,0.00000035,0.00000209,-0.00002918,0.000123
 87,0.00005387,-0.00002992,-0.00004358,-0.00001882,-0.00084086,-0.00005
 147,-0.00060150,0.09882198,0.26378829,-0.00000165,0.00000377,-0.000002
 16,0.00000140,-0.00000381,0.00000202,-0.00000010,0.00000096,-0.0000019
 6,0.,0.00000014,0.00000048,0.00000265,-0.00000415,-0.00000106,-0.00000
 068,0.00000708,0.00000036,0.00000038,0.00000053,0.00000080,0.00000947,
 -0.00001295,0.00002158,-0.00006136,-0.00001931,0.00004018,-0.00000508,
 -0.00002814,0.00001292,-0.00001851,0.00002237,-0.00001367,-0.00000316,
 -0.00000083,0.00000073,-0.00000010,0.00000189,-0.00000344,0.00000570,0
 .00000578,-0.00000342,-0.00000228,-0.00000367,0.00000097,0.00000062,0.
 00000130,-0.00000068,-0.00000142,-0.00000089,0.00000290,-0.00000122,0.
 00000040,-0.00000372,0.00000022,0.00000305,-0.00000079,-0.00000162,0.0
 0000161,0.00000134,-0.00000182,-0.00000341,0.00000336,0.00000493,0.000
 02851,0.00003224,-0.00004530,-0.00001494,-0.00004501,0.00014352,-0.000
 06297,-0.00003646,-0.00018460,0.00028297,-0.00156185,-0.00045683,0.000
 41145,-0.00024902,0.00012653,0.00019301,-0.00009162,-0.00260392,-0.001
 87338,0.00125634,-0.00046300,-0.00166105,0.00266191,-0.00231460,-0.001
 83460,0.00601981,-0.00033623,-0.00213074,-0.00834362,-0.05168209,-0.11
 577695,-0.09386222,-0.00000013,-0.00000019,0.00000013,0.00000080,-0.00
 000095,-0.00000115,-0.00000006,-0.00000004,0.00000129,-0.00000083,0.00
 000064,-0.00000067,-0.00000232,-0.00000386,0.00000191,0.00000499,0.000
 00248,0.00000177,-0.00000102,-0.00000028,0.00000032,-0.00000264,0.0000
 0046,-0.00000022,0.00000034,-0.00000045,0.00000030,0.00000123,-0.00000
 020,-0.00000013,0.00000192,-0.00000075,-0.00000157,0.00000121,-0.00000
 289,0.00000061,0.00000501,-0.00000468,0.00000562,0.00001173,0.00002073
 ,-0.00000564,-0.00001613,0.00000500,-0.00002593,-0.00029300,-0.0003071
 1,0.00069223,0.05850030,0.12372084,0.09167038,0.00002107,-0.00003908,0
 .00001296,-0.00002609,0.00004888,-0.00002005,0.00000925,-0.00001728,0.
 00000557,-0.00000388,0.00000790,0.00001631,0.00001433,0.00000170,-0.00
 001597,-0.00000954,0.00000364,0.00002106,0.00001271,-0.00001497,-0.000
 01865,-0.00001410,0.00011727,0.00000574,0.00031332,0.00004824,0.000028
 18,-0.00015658,-0.00022894,-0.00000038,0.00006280,0.00010349,-0.000028
 09,-0.00002807,-0.00003702,0.00001421,0.00004077,0.00003252,0.00002291
 ,-0.00001656,-0.00003693,-0.00005241,0.00002809,0.00003952,-0.00000869
 ,0.00000272,0.00000468,0.00001266,-0.00000142,-0.00000339,-0.00000275,
 0.00000291,0.00000223,0.00000214,-0.00000211,-0.00000737,0.00000439,0.
 00000277,-0.00000222,-0.00001234,-0.00002015,-0.00000893,0.00004123,-0
 .00013443,0.00003124,-0.00002007,-0.00005460,0.00005335,-0.00001410,0.
 00020677,-0.00020309,-0.00001789,-0.00019181,-0.00029827,-0.00073278,-
 0.00011952,-0.00000794,-0.00002419,-0.00014363,-0.00015275,0.00003230,
 -0.00195046,0.00499577,0.00073706,-0.00999837,-0.01382965,-0.00641293,
 -0.38693671,-0.08667675,-0.13006068,0.00280769,-0.00215536,0.00272239,
 0.00373940,0.00037262,0.00004688,0.00000111,-0.00000269,-0.00000073,-0
 .00000235,0.00000026,-0.00000203,-0.00001085,-0.00000468,0.00001469,-0
 .00000319,0.00000375,0.00000095,0.00002575,-0.00002247,0.00000931,-0.0
 0000502,0.00000276,-0.00001619,0.00001310,0.00000838,0.00000163,0.0000
 0654,0.00000010,-0.00000445,0.00000075,0.00000221,0.00000107,0.0000013
 2,0.00000300,-0.00000249,-0.00000206,-0.00000028,-0.00000142,-0.000003
 80,0.00000513,0.00000622,0.00000488,-0.00001605,-0.00000466,-0.0000068
 3,0.00001593,0.00000344,-0.00000567,0.00001737,0.00001183,0.00030986,0
 .00009654,0.00054033,0.00045537,0.00031527,-0.00032122,0.39176455,0.00
 001124,-0.00002304,0.00000734,-0.00001365,0.00002586,-0.00001112,0.000
 00528,-0.00001207,0.00000220,-0.00000417,0.00000419,0.00000987,0.00000
 576,0.00000068,-0.00001130,-0.00000859,-0.00000046,0.00001530,0.000006
 02,-0.00000893,-0.00001287,-0.00000804,0.00008905,0.00000054,0.0002170
 7,0.00002768,0.00000644,-0.00008625,-0.00014806,-0.00000185,0.00003071
 ,0.00006375,-0.00001694,-0.00001420,-0.00001518,0.00000823,0.00002115,
 0.00001408,0.00001197,-0.00000804,-0.00001892,-0.00002491,0.00001364,0
 .00001962,-0.00000429,0.00000141,0.00000239,0.00000612,-0.00000031,-0.
 00000147,-0.00000158,0.00000193,0.00000125,0.00000111,-0.00000092,-0.0
 0000408,0.00000224,0.00000218,-0.00000098,-0.00000585,-0.00001076,-0.0
 0000469,0.00002064,-0.00010546,0.00007681,0.00001109,-0.00007001,-0.00
 000233,-0.00002704,0.00015276,-0.00005354,0.00005033,-0.00037629,0.001
 38414,-0.00047240,0.00042336,0.00008039,0.00013752,0.00002802,-0.00005
 867,0.00018423,0.00550806,-0.00206755,-0.00100467,0.01286508,0.0116391
 8,0.01111703,-0.08176437,-0.08607658,-0.05464974,-0.03248132,-0.005086
 87,-0.00504085,0.00013111,-0.00819814,-0.00515948,0.00000233,-0.000001
 10,-0.00000031,0.00000068,0.00000111,-0.00000166,-0.00000483,-0.000001
 25,0.00001075,-0.00000001,0.00000297,0.00000121,0.00001781,-0.00001515
 ,0.00000503,-0.00000404,0.00000153,-0.00000971,0.00000879,0.00000498,0
 .00000050,0.00000500,0.00000025,-0.00000132,0.00000015,0.00000115,0.00
 000023,0.00000019,0.00000142,-0.00000098,-0.00000103,0.00000042,-0.000
 00069,-0.00000237,0.00000292,0.00000324,0.00001771,-0.00001130,-0.0000
 0257,-0.00001671,0.00000855,-0.00000787,0.00003311,-0.00000756,0.00001
 481,-0.00066121,-0.00031527,0.00042943,-0.00130036,0.00076449,-0.00096
 177,0.09743236,0.08791430,0.00000686,-0.00001187,0.00000164,-0.0000082
 6,0.00001511,-0.00000446,0.00000380,-0.00000783,-0.00000222,-0.0000033
 3,0.00000277,0.00001191,0.00000938,-0.00000402,-0.00001188,-0.00000652
 ,0.00000857,0.00001480,0.00000663,-0.00000650,-0.00001027,0.00000053,0
 .00005213,0.00002152,0.00011367,0.00000210,0.00005649,-0.00008763,-0.0
 0011965,0.00000637,0.00004412,0.00006574,-0.00002981,-0.00001559,-0.00
 002052,0.00000543,0.00002097,0.00001764,0.00000742,-0.00000370,-0.0000
 1249,-0.00003028,0.00001158,0.00001715,-0.00000334,0.00000243,0.000003
 25,0.00000489,-0.00000205,-0.00000258,0.00000153,0.00000045,0.00000140
 ,-0.00000307,-0.00000066,-0.00000105,0.00000323,0.00000090,0.00000109,
 -0.00000513,-0.00001311,-0.00000886,0.00002518,-0.00005604,0.00003490,
 0.00000953,-0.00004150,0.00002463,-0.00005722,0.00013855,-0.00003896,-
 0.00006438,-0.00076756,-0.00042644,0.00193837,0.00015788,0.00000733,0.
 00002096,0.00009375,0.00012911,-0.00030437,0.00095566,-0.00113839,0.00
 329559,0.00476982,0.00458371,-0.00434580,-0.12803660,-0.05586081,-0.05
 791975,-0.00994727,0.00239683,-0.01350117,-0.00006923,-0.00511620,0.00
 206993,0.00000155,-0.00000185,0.00000057,0.00000215,-0.00000020,-0.000
 00353,-0.00000524,-0.00000032,0.00001144,-0.00000294,0.00000255,-0.000
 00081,0.00001110,-0.00001610,0.00000534,0.00000107,0.00000235,-0.00000
 662,0.00000696,0.00000382,0.00000187,0.00000115,-0.00000003,-0.0000028
 9,0.00000056,0.00000058,0.00000061,0.00000169,0.00000142,-0.00000101,0
 .00000097,-0.00000039,-0.00000256,-0.00000130,0.,0.00000469,0.00000626
 ,-0.00001221,0.00000618,-0.00001608,-0.00000396,0.00002603,0.00001421,
 0.00000459,-0.00000292,0.00021598,0.00062085,-0.00142214,-0.00099566,-
 0.00056273,0.00182353,0.13347965,0.05537434,0.06836057\\-0.00000280,0.
 00000568,-0.00000194,0.00000966,-0.00001873,0.00000804,-0.00000548,0.0
 0001133,-0.00000438,0.00000256,-0.00000328,-0.00000073,-0.00000084,-0.
 00000060,-0.00000214,0.00000083,-0.00000007,0.00000668,-0.00000436,0.0
 0001042,-0.00000547,0.00000213,-0.00000339,-0.00000537,-0.00000218,0.0
 0000127,0.00000573,-0.00000403,0.00000871,-0.00000979,0.00000214,-0.00
 000771,0.00000384,0.00000906,0.00000412,0.00000535,-0.00001367,-0.0000
 1803,-0.00003075,0.00001824,0.00003132,0.00001731,-0.00000932,-0.00001
 630,0.00000680,0.00000411,0.00000582,-0.00000798,-0.00000086,-0.000000
 10,0.00000902,-0.00000198,-0.00000296,-0.00000561,0.00000425,0.0000054
 9,0.00000110,-0.00000234,-0.00000119,0.00000213,-0.00000344,-0.0000040
 9,0.00001088,0.00000041,0.00000105,0.00000058,-0.00000438,-0.00000343,
 -0.00000292,0.00000352,-0.00000080,0.00000091,-0.00000285,-0.00000354,
 -0.00000034,0.00000108,0.00000489,0.00000067,0.00000107,-0.00000124,-0
 .00000079,0.00000490,0.00000117,0.00000335,-0.00000870,0.00000433,-0.0
 0000311,-0.00000364,-0.00001283,-0.00000779,0.00000400,-0.00000119,0.0
 0000317,0.00000158,0.00000459,-0.00000299,0.00000080,-0.00000045,0.000
 00146,0.00000043,-0.00000032,0.00000203,0.00000183,-0.00000102,0.00000
 065,0.00000041,-0.00000053,-0.00000015,-0.00000194,-0.00000035,0.00000
 109,0.00000055,0.00000170,0.00000002,-0.00000161,-0.00000054,0.0000013
 0,-0.00000069,-0.00000127,-0.00000125,-0.00000136,-0.00000151,0.000000
 61,-0.00000046,-0.00000068,0.00000239,0.00000014,-0.00000015,0.0000022
 8,0.00000171,0.00000125,0.00000119,-0.00000011,0.00000211,0.00000071,-
 0.00000067,0.00000320,-0.00000053,-0.00000037,-0.00000157,-0.00000110,
 -0.00000194,0.00000226,-0.00000157,0.00000233,-0.00000217,-0.00000151,
 0.00000225,-0.00000070,-0.00000110\\\@


 ONE BIG VICE IN A MAN IS APT TO KEEP OUT MANY SMALLER ONES.

                           -- BRET HARTE
 Job cpu time:  0 days 21 hours  4 minutes 13.3 seconds.
 File lengths (MBytes):  RWF=   1674 Int=      0 D2E=      0 Chk=     24 Scr=      1
 Normal termination of Gaussian 09 at Fri Sep  9 14:04:14 2022.
