 Entering Gaussian System, Link 0=g09
 Input=Mol38.gjf
 Output=Mol38.log
 Initial command:
 /opt/gaussian/l1.exe /home/scr/lqcapf-6/Gau-319915.inp -scrdir=/home/scr/lqcapf-6/
 Entering Link 1 = /opt/gaussian/l1.exe PID=    319917.
  
 Copyright (c) 1988,1990,1992,1993,1995,1998,2003,2009,2011,
            Gaussian, Inc.  All Rights Reserved.
  
 This is part of the Gaussian(R) 09 program.  It is based on
 the Gaussian(R) 03 system (copyright 2003, Gaussian, Inc.),
 the Gaussian(R) 98 system (copyright 1998, Gaussian, Inc.),
 the Gaussian(R) 94 system (copyright 1995, Gaussian, Inc.),
 the Gaussian 92(TM) system (copyright 1992, Gaussian, Inc.),
 the Gaussian 90(TM) system (copyright 1990, Gaussian, Inc.),
 the Gaussian 88(TM) system (copyright 1988, Gaussian, Inc.),
 the Gaussian 86(TM) system (copyright 1986, Carnegie Mellon
 University), and the Gaussian 82(TM) system (copyright 1983,
 Carnegie Mellon University). Gaussian is a federally registered
 trademark of Gaussian, Inc.
  
 This software contains proprietary and confidential information,
 including trade secrets, belonging to Gaussian, Inc.
  
 This software is provided under written license and may be
 used, copied, transmitted, or stored only in accord with that
 written license.
  
 The following legend is applicable only to US Government
 contracts under FAR:
  
                    RESTRICTED RIGHTS LEGEND
  
 Use, reproduction and disclosure by the US Government is
 subject to restrictions as set forth in subparagraphs (a)
 and (c) of the Commercial Computer Software - Restricted
 Rights clause in FAR 52.227-19.
  
 Gaussian, Inc.
 340 Quinnipiac St., Bldg. 40, Wallingford CT 06492
  
  
 ---------------------------------------------------------------
 Warning -- This program may not be used in any manner that
 competes with the business of Gaussian, Inc. or will provide
 assistance to any competitor of Gaussian, Inc.  The licensee
 of this program is prohibited from giving any competitor of
 Gaussian, Inc. access to this program.  By using this program,
 the user acknowledges that Gaussian, Inc. is engaged in the
 business of creating and licensing software in the field of
 computational chemistry and represents and warrants to the
 licensee that it is not a competitor of Gaussian, Inc. and that
 it will not use this program in any manner prohibited above.
 ---------------------------------------------------------------
  

 Cite this work as:
 Gaussian 09, Revision C.01,
 M. J. Frisch, G. W. Trucks, H. B. Schlegel, G. E. Scuseria, 
 M. A. Robb, J. R. Cheeseman, G. Scalmani, V. Barone, B. Mennucci, 
 G. A. Petersson, H. Nakatsuji, M. Caricato, X. Li, H. P. Hratchian, 
 A. F. Izmaylov, J. Bloino, G. Zheng, J. L. Sonnenberg, M. Hada, 
 M. Ehara, K. Toyota, R. Fukuda, J. Hasegawa, M. Ishida, T. Nakajima, 
 Y. Honda, O. Kitao, H. Nakai, T. Vreven, J. A. Montgomery, Jr., 
 J. E. Peralta, F. Ogliaro, M. Bearpark, J. J. Heyd, E. Brothers, 
 K. N. Kudin, V. N. Staroverov, T. Keith, R. Kobayashi, J. Normand, 
 K. Raghavachari, A. Rendell, J. C. Burant, S. S. Iyengar, J. Tomasi, 
 M. Cossi, N. Rega, J. M. Millam, M. Klene, J. E. Knox, J. B. Cross, 
 V. Bakken, C. Adamo, J. Jaramillo, R. Gomperts, R. E. Stratmann, 
 O. Yazyev, A. J. Austin, R. Cammi, C. Pomelli, J. W. Ochterski, 
 R. L. Martin, K. Morokuma, V. G. Zakrzewski, G. A. Voth, 
 P. Salvador, J. J. Dannenberg, S. Dapprich, A. D. Daniels, 
 O. Farkas, J. B. Foresman, J. V. Ortiz, J. Cioslowski, 
 and D. J. Fox, Gaussian, Inc., Wallingford CT, 2010.
 
 ******************************************
 Gaussian 09:  EM64L-G09RevC.01 23-Sep-2011
                 8-Sep-2022 
 ******************************************
 %nprocshared=8
 Will use up to    8 processors via shared memory.
 %mem=1600MB
 -------------------------
 #p opt freq b3lyp/cc-pvdz
 -------------------------
 1/14=-1,18=20,19=15,26=3,38=1/1,3;
 2/9=110,12=2,17=6,18=5,40=1/2;
 3/5=16,11=2,16=1,25=1,30=1,71=1,74=-5/1,2,3;
 4//1;
 5/5=2,38=5/2;
 6/7=2,8=2,9=2,10=2,28=1/1;
 7//1,2,3,16;
 1/14=-1,18=20,19=15/3(2);
 2/9=110/2;
 99//99;
 2/9=110/2;
 3/5=16,11=2,16=1,25=1,30=1,71=1,74=-5/1,2,3;
 4/5=5,16=3/1;
 5/5=2,38=5/2;
 7//1,2,3,16;
 1/14=-1,18=20,19=15/3(-5);
 2/9=110/2;
 6/7=2,8=2,9=2,10=2,19=2,28=1/1;
 99/9=1/99;
 Leave Link    1 at Thu Sep  8 09:36:17 2022, MaxMem=  209715200 cpu:       0.2
 (Enter /opt/gaussian/l101.exe)
 ---------
 Mol38.log
 ---------
 Charge =  0 Multiplicity = 1
 Symbolic Z-Matrix:
 C                     1.6376   -3.11947   1.71293 
 O                     1.67104  -1.68645   1.90924 
 C                     2.28233  -0.8818    0.97879 
 C                     3.60721  -1.05259   0.62072 
 C                     4.21905  -0.18995  -0.28853 
 C                     3.46567   0.85123  -0.82614 
 C                     2.13974   1.02276  -0.46203 
 C                     1.53645   0.16158   0.43715 
 N                     0.17627   0.33646   0.84935 
 C                    -0.09963   1.3763    1.84072 
 C                    -0.9433    2.54277   1.3492 
 C                    -1.45032   3.44381   2.28377 
 C                    -2.19575   4.53826   1.8803 
 C                    -2.45731   4.75273   0.53277 
 C                    -1.9556    3.85166  -0.37959 
 C                    -1.20525   2.75543   0.0018 
 Cl                   -2.28863   4.10434  -2.14096 
 C                    -0.72083  -0.6451    0.52227 
 O                    -0.46023  -1.52463  -0.28464 
 C                    -2.07693  -0.60162   1.21128 
 N                    -2.93064  -1.66888   0.78928 
 N                    -3.0502   -2.78327   1.56413 
 N                    -3.80376  -3.62315   0.9853 
 C                    -4.21493  -3.09473  -0.22805 
 C                    -5.04438  -3.62492  -1.21556 
 C                    -5.27457  -2.85046  -2.32596 
 C                    -4.68842  -1.57136  -2.45614 
 C                    -3.8683   -1.04222  -1.48849 
 C                    -3.64302  -1.83573  -0.36046 
 C                     5.62822  -0.37916  -0.6578 
 C                     6.34238  -1.60568  -0.76255 
 N                     7.5887   -1.40381  -1.11859 
 N                     7.71168  -0.06564  -1.24692 
 C                     6.55567   0.57894  -0.97958 
 H                     0.95864  -3.49538   2.45828 
 H                     1.26795  -3.34659   0.7255 
 H                     2.61859  -3.54638   1.86403 
 H                     4.17353  -1.83852   1.07864 
 H                     3.90238   1.50961  -1.55092 
 H                     1.56769   1.81933  -0.89429 
 H                    -0.56178   0.94655   2.72156 
 H                     0.85955   1.75371   2.16455 
 H                    -1.26125   3.2887    3.32978 
 H                    -2.57951   5.22453   2.60944 
 H                    -3.03595   5.59246   0.20786 
 H                    -0.83465   2.07819  -0.73888 
 H                    -1.93981  -0.71782   2.27659 
 H                    -2.5649    0.34712   1.03705 
 H                    -5.4762   -4.59833  -1.09867 
 H                    -5.90434  -3.21523  -3.11314 
 H                    -4.88809  -1.00017  -3.34193 
 H                    -3.41911  -0.07651  -1.60566 
 H                     5.97829  -2.5955   -0.61073 
 H                     6.4758    1.64109  -1.01552 
 H                     8.5843    0.31798  -1.50671 
 
 NAtoms=     55 NQM=        0 NQMF=       0 NMMI=     55 NMMIF=      0
                NMic=       0 NMicF=      0.
                    Isotopes and Nuclear Properties:
 (Nuclear quadrupole moments (NQMom) in fm**2, nuclear magnetic moments (NMagM)
  in nuclear magnetons)

  Atom         1           2           3           4           5           6           7           8           9          10
 IAtWgt=          12          16          12          12          12          12          12          12          14          12
 AtmWgt=  12.0000000  15.9949146  12.0000000  12.0000000  12.0000000  12.0000000  12.0000000  12.0000000  14.0030740  12.0000000
 NucSpn=           0           0           0           0           0           0           0           0           2           0
 AtZEff=   0.0000000   0.0000000   0.0000000   0.0000000   0.0000000   0.0000000   0.0000000   0.0000000   0.0000000   0.0000000
 NQMom=    0.0000000   0.0000000   0.0000000   0.0000000   0.0000000   0.0000000   0.0000000   0.0000000   2.0440000   0.0000000
 NMagM=    0.0000000   0.0000000   0.0000000   0.0000000   0.0000000   0.0000000   0.0000000   0.0000000   0.4037610   0.0000000

  Atom        11          12          13          14          15          16          17          18          19          20
 IAtWgt=          12          12          12          12          12          12          35          12          16          12
 AtmWgt=  12.0000000  12.0000000  12.0000000  12.0000000  12.0000000  12.0000000  34.9688527  12.0000000  15.9949146  12.0000000
 NucSpn=           0           0           0           0           0           0           3           0           0           0
 AtZEff=   0.0000000   0.0000000   0.0000000   0.0000000   0.0000000   0.0000000   0.0000000   0.0000000   0.0000000   0.0000000
 NQMom=    0.0000000   0.0000000   0.0000000   0.0000000   0.0000000   0.0000000  -8.1650000   0.0000000   0.0000000   0.0000000
 NMagM=    0.0000000   0.0000000   0.0000000   0.0000000   0.0000000   0.0000000   0.8218740   0.0000000   0.0000000   0.0000000

  Atom        21          22          23          24          25          26          27          28          29          30
 IAtWgt=          14          14          14          12          12          12          12          12          12          12
 AtmWgt=  14.0030740  14.0030740  14.0030740  12.0000000  12.0000000  12.0000000  12.0000000  12.0000000  12.0000000  12.0000000
 NucSpn=           2           2           2           0           0           0           0           0           0           0
 AtZEff=   0.0000000   0.0000000   0.0000000   0.0000000   0.0000000   0.0000000   0.0000000   0.0000000   0.0000000   0.0000000
 NQMom=    2.0440000   2.0440000   2.0440000   0.0000000   0.0000000   0.0000000   0.0000000   0.0000000   0.0000000   0.0000000
 NMagM=    0.4037610   0.4037610   0.4037610   0.0000000   0.0000000   0.0000000   0.0000000   0.0000000   0.0000000   0.0000000

  Atom        31          32          33          34          35          36          37          38          39          40
 IAtWgt=          12          14          14          12           1           1           1           1           1           1
 AtmWgt=  12.0000000  14.0030740  14.0030740  12.0000000   1.0078250   1.0078250   1.0078250   1.0078250   1.0078250   1.0078250
 NucSpn=           0           2           2           0           1           1           1           1           1           1
 AtZEff=   0.0000000   0.0000000   0.0000000   0.0000000   0.0000000   0.0000000   0.0000000   0.0000000   0.0000000   0.0000000
 NQMom=    0.0000000   2.0440000   2.0440000   0.0000000   0.0000000   0.0000000   0.0000000   0.0000000   0.0000000   0.0000000
 NMagM=    0.0000000   0.4037610   0.4037610   0.0000000   2.7928460   2.7928460   2.7928460   2.7928460   2.7928460   2.7928460

  Atom        41          42          43          44          45          46          47          48          49          50
 IAtWgt=           1           1           1           1           1           1           1           1           1           1
 AtmWgt=   1.0078250   1.0078250   1.0078250   1.0078250   1.0078250   1.0078250   1.0078250   1.0078250   1.0078250   1.0078250
 NucSpn=           1           1           1           1           1           1           1           1           1           1
 AtZEff=   0.0000000   0.0000000   0.0000000   0.0000000   0.0000000   0.0000000   0.0000000   0.0000000   0.0000000   0.0000000
 NQMom=    0.0000000   0.0000000   0.0000000   0.0000000   0.0000000   0.0000000   0.0000000   0.0000000   0.0000000   0.0000000
 NMagM=    2.7928460   2.7928460   2.7928460   2.7928460   2.7928460   2.7928460   2.7928460   2.7928460   2.7928460   2.7928460

  Atom        51          52          53          54          55
 IAtWgt=           1           1           1           1           1
 AtmWgt=   1.0078250   1.0078250   1.0078250   1.0078250   1.0078250
 NucSpn=           1           1           1           1           1
 AtZEff=   0.0000000   0.0000000   0.0000000   0.0000000   0.0000000
 NQMom=    0.0000000   0.0000000   0.0000000   0.0000000   0.0000000
 NMagM=    2.7928460   2.7928460   2.7928460   2.7928460   2.7928460
 Leave Link  101 at Thu Sep  8 09:36:17 2022, MaxMem=  209715200 cpu:       1.0
 (Enter /opt/gaussian/l103.exe)

 GradGradGradGradGradGradGradGradGradGradGradGradGradGradGradGradGradGrad
 Berny optimization.
 Initialization pass.
                           ----------------------------
                           !    Initial Parameters    !
                           ! (Angstroms and Degrees)  !
 --------------------------                            --------------------------
 ! Name  Definition              Value          Derivative Info.                !
 --------------------------------------------------------------------------------
 ! R1    R(1,2)                  1.4468         estimate D2E/DX2                !
 ! R2    R(1,35)                 1.076          estimate D2E/DX2                !
 ! R3    R(1,36)                 1.0785         estimate D2E/DX2                !
 ! R4    R(1,37)                 1.0805         estimate D2E/DX2                !
 ! R5    R(2,3)                  1.3736         estimate D2E/DX2                !
 ! R6    R(3,4)                  1.383          estimate D2E/DX2                !
 ! R7    R(3,8)                  1.3922         estimate D2E/DX2                !
 ! R8    R(4,5)                  1.3947         estimate D2E/DX2                !
 ! R9    R(4,38)                 1.0715         estimate D2E/DX2                !
 ! R10   R(5,6)                  1.3931         estimate D2E/DX2                !
 ! R11   R(5,30)                 1.469          estimate D2E/DX2                !
 ! R12   R(6,7)                  1.3857         estimate D2E/DX2                !
 ! R13   R(6,39)                 1.0721         estimate D2E/DX2                !
 ! R14   R(7,8)                  1.3835         estimate D2E/DX2                !
 ! R15   R(7,40)                 1.0717         estimate D2E/DX2                !
 ! R16   R(8,9)                  1.432          estimate D2E/DX2                !
 ! R17   R(9,10)                 1.4629         estimate D2E/DX2                !
 ! R18   R(9,18)                 1.3694         estimate D2E/DX2                !
 ! R19   R(10,11)                1.5212         estimate D2E/DX2                !
 ! R20   R(10,41)                1.0836         estimate D2E/DX2                !
 ! R21   R(10,42)                1.0804         estimate D2E/DX2                !
 ! R22   R(11,12)                1.3937         estimate D2E/DX2                !
 ! R23   R(11,16)                1.389          estimate D2E/DX2                !
 ! R24   R(12,13)                1.3843         estimate D2E/DX2                !
 ! R25   R(12,43)                1.0742         estimate D2E/DX2                !
 ! R26   R(13,14)                1.3893         estimate D2E/DX2                !
 ! R27   R(13,44)                1.0723         estimate D2E/DX2                !
 ! R28   R(14,15)                1.377          estimate D2E/DX2                !
 ! R29   R(14,45)                1.0703         estimate D2E/DX2                !
 ! R30   R(15,16)                1.3821         estimate D2E/DX2                !
 ! R31   R(15,17)                1.8103         estimate D2E/DX2                !
 ! R32   R(16,46)                1.0699         estimate D2E/DX2                !
 ! R33   R(18,19)                1.2217         estimate D2E/DX2                !
 ! R34   R(18,20)                1.5217         estimate D2E/DX2                !
 ! R35   R(20,21)                1.4304         estimate D2E/DX2                !
 ! R36   R(20,47)                1.0804         estimate D2E/DX2                !
 ! R37   R(20,48)                1.081          estimate D2E/DX2                !
 ! R38   R(21,22)                1.3626         estimate D2E/DX2                !
 ! R39   R(21,29)                1.3628         estimate D2E/DX2                !
 ! R40   R(22,23)                1.2682         estimate D2E/DX2                !
 ! R41   R(23,24)                1.3858         estimate D2E/DX2                !
 ! R42   R(24,25)                1.3944         estimate D2E/DX2                !
 ! R43   R(24,29)                1.3891         estimate D2E/DX2                !
 ! R44   R(25,26)                1.3732         estimate D2E/DX2                !
 ! R45   R(25,49)                1.0713         estimate D2E/DX2                !
 ! R46   R(26,27)                1.413          estimate D2E/DX2                !
 ! R47   R(26,50)                1.0721         estimate D2E/DX2                !
 ! R48   R(27,28)                1.3744         estimate D2E/DX2                !
 ! R49   R(27,51)                1.0727         estimate D2E/DX2                !
 ! R50   R(28,29)                1.3974         estimate D2E/DX2                !
 ! R51   R(28,52)                1.0715         estimate D2E/DX2                !
 ! R52   R(30,31)                1.4231         estimate D2E/DX2                !
 ! R53   R(30,34)                1.3717         estimate D2E/DX2                !
 ! R54   R(31,32)                1.3118         estimate D2E/DX2                !
 ! R55   R(31,53)                1.0655         estimate D2E/DX2                !
 ! R56   R(32,33)                1.3499         estimate D2E/DX2                !
 ! R57   R(33,34)                1.3503         estimate D2E/DX2                !
 ! R58   R(33,55)                0.988          estimate D2E/DX2                !
 ! R59   R(34,54)                1.0658         estimate D2E/DX2                !
 ! A1    A(2,1,35)             105.4632         estimate D2E/DX2                !
 ! A2    A(2,1,36)             109.921          estimate D2E/DX2                !
 ! A3    A(2,1,37)             110.5725         estimate D2E/DX2                !
 ! A4    A(35,1,36)            110.1419         estimate D2E/DX2                !
 ! A5    A(35,1,37)            109.7542         estimate D2E/DX2                !
 ! A6    A(36,1,37)            110.855          estimate D2E/DX2                !
 ! A7    A(1,2,3)              119.9063         estimate D2E/DX2                !
 ! A8    A(2,3,4)              121.9615         estimate D2E/DX2                !
 ! A9    A(2,3,8)              117.6524         estimate D2E/DX2                !
 ! A10   A(4,3,8)              120.3344         estimate D2E/DX2                !
 ! A11   A(3,4,5)              120.8409         estimate D2E/DX2                !
 ! A12   A(3,4,38)             119.0947         estimate D2E/DX2                !
 ! A13   A(5,4,38)             120.0278         estimate D2E/DX2                !
 ! A14   A(4,5,6)              118.4646         estimate D2E/DX2                !
 ! A15   A(4,5,30)             120.3337         estimate D2E/DX2                !
 ! A16   A(6,5,30)             121.2008         estimate D2E/DX2                !
 ! A17   A(5,6,7)              120.5706         estimate D2E/DX2                !
 ! A18   A(5,6,39)             119.971          estimate D2E/DX2                !
 ! A19   A(7,6,39)             119.4314         estimate D2E/DX2                !
 ! A20   A(6,7,8)              120.7292         estimate D2E/DX2                !
 ! A21   A(6,7,40)             119.7867         estimate D2E/DX2                !
 ! A22   A(8,7,40)             119.4739         estimate D2E/DX2                !
 ! A23   A(3,8,7)              119.0595         estimate D2E/DX2                !
 ! A24   A(3,8,9)              119.2362         estimate D2E/DX2                !
 ! A25   A(7,8,9)              121.6854         estimate D2E/DX2                !
 ! A26   A(8,9,10)             117.4519         estimate D2E/DX2                !
 ! A27   A(8,9,18)             117.7729         estimate D2E/DX2                !
 ! A28   A(10,9,18)            123.2156         estimate D2E/DX2                !
 ! A29   A(9,10,11)            115.5104         estimate D2E/DX2                !
 ! A30   A(9,10,41)            110.4506         estimate D2E/DX2                !
 ! A31   A(9,10,42)            106.4972         estimate D2E/DX2                !
 ! A32   A(11,10,41)           109.2831         estimate D2E/DX2                !
 ! A33   A(11,10,42)           108.745          estimate D2E/DX2                !
 ! A34   A(41,10,42)           105.8746         estimate D2E/DX2                !
 ! A35   A(10,11,12)           118.741          estimate D2E/DX2                !
 ! A36   A(10,11,16)           122.3732         estimate D2E/DX2                !
 ! A37   A(12,11,16)           118.8748         estimate D2E/DX2                !
 ! A38   A(11,12,13)           120.7706         estimate D2E/DX2                !
 ! A39   A(11,12,43)           119.7081         estimate D2E/DX2                !
 ! A40   A(13,12,43)           119.5213         estimate D2E/DX2                !
 ! A41   A(12,13,14)           120.4055         estimate D2E/DX2                !
 ! A42   A(12,13,44)           120.0339         estimate D2E/DX2                !
 ! A43   A(14,13,44)           119.5599         estimate D2E/DX2                !
 ! A44   A(13,14,15)           118.2316         estimate D2E/DX2                !
 ! A45   A(13,14,45)           121.1534         estimate D2E/DX2                !
 ! A46   A(15,14,45)           120.6146         estimate D2E/DX2                !
 ! A47   A(14,15,16)           122.2766         estimate D2E/DX2                !
 ! A48   A(14,15,17)           119.0984         estimate D2E/DX2                !
 ! A49   A(16,15,17)           118.625          estimate D2E/DX2                !
 ! A50   A(11,16,15)           119.4396         estimate D2E/DX2                !
 ! A51   A(11,16,46)           120.6195         estimate D2E/DX2                !
 ! A52   A(15,16,46)           119.9407         estimate D2E/DX2                !
 ! A53   A(9,18,19)            122.2788         estimate D2E/DX2                !
 ! A54   A(9,18,20)            117.0765         estimate D2E/DX2                !
 ! A55   A(19,18,20)           120.6447         estimate D2E/DX2                !
 ! A56   A(18,20,21)           112.147          estimate D2E/DX2                !
 ! A57   A(18,20,47)           109.2866         estimate D2E/DX2                !
 ! A58   A(18,20,48)           110.755          estimate D2E/DX2                !
 ! A59   A(21,20,47)           106.6436         estimate D2E/DX2                !
 ! A60   A(21,20,48)           109.7477         estimate D2E/DX2                !
 ! A61   A(47,20,48)           108.0963         estimate D2E/DX2                !
 ! A62   A(20,21,22)           119.6595         estimate D2E/DX2                !
 ! A63   A(20,21,29)           130.7112         estimate D2E/DX2                !
 ! A64   A(22,21,29)           109.4976         estimate D2E/DX2                !
 ! A65   A(21,22,23)           109.5258         estimate D2E/DX2                !
 ! A66   A(22,23,24)           108.8682         estimate D2E/DX2                !
 ! A67   A(23,24,25)           130.6607         estimate D2E/DX2                !
 ! A68   A(23,24,29)           107.8718         estimate D2E/DX2                !
 ! A69   A(25,24,29)           121.4675         estimate D2E/DX2                !
 ! A70   A(24,25,26)           117.254          estimate D2E/DX2                !
 ! A71   A(24,25,49)           120.5307         estimate D2E/DX2                !
 ! A72   A(26,25,49)           122.2153         estimate D2E/DX2                !
 ! A73   A(25,26,27)           121.0296         estimate D2E/DX2                !
 ! A74   A(25,26,50)           120.0205         estimate D2E/DX2                !
 ! A75   A(27,26,50)           118.9495         estimate D2E/DX2                !
 ! A76   A(26,27,28)           122.0853         estimate D2E/DX2                !
 ! A77   A(26,27,51)           118.7418         estimate D2E/DX2                !
 ! A78   A(28,27,51)           119.1722         estimate D2E/DX2                !
 ! A79   A(27,28,29)           116.4812         estimate D2E/DX2                !
 ! A80   A(27,28,52)           121.3428         estimate D2E/DX2                !
 ! A81   A(29,28,52)           122.1717         estimate D2E/DX2                !
 ! A82   A(21,29,24)           104.2265         estimate D2E/DX2                !
 ! A83   A(21,29,28)           134.0875         estimate D2E/DX2                !
 ! A84   A(24,29,28)           121.6821         estimate D2E/DX2                !
 ! A85   A(5,30,31)            127.6541         estimate D2E/DX2                !
 ! A86   A(5,30,34)            128.1401         estimate D2E/DX2                !
 ! A87   A(31,30,34)           104.2057         estimate D2E/DX2                !
 ! A88   A(30,31,32)           111.3534         estimate D2E/DX2                !
 ! A89   A(30,31,53)           128.217          estimate D2E/DX2                !
 ! A90   A(32,31,53)           120.4154         estimate D2E/DX2                !
 ! A91   A(31,32,33)           105.3612         estimate D2E/DX2                !
 ! A92   A(32,33,34)           112.1102         estimate D2E/DX2                !
 ! A93   A(32,33,55)           119.3645         estimate D2E/DX2                !
 ! A94   A(34,33,55)           128.5247         estimate D2E/DX2                !
 ! A95   A(30,34,33)           106.9692         estimate D2E/DX2                !
 ! A96   A(30,34,54)           130.7936         estimate D2E/DX2                !
 ! A97   A(33,34,54)           122.2238         estimate D2E/DX2                !
 ! D1    D(35,1,2,3)          -169.5884         estimate D2E/DX2                !
 ! D2    D(36,1,2,3)           -50.8852         estimate D2E/DX2                !
 ! D3    D(37,1,2,3)            71.8309         estimate D2E/DX2                !
 ! D4    D(1,2,3,4)            -57.1221         estimate D2E/DX2                !
 ! D5    D(1,2,3,8)            125.4855         estimate D2E/DX2                !
 ! D6    D(2,3,4,5)           -177.51           estimate D2E/DX2                !
 ! D7    D(2,3,4,38)             0.2913         estimate D2E/DX2                !
 ! D8    D(8,3,4,5)             -0.1861         estimate D2E/DX2                !
 ! D9    D(8,3,4,38)           177.6151         estimate D2E/DX2                !
 ! D10   D(2,3,8,7)            177.4154         estimate D2E/DX2                !
 ! D11   D(2,3,8,9)             -1.0315         estimate D2E/DX2                !
 ! D12   D(4,3,8,7)             -0.0214         estimate D2E/DX2                !
 ! D13   D(4,3,8,9)           -178.4684         estimate D2E/DX2                !
 ! D14   D(3,4,5,6)              0.165          estimate D2E/DX2                !
 ! D15   D(3,4,5,30)           179.809          estimate D2E/DX2                !
 ! D16   D(38,4,5,6)          -177.6158         estimate D2E/DX2                !
 ! D17   D(38,4,5,30)            2.0282         estimate D2E/DX2                !
 ! D18   D(4,5,6,7)              0.0612         estimate D2E/DX2                !
 ! D19   D(4,5,6,39)          -178.0391         estimate D2E/DX2                !
 ! D20   D(30,5,6,7)          -179.5796         estimate D2E/DX2                !
 ! D21   D(30,5,6,39)            2.3201         estimate D2E/DX2                !
 ! D22   D(4,5,30,31)           32.944          estimate D2E/DX2                !
 ! D23   D(4,5,30,34)         -147.0482         estimate D2E/DX2                !
 ! D24   D(6,5,30,31)         -147.4219         estimate D2E/DX2                !
 ! D25   D(6,5,30,34)           32.5859         estimate D2E/DX2                !
 ! D26   D(5,6,7,8)             -0.2697         estimate D2E/DX2                !
 ! D27   D(5,6,7,40)          -179.1039         estimate D2E/DX2                !
 ! D28   D(39,6,7,8)           177.8407         estimate D2E/DX2                !
 ! D29   D(39,6,7,40)           -0.9935         estimate D2E/DX2                !
 ! D30   D(6,7,8,3)              0.2479         estimate D2E/DX2                !
 ! D31   D(6,7,8,9)            178.6553         estimate D2E/DX2                !
 ! D32   D(40,7,8,3)           179.0857         estimate D2E/DX2                !
 ! D33   D(40,7,8,9)            -2.5069         estimate D2E/DX2                !
 ! D34   D(3,8,9,10)           100.7865         estimate D2E/DX2                !
 ! D35   D(3,8,9,18)           -65.4438         estimate D2E/DX2                !
 ! D36   D(7,8,9,10)           -77.6182         estimate D2E/DX2                !
 ! D37   D(7,8,9,18)           116.1516         estimate D2E/DX2                !
 ! D38   D(8,9,10,11)          114.2466         estimate D2E/DX2                !
 ! D39   D(8,9,10,41)         -121.1096         estimate D2E/DX2                !
 ! D40   D(8,9,10,42)           -6.5963         estimate D2E/DX2                !
 ! D41   D(18,9,10,11)         -80.3332         estimate D2E/DX2                !
 ! D42   D(18,9,10,41)          44.3105         estimate D2E/DX2                !
 ! D43   D(18,9,10,42)         158.8239         estimate D2E/DX2                !
 ! D44   D(8,9,18,19)          -12.793          estimate D2E/DX2                !
 ! D45   D(8,9,18,20)          167.1843         estimate D2E/DX2                !
 ! D46   D(10,9,18,19)        -178.1694         estimate D2E/DX2                !
 ! D47   D(10,9,18,20)           1.808          estimate D2E/DX2                !
 ! D48   D(9,10,11,12)         168.5132         estimate D2E/DX2                !
 ! D49   D(9,10,11,16)         -12.7081         estimate D2E/DX2                !
 ! D50   D(41,10,11,12)         43.2657         estimate D2E/DX2                !
 ! D51   D(41,10,11,16)       -137.9556         estimate D2E/DX2                !
 ! D52   D(42,10,11,12)        -71.8692         estimate D2E/DX2                !
 ! D53   D(42,10,11,16)        106.9095         estimate D2E/DX2                !
 ! D54   D(10,11,12,13)        178.4187         estimate D2E/DX2                !
 ! D55   D(10,11,12,43)         -1.5735         estimate D2E/DX2                !
 ! D56   D(16,11,12,13)         -0.4034         estimate D2E/DX2                !
 ! D57   D(16,11,12,43)        179.6044         estimate D2E/DX2                !
 ! D58   D(10,11,16,15)       -178.6068         estimate D2E/DX2                !
 ! D59   D(10,11,16,46)          1.5868         estimate D2E/DX2                !
 ! D60   D(12,11,16,15)          0.1703         estimate D2E/DX2                !
 ! D61   D(12,11,16,46)       -179.6361         estimate D2E/DX2                !
 ! D62   D(11,12,13,14)          0.3463         estimate D2E/DX2                !
 ! D63   D(11,12,13,44)       -179.9511         estimate D2E/DX2                !
 ! D64   D(43,12,13,14)       -179.6614         estimate D2E/DX2                !
 ! D65   D(43,12,13,44)          0.0412         estimate D2E/DX2                !
 ! D66   D(12,13,14,15)         -0.0513         estimate D2E/DX2                !
 ! D67   D(12,13,14,45)        179.7224         estimate D2E/DX2                !
 ! D68   D(44,13,14,15)       -179.7553         estimate D2E/DX2                !
 ! D69   D(44,13,14,45)          0.0184         estimate D2E/DX2                !
 ! D70   D(13,14,15,16)         -0.1843         estimate D2E/DX2                !
 ! D71   D(13,14,15,17)        179.7247         estimate D2E/DX2                !
 ! D72   D(45,14,15,16)       -179.9592         estimate D2E/DX2                !
 ! D73   D(45,14,15,17)         -0.0502         estimate D2E/DX2                !
 ! D74   D(14,15,16,11)          0.1239         estimate D2E/DX2                !
 ! D75   D(14,15,16,46)        179.9316         estimate D2E/DX2                !
 ! D76   D(17,15,16,11)       -179.7855         estimate D2E/DX2                !
 ! D77   D(17,15,16,46)          0.0222         estimate D2E/DX2                !
 ! D78   D(9,18,20,21)         179.759          estimate D2E/DX2                !
 ! D79   D(9,18,20,47)         -62.2036         estimate D2E/DX2                !
 ! D80   D(9,18,20,48)          56.7784         estimate D2E/DX2                !
 ! D81   D(19,18,20,21)         -0.2632         estimate D2E/DX2                !
 ! D82   D(19,18,20,47)        117.7741         estimate D2E/DX2                !
 ! D83   D(19,18,20,48)       -123.2438         estimate D2E/DX2                !
 ! D84   D(18,20,21,22)         98.9897         estimate D2E/DX2                !
 ! D85   D(18,20,21,29)        -76.3621         estimate D2E/DX2                !
 ! D86   D(47,20,21,22)        -20.6056         estimate D2E/DX2                !
 ! D87   D(47,20,21,29)        164.0426         estimate D2E/DX2                !
 ! D88   D(48,20,21,22)       -137.4631         estimate D2E/DX2                !
 ! D89   D(48,20,21,29)         47.1851         estimate D2E/DX2                !
 ! D90   D(20,21,22,23)       -177.247          estimate D2E/DX2                !
 ! D91   D(29,21,22,23)         -0.9833         estimate D2E/DX2                !
 ! D92   D(20,21,29,24)        176.7164         estimate D2E/DX2                !
 ! D93   D(20,21,29,28)         -4.0184         estimate D2E/DX2                !
 ! D94   D(22,21,29,24)          1.0006         estimate D2E/DX2                !
 ! D95   D(22,21,29,28)       -179.7341         estimate D2E/DX2                !
 ! D96   D(21,22,23,24)          0.5142         estimate D2E/DX2                !
 ! D97   D(22,23,24,25)       -179.8001         estimate D2E/DX2                !
 ! D98   D(22,23,24,29)          0.1222         estimate D2E/DX2                !
 ! D99   D(23,24,25,26)        179.8585         estimate D2E/DX2                !
 ! D100  D(23,24,25,49)         -0.1938         estimate D2E/DX2                !
 ! D101  D(29,24,25,26)         -0.0547         estimate D2E/DX2                !
 ! D102  D(29,24,25,49)        179.8929         estimate D2E/DX2                !
 ! D103  D(23,24,29,21)         -0.6892         estimate D2E/DX2                !
 ! D104  D(23,24,29,28)        179.931          estimate D2E/DX2                !
 ! D105  D(25,24,29,21)        179.2417         estimate D2E/DX2                !
 ! D106  D(25,24,29,28)         -0.1381         estimate D2E/DX2                !
 ! D107  D(24,25,26,27)          0.1543         estimate D2E/DX2                !
 ! D108  D(24,25,26,50)        179.9137         estimate D2E/DX2                !
 ! D109  D(49,25,26,27)       -179.7924         estimate D2E/DX2                !
 ! D110  D(49,25,26,50)         -0.033          estimate D2E/DX2                !
 ! D111  D(25,26,27,28)         -0.0676         estimate D2E/DX2                !
 ! D112  D(25,26,27,51)        179.6128         estimate D2E/DX2                !
 ! D113  D(50,26,27,28)       -179.8295         estimate D2E/DX2                !
 ! D114  D(50,26,27,51)         -0.1491         estimate D2E/DX2                !
 ! D115  D(26,27,28,29)         -0.1202         estimate D2E/DX2                !
 ! D116  D(26,27,28,52)        179.1383         estimate D2E/DX2                !
 ! D117  D(51,27,28,29)       -179.7993         estimate D2E/DX2                !
 ! D118  D(51,27,28,52)         -0.5408         estimate D2E/DX2                !
 ! D119  D(27,28,29,21)       -178.9426         estimate D2E/DX2                !
 ! D120  D(27,28,29,24)          0.2205         estimate D2E/DX2                !
 ! D121  D(52,28,29,21)          1.8056         estimate D2E/DX2                !
 ! D122  D(52,28,29,24)       -179.0313         estimate D2E/DX2                !
 ! D123  D(5,30,31,32)         179.8854         estimate D2E/DX2                !
 ! D124  D(5,30,31,53)           1.2706         estimate D2E/DX2                !
 ! D125  D(34,30,31,32)         -0.1209         estimate D2E/DX2                !
 ! D126  D(34,30,31,53)       -178.7357         estimate D2E/DX2                !
 ! D127  D(5,30,34,33)        -179.9999         estimate D2E/DX2                !
 ! D128  D(5,30,34,54)           1.3402         estimate D2E/DX2                !
 ! D129  D(31,30,34,33)          0.0065         estimate D2E/DX2                !
 ! D130  D(31,30,34,54)       -178.6534         estimate D2E/DX2                !
 ! D131  D(30,31,32,33)          0.182          estimate D2E/DX2                !
 ! D132  D(53,31,32,33)        178.92           estimate D2E/DX2                !
 ! D133  D(31,32,33,34)         -0.1803         estimate D2E/DX2                !
 ! D134  D(31,32,33,55)        179.576          estimate D2E/DX2                !
 ! D135  D(32,33,34,30)          0.107          estimate D2E/DX2                !
 ! D136  D(32,33,34,54)        178.9077         estimate D2E/DX2                !
 ! D137  D(55,33,34,30)       -179.6216         estimate D2E/DX2                !
 ! D138  D(55,33,34,54)         -0.8208         estimate D2E/DX2                !
 --------------------------------------------------------------------------------
 Trust Radius=3.00D-01 FncErr=1.00D-07 GrdErr=1.00D-06
 Number of steps in this run=    304 maximum allowed number of steps=    330.
 GradGradGradGradGradGradGradGradGradGradGradGradGradGradGradGradGradGrad

 Leave Link  103 at Thu Sep  8 09:36:17 2022, MaxMem=  209715200 cpu:       0.1
 (Enter /opt/gaussian/l202.exe)
 Stoichiometry    C25H21ClN6O2
 Framework group  C1[X(C25H21ClN6O2)]
 Deg. of freedom   159
 Full point group                 C1      NOp   1
 Largest Abelian subgroup         C1      NOp   1
 Largest concise Abelian subgroup C1      NOp   1
                         Standard orientation:                         
 ---------------------------------------------------------------------
 Center     Atomic      Atomic             Coordinates (Angstroms)
 Number     Number       Type             X           Y           Z
 ---------------------------------------------------------------------
      1          6           0       -1.637601   -3.119470   -1.712930
      2          8           0       -1.671041   -1.686450   -1.909240
      3          6           0       -2.282330   -0.881800   -0.978790
      4          6           0       -3.607210   -1.052590   -0.620720
      5          6           0       -4.219050   -0.189950    0.288530
      6          6           0       -3.465670    0.851230    0.826140
      7          6           0       -2.139740    1.022760    0.462030
      8          6           0       -1.536450    0.161580   -0.437150
      9          7           0       -0.176270    0.336460   -0.849350
     10          6           0        0.099630    1.376300   -1.840720
     11          6           0        0.943300    2.542770   -1.349200
     12          6           0        1.450320    3.443810   -2.283770
     13          6           0        2.195750    4.538260   -1.880300
     14          6           0        2.457310    4.752730   -0.532770
     15          6           0        1.955600    3.851660    0.379590
     16          6           0        1.205250    2.755430   -0.001800
     17         17           0        2.288630    4.104340    2.140960
     18          6           0        0.720830   -0.645100   -0.522270
     19          8           0        0.460230   -1.524630    0.284640
     20          6           0        2.076930   -0.601620   -1.211280
     21          7           0        2.930639   -1.668881   -0.789280
     22          7           0        3.050199   -2.783271   -1.564130
     23          7           0        3.803759   -3.623151   -0.985300
     24          6           0        4.214929   -3.094731    0.228050
     25          6           0        5.044379   -3.624921    1.215560
     26          6           0        5.274569   -2.850461    2.325960
     27          6           0        4.688420   -1.571361    2.456140
     28          6           0        3.868300   -1.042221    1.488490
     29          6           0        3.643019   -1.835731    0.360460
     30          6           0       -5.628220   -0.379159    0.657800
     31          6           0       -6.342380   -1.605679    0.762550
     32          7           0       -7.588700   -1.403809    1.118590
     33          7           0       -7.711680   -0.065639    1.246920
     34          6           0       -6.555670    0.578941    0.979580
     35          1           0       -0.958641   -3.495380   -2.458280
     36          1           0       -1.267951   -3.346590   -0.725500
     37          1           0       -2.618591   -3.546380   -1.864030
     38          1           0       -4.173531   -1.838520   -1.078640
     39          1           0       -3.902380    1.509610    1.550920
     40          1           0       -1.567690    1.819330    0.894290
     41          1           0        0.561780    0.946550   -2.721560
     42          1           0       -0.859550    1.753710   -2.164550
     43          1           0        1.261250    3.288700   -3.329780
     44          1           0        2.579510    5.224530   -2.609440
     45          1           0        3.035950    5.592459   -0.207860
     46          1           0        0.834650    2.078190    0.738880
     47          1           0        1.939810   -0.717820   -2.276590
     48          1           0        2.564900    0.347120   -1.037050
     49          1           0        5.476199   -4.598331    1.098670
     50          1           0        5.904339   -3.215231    3.113140
     51          1           0        4.888090   -1.000171    3.341930
     52          1           0        3.419110   -0.076511    1.605660
     53          1           0       -5.978291   -2.595499    0.610730
     54          1           0       -6.475800    1.641091    1.015520
     55          1           0       -8.584300    0.317981    1.506710
 ---------------------------------------------------------------------
 Rotational constants (GHZ):      0.1343456      0.0688790      0.0540205
 Leave Link  202 at Thu Sep  8 09:36:17 2022, MaxMem=  209715200 cpu:       0.0
 (Enter /opt/gaussian/l301.exe)
 Standard basis: CC-pVDZ (5D, 7F)
 Ernie: Thresh=  0.10000D-02 Tol=  0.10000D-05 Strict=F.
 Ernie:  76 primitive shells out of 881 were deleted.
 There are   585 symmetry adapted basis functions of A   symmetry.
 Integral buffers will be    131072 words long.
 Raffenetti 2 integral format.
 Two-electron integral symmetry is turned on.
   585 basis functions,  1307 primitive gaussians,   619 cartesian basis functions
   123 alpha electrons      123 beta electrons
       nuclear repulsion energy      3487.7808467395 Hartrees.
 IExCor=  402 DFT=T Ex+Corr=B3LYP ExCW=0 ScaHFX=  0.200000
 ScaDFX=  0.800000  0.720000  1.000000  0.810000 ScalE2=  1.000000  1.000000
 IRadAn=      0 IRanWt=     -1 IRanGd=            0 ICorTp=0
 NAtoms=   55 NActive=   55 NUniq=   55 SFac= 1.00D+00 NAtFMM=   60 NAOKFM=F Big=F
 Leave Link  301 at Thu Sep  8 09:36:17 2022, MaxMem=  209715200 cpu:       0.3
 (Enter /opt/gaussian/l302.exe)
 NPDir=0 NMtPBC=     1 NCelOv=     1 NCel=       1 NClECP=     1 NCelD=      1
         NCelK=      1 NCelE2=     1 NClLst=     1 CellRange=     0.0.
 One-electron integrals computed using PRISM.
 NBasis=   585 RedAO= T  NBF=   585
 NBsUse=   585 1.00D-06 NBFU=   585
 Precomputing XC quadrature grid using
 IXCGrd= 2 IRadAn=           0 IRanWt=          -1 IRanGd=           0 AccXCQ= 0.00D+00.
 NRdTot=    3546 NPtTot=      453024 NUsed=      478574 NTot=      478606
 NSgBfM=   594   594   594   594   594 NAtAll=    55    55.
 Leave Link  302 at Thu Sep  8 09:36:18 2022, MaxMem=  209715200 cpu:       9.4
 (Enter /opt/gaussian/l303.exe)
 DipDrv:  MaxL=1.
 Leave Link  303 at Thu Sep  8 09:36:18 2022, MaxMem=  209715200 cpu:       1.3
 (Enter /opt/gaussian/l401.exe)
 Harris functional with IExCor=  402 diagonalized for initial guess.
 ExpMin= 1.22D-01 ExpMax= 1.28D+05 ExpMxC= 1.24D+03 IAcc=2 IRadAn=         4 AccDes= 0.00D+00
 HarFok:  IExCor=  402 AccDes= 0.00D+00 IRadAn=         4 IDoV= 1
 ScaDFX=  1.000000  1.000000  1.000000  1.000000
 FoFCou: FMM=F IPFlag=           0 FMFlag=      100000 FMFlg1=           0
         NFxFlg=           0 DoJE=T BraDBF=F KetDBF=T FulRan=T
         Omega=  0.000000  0.000000  1.000000  0.000000  0.000000 ICntrl=     500 IOpCl=  0
         NMat0=    1 NMatS0=    1 NMatT0=    0 NMatD0=    1 NMtDS0=    0 NMtDT0=    0
         I1Cent=           4 NGrid=           0.
 Petite list used in FoFCou.
 Harris En= -1904.22491786212    
 Initial guess orbital symmetries:
       Occupied  (A) (A) (A) (A) (A) (A) (A) (A) (A) (A) (A) (A)
                 (A) (A) (A) (A) (A) (A) (A) (A) (A) (A) (A) (A)
                 (A) (A) (A) (A) (A) (A) (A) (A) (A) (A) (A) (A)
                 (A) (A) (A) (A) (A) (A) (A) (A) (A) (A) (A) (A)
                 (A) (A) (A) (A) (A) (A) (A) (A) (A) (A) (A) (A)
                 (A) (A) (A) (A) (A) (A) (A) (A) (A) (A) (A) (A)
                 (A) (A) (A) (A) (A) (A) (A) (A) (A) (A) (A) (A)
                 (A) (A) (A) (A) (A) (A) (A) (A) (A) (A) (A) (A)
                 (A) (A) (A) (A) (A) (A) (A) (A) (A) (A) (A) (A)
                 (A) (A) (A) (A) (A) (A) (A) (A) (A) (A) (A) (A)
                 (A) (A) (A)
       Virtual   (A) (A) (A) (A) (A) (A) (A) (A) (A) (A) (A) (A)
                 (A) (A) (A) (A) (A) (A) (A) (A) (A) (A) (A) (A)
                 (A) (A) (A) (A) (A) (A) (A) (A) (A) (A) (A) (A)
                 (A) (A) (A) (A) (A) (A) (A) (A) (A) (A) (A) (A)
                 (A) (A) (A) (A) (A) (A) (A) (A) (A) (A) (A) (A)
                 (A) (A) (A) (A) (A) (A) (A) (A) (A) (A) (A) (A)
                 (A) (A) (A) (A) (A) (A) (A) (A) (A) (A) (A) (A)
                 (A) (A) (A) (A) (A) (A) (A) (A) (A) (A) (A) (A)
                 (A) (A) (A) (A) (A) (A) (A) (A) (A) (A) (A) (A)
                 (A) (A) (A) (A) (A) (A) (A) (A) (A) (A) (A) (A)
                 (A) (A) (A) (A) (A) (A) (A) (A) (A) (A) (A) (A)
                 (A) (A) (A) (A) (A) (A) (A) (A) (A) (A) (A) (A)
                 (A) (A) (A) (A) (A) (A) (A) (A) (A) (A) (A) (A)
                 (A) (A) (A) (A) (A) (A) (A) (A) (A) (A) (A) (A)
                 (A) (A) (A) (A) (A) (A) (A) (A) (A) (A) (A) (A)
                 (A) (A) (A) (A) (A) (A) (A) (A) (A) (A) (A) (A)
                 (A) (A) (A) (A) (A) (A) (A) (A) (A) (A) (A) (A)
                 (A) (A) (A) (A) (A) (A) (A) (A) (A) (A) (A) (A)
                 (A) (A) (A) (A) (A) (A) (A) (A) (A) (A) (A) (A)
                 (A) (A) (A) (A) (A) (A) (A) (A) (A) (A) (A) (A)
                 (A) (A) (A) (A) (A) (A) (A) (A) (A) (A) (A) (A)
                 (A) (A) (A) (A) (A) (A) (A) (A) (A) (A) (A) (A)
                 (A) (A) (A) (A) (A) (A) (A) (A) (A) (A) (A) (A)
                 (A) (A) (A) (A) (A) (A) (A) (A) (A) (A) (A) (A)
                 (A) (A) (A) (A) (A) (A) (A) (A) (A) (A) (A) (A)
                 (A) (A) (A) (A) (A) (A) (A) (A) (A) (A) (A) (A)
                 (A) (A) (A) (A) (A) (A) (A) (A) (A) (A) (A) (A)
                 (A) (A) (A) (A) (A) (A) (A) (A) (A) (A) (A) (A)
                 (A) (A) (A) (A) (A) (A) (A) (A) (A) (A) (A) (A)
                 (A) (A) (A) (A) (A) (A) (A) (A) (A) (A) (A) (A)
                 (A) (A) (A) (A) (A) (A) (A) (A) (A) (A) (A) (A)
                 (A) (A) (A) (A) (A) (A) (A) (A) (A) (A) (A) (A)
                 (A) (A) (A) (A) (A) (A) (A) (A) (A) (A) (A) (A)
                 (A) (A) (A) (A) (A) (A) (A) (A) (A) (A) (A) (A)
                 (A) (A) (A) (A) (A) (A) (A) (A) (A) (A) (A) (A)
                 (A) (A) (A) (A) (A) (A) (A) (A) (A) (A) (A) (A)
                 (A) (A) (A) (A) (A) (A) (A) (A) (A) (A) (A) (A)
                 (A) (A) (A) (A) (A) (A) (A) (A) (A) (A) (A) (A)
                 (A) (A) (A) (A) (A) (A)
 The electronic state of the initial guess is 1-A.
 Leave Link  401 at Thu Sep  8 09:36:22 2022, MaxMem=  209715200 cpu:      29.3
 (Enter /opt/gaussian/l502.exe)
 Closed shell SCF:
 Requested convergence on RMS density matrix=1.00D-08 within 128 cycles.
 Requested convergence on MAX density matrix=1.00D-06.
 Requested convergence on             energy=1.00D-06.
 No special actions if energy rises.
 Using DIIS extrapolation, IDIIS=  1040.
 Integral symmetry usage will be decided dynamically.
       478066 words used for storage of precomputed grid.
 IEnd=     1655325 IEndB=     1655325 NGot=   209715200 MDV=   208460296
 LenX=   208460296 LenY=   208076516
 Fock matrices will be formed incrementally for  20 cycles.
 Integral accuracy reduced to 1.0D-05 until final iterations.

 Cycle   1  Pass 0  IDiag  1:
 FoFCou: FMM=F IPFlag=           0 FMFlag=      100000 FMFlg1=           0
         NFxFlg=           0 DoJE=F BraDBF=F KetDBF=F FulRan=T
         Omega=  0.000000  0.000000  1.000000  0.000000  0.000000 ICntrl=       0 IOpCl=  0
         NMat0=    1 NMatS0=    1 NMatT0=    0 NMatD0=    1 NMtDS0=    0 NMtDT0=    0
         I1Cent=           0 NGrid=           0.
 Symmetry not used in FoFCou.
 E= -1903.87008681237    
 DIIS: error= 1.86D-02 at cycle   1 NSaved=   1.
 NSaved= 1 IEnMin= 1 EnMin= -1903.87008681237     IErMin= 1 ErrMin= 1.86D-02
 ErrMax= 1.86D-02 EMaxC= 1.00D-01 BMatC= 5.79D-01 BMatP= 5.79D-01
 IDIUse=3 WtCom= 8.14D-01 WtEn= 1.86D-01
 Coeff-Com:  0.100D+01
 Coeff-En:   0.100D+01
 Coeff:      0.100D+01
 Gap=     0.377 Goal=   None    Shift=    0.000
 GapD=    0.377 DampG=1.000 DampE=0.500 DampFc=0.5000 IDamp=-1.
 Damping current iteration by 5.00D-01
 RMSDP=3.87D-03 MaxDP=1.98D-01              OVMax= 2.83D-01

 Cycle   2  Pass 0  IDiag  1:
 RMSU=  1.35D-03    CP:  9.80D-01
 E= -1904.04919147234     Delta-E=       -0.179104659964 Rises=F Damp=T
 DIIS: error= 6.84D-03 at cycle   2 NSaved=   2.
 NSaved= 2 IEnMin= 2 EnMin= -1904.04919147234     IErMin= 2 ErrMin= 6.84D-03
 ErrMax= 6.84D-03 EMaxC= 1.00D-01 BMatC= 1.07D-01 BMatP= 5.79D-01
 IDIUse=3 WtCom= 9.32D-01 WtEn= 6.84D-02
 Coeff-Com:  0.219D+00 0.781D+00
 Coeff-En:   0.326D+00 0.674D+00
 Coeff:      0.227D+00 0.773D+00
 Gap=     0.261 Goal=   None    Shift=    0.000
 RMSDP=1.36D-03 MaxDP=7.93D-02 DE=-1.79D-01 OVMax= 3.01D-01

 Cycle   3  Pass 0  IDiag  1:
 RMSU=  9.25D-04    CP:  9.65D-01  8.31D-01
 E= -1904.39216182680     Delta-E=       -0.342970354461 Rises=F Damp=F
 DIIS: error= 1.00D-02 at cycle   3 NSaved=   3.
 NSaved= 3 IEnMin= 3 EnMin= -1904.39216182680     IErMin= 2 ErrMin= 6.84D-03
 ErrMax= 1.00D-02 EMaxC= 1.00D-01 BMatC= 1.18D-01 BMatP= 1.07D-01
 IDIUse=2 WtCom= 0.00D+00 WtEn= 1.00D+00
 Coeff-En:   0.000D+00 0.000D+00 0.100D+01
 Coeff:      0.000D+00 0.000D+00 0.100D+01
 Gap=     0.201 Goal=   None    Shift=    0.000
 RMSDP=1.99D-03 MaxDP=1.42D-01 DE=-3.43D-01 OVMax= 2.77D-01

 Cycle   4  Pass 0  IDiag  1:
 RMSU=  7.83D-04    CP:  9.70D-01  1.26D+00 -9.67D-02
 E= -1903.85486309275     Delta-E=        0.537298734050 Rises=F Damp=F
 DIIS: error= 2.26D-02 at cycle   4 NSaved=   4.
 NSaved= 4 IEnMin= 3 EnMin= -1904.39216182680     IErMin= 2 ErrMin= 6.84D-03
 ErrMax= 2.26D-02 EMaxC= 1.00D-01 BMatC= 7.37D-01 BMatP= 1.07D-01
 IDIUse=2 WtCom= 0.00D+00 WtEn= 1.00D+00
 Coeff-En:   0.000D+00 0.000D+00 0.800D+00 0.200D+00
 Coeff:      0.000D+00 0.000D+00 0.800D+00 0.200D+00
 Gap=     0.205 Goal=   None    Shift=    0.000
 RMSDP=1.10D-03 MaxDP=7.87D-02 DE= 5.37D-01 OVMax= 1.46D-01

 Cycle   5  Pass 0  IDiag  1:
 RMSU=  1.56D-04    CP:  9.69D-01  9.62D-01  4.57D-01  5.10D-01
 E= -1904.45387538286     Delta-E=       -0.599012290111 Rises=F Damp=F
 DIIS: error= 5.88D-03 at cycle   5 NSaved=   5.
 NSaved= 5 IEnMin= 5 EnMin= -1904.45387538286     IErMin= 5 ErrMin= 5.88D-03
 ErrMax= 5.88D-03 EMaxC= 1.00D-01 BMatC= 5.23D-02 BMatP= 1.07D-01
 IDIUse=3 WtCom= 9.41D-01 WtEn= 5.88D-02
 Coeff-Com:  0.582D-02 0.293D-01 0.357D+00-0.389D-01 0.647D+00
 Coeff-En:   0.000D+00 0.000D+00 0.348D+00 0.000D+00 0.652D+00
 Coeff:      0.548D-02 0.276D-01 0.356D+00-0.366D-01 0.647D+00
 Gap=     0.191 Goal=   None    Shift=    0.000
 RMSDP=3.95D-04 MaxDP=2.50D-02 DE=-5.99D-01 OVMax= 5.84D-02

 Cycle   6  Pass 0  IDiag  1:
 RMSU=  6.25D-05    CP:  9.67D-01  9.02D-01  6.74D-01  3.12D-01  6.49D-01
 E= -1904.50102512732     Delta-E=       -0.047149744458 Rises=F Damp=F
 DIIS: error= 9.69D-04 at cycle   6 NSaved=   6.
 NSaved= 6 IEnMin= 6 EnMin= -1904.50102512732     IErMin= 6 ErrMin= 9.69D-04
 ErrMax= 9.69D-04 EMaxC= 1.00D-01 BMatC= 8.82D-04 BMatP= 5.23D-02
 IDIUse=3 WtCom= 9.90D-01 WtEn= 9.69D-03
 Coeff-Com: -0.315D-02 0.166D-01 0.168D+00-0.570D-01 0.441D+00 0.434D+00
 Coeff-En:   0.000D+00 0.000D+00 0.000D+00 0.000D+00 0.000D+00 0.100D+01
 Coeff:     -0.312D-02 0.165D-01 0.166D+00-0.565D-01 0.437D+00 0.440D+00
 Gap=     0.188 Goal=   None    Shift=    0.000
 RMSDP=5.30D-05 MaxDP=3.63D-03 DE=-4.71D-02 OVMax= 9.26D-03

 Cycle   7  Pass 0  IDiag  1:
 RMSU=  1.76D-05    CP:  9.67D-01  9.04D-01  6.70D-01  3.15D-01  7.45D-01
                    CP:  5.35D-01
 E= -1904.50180939452     Delta-E=       -0.000784267207 Rises=F Damp=F
 DIIS: error= 1.95D-04 at cycle   7 NSaved=   7.
 NSaved= 7 IEnMin= 7 EnMin= -1904.50180939452     IErMin= 7 ErrMin= 1.95D-04
 ErrMax= 1.95D-04 EMaxC= 1.00D-01 BMatC= 5.03D-05 BMatP= 8.82D-04
 IDIUse=3 WtCom= 9.98D-01 WtEn= 1.95D-03
 Coeff-Com: -0.197D-02 0.721D-02 0.675D-01-0.306D-01 0.199D+00 0.242D+00
 Coeff-Com:  0.518D+00
 Coeff-En:   0.000D+00 0.000D+00 0.000D+00 0.000D+00 0.000D+00 0.000D+00
 Coeff-En:   0.100D+01
 Coeff:     -0.196D-02 0.720D-02 0.674D-01-0.305D-01 0.198D+00 0.241D+00
 Coeff:      0.518D+00
 Gap=     0.189 Goal=   None    Shift=    0.000
 RMSDP=1.62D-05 MaxDP=1.38D-03 DE=-7.84D-04 OVMax= 2.44D-03

 Cycle   8  Pass 0  IDiag  1:
 RMSU=  7.58D-06    CP:  9.67D-01  9.03D-01  6.71D-01  3.13D-01  7.54D-01
                    CP:  5.68D-01  5.52D-01
 E= -1904.50185277763     Delta-E=       -0.000043383110 Rises=F Damp=F
 DIIS: error= 6.78D-05 at cycle   8 NSaved=   8.
 NSaved= 8 IEnMin= 8 EnMin= -1904.50185277763     IErMin= 8 ErrMin= 6.78D-05
 ErrMax= 6.78D-05 EMaxC= 1.00D-01 BMatC= 9.01D-06 BMatP= 5.03D-05
 IDIUse=1 WtCom= 1.00D+00 WtEn= 0.00D+00
 Coeff-Com: -0.216D-03 0.108D-03 0.156D-01-0.772D-02 0.455D-01 0.671D-01
 Coeff-Com:  0.327D+00 0.553D+00
 Coeff:     -0.216D-03 0.108D-03 0.156D-01-0.772D-02 0.455D-01 0.671D-01
 Coeff:      0.327D+00 0.553D+00
 Gap=     0.189 Goal=   None    Shift=    0.000
 RMSDP=6.46D-06 MaxDP=3.85D-04 DE=-4.34D-05 OVMax= 9.85D-04

 Initial convergence to 1.0D-05 achieved.  Increase integral accuracy.
 Cycle   9  Pass 1  IDiag  1:
 E= -1904.50195444117     Delta-E=       -0.000101663533 Rises=F Damp=F
 DIIS: error= 2.37D-04 at cycle   1 NSaved=   1.
 NSaved= 1 IEnMin= 1 EnMin= -1904.50195444117     IErMin= 1 ErrMin= 2.37D-04
 ErrMax= 2.37D-04 EMaxC= 1.00D-01 BMatC= 2.11D-05 BMatP= 2.11D-05
 IDIUse=3 WtCom= 9.98D-01 WtEn= 2.37D-03
 Coeff-Com:  0.100D+01
 Coeff-En:   0.100D+01
 Coeff:      0.100D+01
 Gap=     0.189 Goal=   None    Shift=    0.000
 RMSDP=6.46D-06 MaxDP=3.85D-04 DE=-1.02D-04 OVMax= 9.21D-04

 Cycle  10  Pass 1  IDiag  1:
 RMSU=  1.29D-04    CP:  1.00D+00
 E= -1904.50197213154     Delta-E=       -0.000017690377 Rises=F Damp=F
 DIIS: error= 5.16D-05 at cycle   2 NSaved=   2.
 NSaved= 2 IEnMin= 2 EnMin= -1904.50197213154     IErMin= 2 ErrMin= 5.16D-05
 ErrMax= 5.16D-05 EMaxC= 1.00D-01 BMatC= 3.54D-06 BMatP= 2.11D-05
 IDIUse=1 WtCom= 1.00D+00 WtEn= 0.00D+00
 Coeff-Com:  0.184D+00 0.816D+00
 Coeff:      0.184D+00 0.816D+00
 Gap=     0.189 Goal=   None    Shift=    0.000
 RMSDP=8.35D-06 MaxDP=6.66D-04 DE=-1.77D-05 OVMax= 1.67D-03

 Cycle  11  Pass 1  IDiag  1:
 RMSU=  5.79D-06    CP:  1.00D+00  1.01D+00
 E= -1904.50196684653     Delta-E=        0.000005285010 Rises=F Damp=F
 DIIS: error= 9.38D-05 at cycle   3 NSaved=   3.
 NSaved= 3 IEnMin= 2 EnMin= -1904.50197213154     IErMin= 2 ErrMin= 5.16D-05
 ErrMax= 9.38D-05 EMaxC= 1.00D-01 BMatC= 9.08D-06 BMatP= 3.54D-06
 IDIUse=1 WtCom= 1.00D+00 WtEn= 0.00D+00
 Coeff-Com:  0.175D-02 0.616D+00 0.382D+00
 Coeff:      0.175D-02 0.616D+00 0.382D+00
 Gap=     0.189 Goal=   None    Shift=    0.000
 RMSDP=5.27D-06 MaxDP=4.34D-04 DE= 5.29D-06 OVMax= 1.15D-03

 Cycle  12  Pass 1  IDiag  1:
 RMSU=  9.25D-07    CP:  1.00D+00  1.01D+00  3.79D-01
 E= -1904.50197541425     Delta-E=       -0.000008567715 Rises=F Damp=F
 DIIS: error= 1.11D-05 at cycle   4 NSaved=   4.
 NSaved= 4 IEnMin= 4 EnMin= -1904.50197541425     IErMin= 4 ErrMin= 1.11D-05
 ErrMax= 1.11D-05 EMaxC= 1.00D-01 BMatC= 1.77D-07 BMatP= 3.54D-06
 IDIUse=1 WtCom= 1.00D+00 WtEn= 0.00D+00
 Coeff-Com: -0.377D-02 0.372D+00 0.244D+00 0.388D+00
 Coeff:     -0.377D-02 0.372D+00 0.244D+00 0.388D+00
 Gap=     0.189 Goal=   None    Shift=    0.000
 RMSDP=7.77D-07 MaxDP=6.54D-05 DE=-8.57D-06 OVMax= 8.91D-05

 Cycle  13  Pass 1  IDiag  1:
 RMSU=  2.15D-07    CP:  1.00D+00  1.01D+00  3.94D-01  4.62D-01
 E= -1904.50197557794     Delta-E=       -0.000000163696 Rises=F Damp=F
 DIIS: error= 2.15D-06 at cycle   5 NSaved=   5.
 NSaved= 5 IEnMin= 5 EnMin= -1904.50197557794     IErMin= 5 ErrMin= 2.15D-06
 ErrMax= 2.15D-06 EMaxC= 1.00D-01 BMatC= 3.14D-09 BMatP= 1.77D-07
 IDIUse=1 WtCom= 1.00D+00 WtEn= 0.00D+00
 Coeff-Com: -0.227D-02 0.206D+00 0.135D+00 0.229D+00 0.432D+00
 Coeff:     -0.227D-02 0.206D+00 0.135D+00 0.229D+00 0.432D+00
 Gap=     0.189 Goal=   None    Shift=    0.000
 RMSDP=1.14D-07 MaxDP=1.05D-05 DE=-1.64D-07 OVMax= 2.12D-05

 Cycle  14  Pass 1  IDiag  1:
 RMSU=  7.13D-08    CP:  1.00D+00  1.01D+00  3.94D-01  4.62D-01  8.28D-01
 E= -1904.50197558084     Delta-E=       -0.000000002899 Rises=F Damp=F
 DIIS: error= 4.93D-07 at cycle   6 NSaved=   6.
 NSaved= 6 IEnMin= 6 EnMin= -1904.50197558084     IErMin= 6 ErrMin= 4.93D-07
 ErrMax= 4.93D-07 EMaxC= 1.00D-01 BMatC= 1.65D-10 BMatP= 3.14D-09
 IDIUse=1 WtCom= 1.00D+00 WtEn= 0.00D+00
 Coeff-Com: -0.741D-03 0.643D-01 0.424D-01 0.733D-01 0.223D+00 0.597D+00
 Coeff:     -0.741D-03 0.643D-01 0.424D-01 0.733D-01 0.223D+00 0.597D+00
 Gap=     0.189 Goal=   None    Shift=    0.000
 RMSDP=3.21D-08 MaxDP=1.88D-06 DE=-2.90D-09 OVMax= 4.57D-06

 Cycle  15  Pass 1  IDiag  1:
 RMSU=  1.89D-08    CP:  1.00D+00  1.01D+00  3.94D-01  4.67D-01  8.57D-01
                    CP:  8.62D-01
 E= -1904.50197558094     Delta-E=       -0.000000000099 Rises=F Damp=F
 DIIS: error= 1.60D-07 at cycle   7 NSaved=   7.
 NSaved= 7 IEnMin= 7 EnMin= -1904.50197558094     IErMin= 7 ErrMin= 1.60D-07
 ErrMax= 1.60D-07 EMaxC= 1.00D-01 BMatC= 3.53D-11 BMatP= 1.65D-10
 IDIUse=1 WtCom= 1.00D+00 WtEn= 0.00D+00
 Coeff-Com: -0.484D-04 0.258D-02 0.184D-02 0.363D-02 0.614D-01 0.361D+00
 Coeff-Com:  0.569D+00
 Coeff:     -0.484D-04 0.258D-02 0.184D-02 0.363D-02 0.614D-01 0.361D+00
 Coeff:      0.569D+00
 Gap=     0.189 Goal=   None    Shift=    0.000
 RMSDP=1.34D-08 MaxDP=8.82D-07 DE=-9.91D-11 OVMax= 1.27D-06

 Cycle  16  Pass 1  IDiag  1:
 RMSU=  5.76D-09    CP:  1.00D+00  1.01D+00  3.94D-01  4.67D-01  8.63D-01
                    CP:  8.92D-01  6.38D-01
 E= -1904.50197558098     Delta-E=       -0.000000000036 Rises=F Damp=F
 DIIS: error= 7.70D-08 at cycle   8 NSaved=   8.
 NSaved= 8 IEnMin= 8 EnMin= -1904.50197558098     IErMin= 8 ErrMin= 7.70D-08
 ErrMax= 7.70D-08 EMaxC= 1.00D-01 BMatC= 7.03D-12 BMatP= 3.53D-11
 IDIUse=1 WtCom= 1.00D+00 WtEn= 0.00D+00
 Coeff-Com:  0.359D-04-0.421D-02-0.268D-02-0.439D-02 0.211D-01 0.189D+00
 Coeff-Com:  0.384D+00 0.417D+00
 Coeff:      0.359D-04-0.421D-02-0.268D-02-0.439D-02 0.211D-01 0.189D+00
 Coeff:      0.384D+00 0.417D+00
 Gap=     0.189 Goal=   None    Shift=    0.000
 RMSDP=5.13D-09 MaxDP=4.05D-07 DE=-3.64D-11 OVMax= 6.53D-07

 SCF Done:  E(RB3LYP) =  -1904.50197558     A.U. after   16 cycles
             Convg  =    0.5129D-08             -V/T =  2.0048
 KE= 1.895449239189D+03 PE=-1.142987107024D+04 EE= 4.142139008734D+03
 Leave Link  502 at Thu Sep  8 09:51:15 2022, MaxMem=  209715200 cpu:    7125.6
 (Enter /opt/gaussian/l601.exe)
 Copying SCF densities to generalized density rwf, IOpCl= 0 IROHF=0.

 **********************************************************************

            Population analysis using the SCF density.

 **********************************************************************

 Orbital symmetries:
       Occupied  (A) (A) (A) (A) (A) (A) (A) (A) (A) (A) (A) (A)
                 (A) (A) (A) (A) (A) (A) (A) (A) (A) (A) (A) (A)
                 (A) (A) (A) (A) (A) (A) (A) (A) (A) (A) (A) (A)
                 (A) (A) (A) (A) (A) (A) (A) (A) (A) (A) (A) (A)
                 (A) (A) (A) (A) (A) (A) (A) (A) (A) (A) (A) (A)
                 (A) (A) (A) (A) (A) (A) (A) (A) (A) (A) (A) (A)
                 (A) (A) (A) (A) (A) (A) (A) (A) (A) (A) (A) (A)
                 (A) (A) (A) (A) (A) (A) (A) (A) (A) (A) (A) (A)
                 (A) (A) (A) (A) (A) (A) (A) (A) (A) (A) (A) (A)
                 (A) (A) (A) (A) (A) (A) (A) (A) (A) (A) (A) (A)
                 (A) (A) (A)
       Virtual   (A) (A) (A) (A) (A) (A) (A) (A) (A) (A) (A) (A)
                 (A) (A) (A) (A) (A) (A) (A) (A) (A) (A) (A) (A)
                 (A) (A) (A) (A) (A) (A) (A) (A) (A) (A) (A) (A)
                 (A) (A) (A) (A) (A) (A) (A) (A) (A) (A) (A) (A)
                 (A) (A) (A) (A) (A) (A) (A) (A) (A) (A) (A) (A)
                 (A) (A) (A) (A) (A) (A) (A) (A) (A) (A) (A) (A)
                 (A) (A) (A) (A) (A) (A) (A) (A) (A) (A) (A) (A)
                 (A) (A) (A) (A) (A) (A) (A) (A) (A) (A) (A) (A)
                 (A) (A) (A) (A) (A) (A) (A) (A) (A) (A) (A) (A)
                 (A) (A) (A) (A) (A) (A) (A) (A) (A) (A) (A) (A)
                 (A) (A) (A) (A) (A) (A) (A) (A) (A) (A) (A) (A)
                 (A) (A) (A) (A) (A) (A) (A) (A) (A) (A) (A) (A)
                 (A) (A) (A) (A) (A) (A) (A) (A) (A) (A) (A) (A)
                 (A) (A) (A) (A) (A) (A) (A) (A) (A) (A) (A) (A)
                 (A) (A) (A) (A) (A) (A) (A) (A) (A) (A) (A) (A)
                 (A) (A) (A) (A) (A) (A) (A) (A) (A) (A) (A) (A)
                 (A) (A) (A) (A) (A) (A) (A) (A) (A) (A) (A) (A)
                 (A) (A) (A) (A) (A) (A) (A) (A) (A) (A) (A) (A)
                 (A) (A) (A) (A) (A) (A) (A) (A) (A) (A) (A) (A)
                 (A) (A) (A) (A) (A) (A) (A) (A) (A) (A) (A) (A)
                 (A) (A) (A) (A) (A) (A) (A) (A) (A) (A) (A) (A)
                 (A) (A) (A) (A) (A) (A) (A) (A) (A) (A) (A) (A)
                 (A) (A) (A) (A) (A) (A) (A) (A) (A) (A) (A) (A)
                 (A) (A) (A) (A) (A) (A) (A) (A) (A) (A) (A) (A)
                 (A) (A) (A) (A) (A) (A) (A) (A) (A) (A) (A) (A)
                 (A) (A) (A) (A) (A) (A) (A) (A) (A) (A) (A) (A)
                 (A) (A) (A) (A) (A) (A) (A) (A) (A) (A) (A) (A)
                 (A) (A) (A) (A) (A) (A) (A) (A) (A) (A) (A) (A)
                 (A) (A) (A) (A) (A) (A) (A) (A) (A) (A) (A) (A)
                 (A) (A) (A) (A) (A) (A) (A) (A) (A) (A) (A) (A)
                 (A) (A) (A) (A) (A) (A) (A) (A) (A) (A) (A) (A)
                 (A) (A) (A) (A) (A) (A) (A) (A) (A) (A) (A) (A)
                 (A) (A) (A) (A) (A) (A) (A) (A) (A) (A) (A) (A)
                 (A) (A) (A) (A) (A) (A) (A) (A) (A) (A) (A) (A)
                 (A) (A) (A) (A) (A) (A) (A) (A) (A) (A) (A) (A)
                 (A) (A) (A) (A) (A) (A) (A) (A) (A) (A) (A) (A)
                 (A) (A) (A) (A) (A) (A) (A) (A) (A) (A) (A) (A)
                 (A) (A) (A) (A) (A) (A) (A) (A) (A) (A) (A) (A)
                 (A) (A) (A) (A) (A) (A)
 The electronic state is 1-A.
 Alpha  occ. eigenvalues -- -101.55091 -19.15986 -19.11514 -14.40854 -14.40452
 Alpha  occ. eigenvalues --  -14.38439 -14.37532 -14.34766 -14.34169 -10.29681
 Alpha  occ. eigenvalues --  -10.26541 -10.25097 -10.24900 -10.24820 -10.23131
 Alpha  occ. eigenvalues --  -10.22826 -10.22723 -10.22590 -10.22414 -10.21591
 Alpha  occ. eigenvalues --  -10.21413 -10.21382 -10.21102 -10.20867 -10.20545
 Alpha  occ. eigenvalues --  -10.20302 -10.19833 -10.19587 -10.19217 -10.19157
 Alpha  occ. eigenvalues --  -10.19076 -10.19068 -10.19044 -10.18649  -9.46828
 Alpha  occ. eigenvalues --   -7.23098  -7.22118  -7.22087  -1.09830  -1.05812
 Alpha  occ. eigenvalues --   -1.05641  -1.04495  -0.96038  -0.92530  -0.90555
 Alpha  occ. eigenvalues --   -0.87137  -0.86701  -0.84978  -0.83236  -0.81007
 Alpha  occ. eigenvalues --   -0.79511  -0.78061  -0.76971  -0.76271  -0.76120
 Alpha  occ. eigenvalues --   -0.75444  -0.74081  -0.71851  -0.69814  -0.65818
 Alpha  occ. eigenvalues --   -0.64753  -0.63730  -0.62755  -0.62369  -0.61625
 Alpha  occ. eigenvalues --   -0.60885  -0.60452  -0.58244  -0.56761  -0.55686
 Alpha  occ. eigenvalues --   -0.54545  -0.53085  -0.52627  -0.52426  -0.52244
 Alpha  occ. eigenvalues --   -0.50494  -0.49823  -0.48610  -0.47272  -0.47001
 Alpha  occ. eigenvalues --   -0.46759  -0.46632  -0.46191  -0.45776  -0.45590
 Alpha  occ. eigenvalues --   -0.45198  -0.44872  -0.44550  -0.44355  -0.44246
 Alpha  occ. eigenvalues --   -0.43738  -0.43563  -0.43225  -0.41338  -0.41134
 Alpha  occ. eigenvalues --   -0.40386  -0.39357  -0.38941  -0.38384  -0.37708
 Alpha  occ. eigenvalues --   -0.37574  -0.37433  -0.36487  -0.36427  -0.35579
 Alpha  occ. eigenvalues --   -0.34503  -0.34059  -0.32991  -0.32088  -0.30880
 Alpha  occ. eigenvalues --   -0.29902  -0.29338  -0.28790  -0.28079  -0.26869
 Alpha  occ. eigenvalues --   -0.26654  -0.26503  -0.26155  -0.25778  -0.24813
 Alpha  occ. eigenvalues --   -0.24496  -0.23226  -0.22439
 Alpha virt. eigenvalues --   -0.03550  -0.03460  -0.03418  -0.02742  -0.01182
 Alpha virt. eigenvalues --    0.00502   0.00950   0.01431   0.01595   0.04095
 Alpha virt. eigenvalues --    0.04652   0.05277   0.06103   0.06616   0.07129
 Alpha virt. eigenvalues --    0.07495   0.07706   0.08058   0.08475   0.09517
 Alpha virt. eigenvalues --    0.10087   0.10894   0.11329   0.11828   0.12164
 Alpha virt. eigenvalues --    0.12460   0.12970   0.13722   0.14024   0.14509
 Alpha virt. eigenvalues --    0.15068   0.15221   0.15658   0.16715   0.17217
 Alpha virt. eigenvalues --    0.17302   0.18542   0.19148   0.20438   0.21215
 Alpha virt. eigenvalues --    0.21478   0.22052   0.22741   0.23235   0.24579
 Alpha virt. eigenvalues --    0.25174   0.25554   0.25872   0.26516   0.26979
 Alpha virt. eigenvalues --    0.28207   0.28645   0.28908   0.30046   0.30159
 Alpha virt. eigenvalues --    0.30871   0.31761   0.32463   0.33590   0.34727
 Alpha virt. eigenvalues --    0.35436   0.35840   0.36779   0.37613   0.37903
 Alpha virt. eigenvalues --    0.38820   0.40343   0.40679   0.41622   0.41943
 Alpha virt. eigenvalues --    0.42700   0.43650   0.43997   0.44481   0.44872
 Alpha virt. eigenvalues --    0.45477   0.45680   0.46053   0.46091   0.46552
 Alpha virt. eigenvalues --    0.46737   0.47029   0.47323   0.47775   0.48021
 Alpha virt. eigenvalues --    0.48334   0.48767   0.48931   0.49442   0.49797
 Alpha virt. eigenvalues --    0.50124   0.50323   0.50663   0.51199   0.51400
 Alpha virt. eigenvalues --    0.51945   0.52129   0.52469   0.52653   0.53035
 Alpha virt. eigenvalues --    0.53334   0.53909   0.54198   0.54527   0.54872
 Alpha virt. eigenvalues --    0.55356   0.55668   0.55700   0.56155   0.56328
 Alpha virt. eigenvalues --    0.56765   0.57353   0.57457   0.57752   0.58599
 Alpha virt. eigenvalues --    0.59250   0.59429   0.60181   0.60758   0.60947
 Alpha virt. eigenvalues --    0.61482   0.61889   0.62354   0.62735   0.62926
 Alpha virt. eigenvalues --    0.63369   0.64241   0.64582   0.65179   0.65527
 Alpha virt. eigenvalues --    0.65568   0.65770   0.65970   0.66480   0.66773
 Alpha virt. eigenvalues --    0.67048   0.68185   0.68533   0.68638   0.69255
 Alpha virt. eigenvalues --    0.69781   0.70473   0.70902   0.71093   0.71678
 Alpha virt. eigenvalues --    0.72081   0.72574   0.72818   0.72902   0.73625
 Alpha virt. eigenvalues --    0.74005   0.74646   0.75157   0.75689   0.76062
 Alpha virt. eigenvalues --    0.76508   0.77170   0.77509   0.78812   0.79305
 Alpha virt. eigenvalues --    0.79886   0.80481   0.81212   0.81788   0.82791
 Alpha virt. eigenvalues --    0.83603   0.84103   0.84463   0.85555   0.85771
 Alpha virt. eigenvalues --    0.86851   0.87781   0.87949   0.88498   0.88742
 Alpha virt. eigenvalues --    0.89172   0.89548   0.89897   0.90359   0.90862
 Alpha virt. eigenvalues --    0.91064   0.91898   0.92610   0.93163   0.93186
 Alpha virt. eigenvalues --    0.93705   0.94058   0.94535   0.95625   0.96752
 Alpha virt. eigenvalues --    0.97154   0.98176   0.98718   0.99042   0.99578
 Alpha virt. eigenvalues --    1.00203   1.00309   1.00820   1.01353   1.01754
 Alpha virt. eigenvalues --    1.01877   1.02598   1.02689   1.03392   1.03994
 Alpha virt. eigenvalues --    1.04433   1.04648   1.05671   1.05833   1.06865
 Alpha virt. eigenvalues --    1.07189   1.07893   1.08623   1.08799   1.09678
 Alpha virt. eigenvalues --    1.10772   1.11772   1.12239   1.12839   1.13112
 Alpha virt. eigenvalues --    1.13757   1.14830   1.16275   1.16698   1.18197
 Alpha virt. eigenvalues --    1.18822   1.19343   1.19817   1.21677   1.22716
 Alpha virt. eigenvalues --    1.23241   1.23965   1.24657   1.24825   1.25297
 Alpha virt. eigenvalues --    1.25666   1.26596   1.27601   1.29232   1.29459
 Alpha virt. eigenvalues --    1.31341   1.31913   1.33006   1.33833   1.34923
 Alpha virt. eigenvalues --    1.35248   1.37040   1.37188   1.37739   1.38189
 Alpha virt. eigenvalues --    1.40392   1.41062   1.41730   1.43010   1.43803
 Alpha virt. eigenvalues --    1.44714   1.44914   1.46020   1.46646   1.47281
 Alpha virt. eigenvalues --    1.47681   1.48451   1.49143   1.49230   1.50235
 Alpha virt. eigenvalues --    1.51289   1.51463   1.51540   1.52161   1.52361
 Alpha virt. eigenvalues --    1.53511   1.54074   1.54792   1.56063   1.56564
 Alpha virt. eigenvalues --    1.57374   1.58024   1.58632   1.59149   1.59868
 Alpha virt. eigenvalues --    1.60465   1.60550   1.60934   1.61224   1.62019
 Alpha virt. eigenvalues --    1.62559   1.62649   1.63331   1.63856   1.64010
 Alpha virt. eigenvalues --    1.64403   1.65099   1.65620   1.65820   1.66094
 Alpha virt. eigenvalues --    1.66220   1.66351   1.67284   1.67568   1.68019
 Alpha virt. eigenvalues --    1.68353   1.69463   1.69834   1.70294   1.70981
 Alpha virt. eigenvalues --    1.71352   1.71877   1.72306   1.72706   1.73796
 Alpha virt. eigenvalues --    1.74292   1.74809   1.75192   1.75622   1.75756
 Alpha virt. eigenvalues --    1.76175   1.77080   1.77268   1.77836   1.78283
 Alpha virt. eigenvalues --    1.78455   1.78670   1.79641   1.80663   1.80859
 Alpha virt. eigenvalues --    1.81148   1.81243   1.82717   1.83220   1.83610
 Alpha virt. eigenvalues --    1.84007   1.84558   1.85583   1.85776   1.86634
 Alpha virt. eigenvalues --    1.86742   1.87253   1.87568   1.88276   1.88516
 Alpha virt. eigenvalues --    1.89258   1.89609   1.89833   1.90612   1.91046
 Alpha virt. eigenvalues --    1.92055   1.92603   1.93518   1.94578   1.94602
 Alpha virt. eigenvalues --    1.95230   1.97079   1.98019   1.98738   1.99216
 Alpha virt. eigenvalues --    2.00100   2.00902   2.01212   2.02774   2.03047
 Alpha virt. eigenvalues --    2.03589   2.04064   2.04595   2.05563   2.06119
 Alpha virt. eigenvalues --    2.06691   2.07556   2.09193   2.10307   2.11304
 Alpha virt. eigenvalues --    2.11641   2.12963   2.14131   2.14597   2.15986
 Alpha virt. eigenvalues --    2.16687   2.17740   2.18411   2.19102   2.19768
 Alpha virt. eigenvalues --    2.20222   2.21836   2.22881   2.25345   2.26045
 Alpha virt. eigenvalues --    2.26611   2.28452   2.29307   2.30241   2.31004
 Alpha virt. eigenvalues --    2.32759   2.34344   2.36039   2.36450   2.36988
 Alpha virt. eigenvalues --    2.38761   2.39923   2.40964   2.41729   2.42397
 Alpha virt. eigenvalues --    2.43323   2.43510   2.43935   2.44261   2.45112
 Alpha virt. eigenvalues --    2.45904   2.47512   2.48469   2.48945   2.49898
 Alpha virt. eigenvalues --    2.50387   2.51415   2.52013   2.52692   2.53455
 Alpha virt. eigenvalues --    2.54642   2.55560   2.57481   2.58687   2.59492
 Alpha virt. eigenvalues --    2.60841   2.61876   2.64744   2.65783   2.66660
 Alpha virt. eigenvalues --    2.69159   2.69777   2.70637   2.72010   2.73207
 Alpha virt. eigenvalues --    2.74698   2.75806   2.78329   2.78630   2.79081
 Alpha virt. eigenvalues --    2.79482   2.81094   2.82263   2.83647   2.84813
 Alpha virt. eigenvalues --    2.86332   2.89103   2.92610   2.94743   2.96242
 Alpha virt. eigenvalues --    2.97804   2.98897   2.99629   3.00899   3.08398
 Alpha virt. eigenvalues --    3.11179   3.13291   3.14727   3.17262   3.29114
 Alpha virt. eigenvalues --    3.35037   3.37028   3.42417   3.44864   3.50488
 Alpha virt. eigenvalues --    3.60816   3.63947
          Condensed to atoms (all electrons):
 Mulliken atomic charges:
              1
     1  C    0.140539
     2  O   -0.328081
     3  C    0.126997
     4  C    0.038880
     5  C    0.058618
     6  C    0.026513
     7  C    0.074683
     8  C    0.061312
     9  N   -0.274808
    10  C    0.202602
    11  C   -0.115557
    12  C    0.036309
    13  C    0.059433
    14  C    0.142512
    15  C   -0.156749
    16  C    0.150932
    17  Cl  -0.101376
    18  C    0.118809
    19  O   -0.252081
    20  C    0.156591
    21  N   -0.228865
    22  N   -0.057241
    23  N   -0.182315
    24  C   -0.002865
    25  C    0.063053
    26  C    0.049596
    27  C    0.051267
    28  C    0.042094
    29  C    0.210752
    30  C   -0.081297
    31  C    0.110233
    32  N   -0.166436
    33  N    0.015987
    34  C    0.111760
    35  H    0.037686
    36  H    0.042764
    37  H    0.019892
    38  H   -0.049254
    39  H   -0.059626
    40  H   -0.053133
    41  H    0.037337
    42  H    0.046538
    43  H   -0.050387
    44  H   -0.023236
    45  H   -0.026638
    46  H   -0.018346
    47  H    0.051961
    48  H    0.043937
    49  H   -0.034933
    50  H   -0.038950
    51  H   -0.035912
    52  H   -0.037964
    53  H   -0.026668
    54  H   -0.015107
    55  H    0.088236
 Sum of Mulliken atomic charges =   0.00000
 Mulliken charges with hydrogens summed into heavy atoms:
              1
     1  C    0.240881
     2  O   -0.328081
     3  C    0.126997
     4  C   -0.010374
     5  C    0.058618
     6  C   -0.033112
     7  C    0.021550
     8  C    0.061312
     9  N   -0.274808
    10  C    0.286477
    11  C   -0.115557
    12  C   -0.014078
    13  C    0.036197
    14  C    0.115874
    15  C   -0.156749
    16  C    0.132586
    17  Cl  -0.101376
    18  C    0.118809
    19  O   -0.252081
    20  C    0.252489
    21  N   -0.228865
    22  N   -0.057241
    23  N   -0.182315
    24  C   -0.002865
    25  C    0.028120
    26  C    0.010646
    27  C    0.015355
    28  C    0.004130
    29  C    0.210752
    30  C   -0.081297
    31  C    0.083566
    32  N   -0.166436
    33  N    0.104223
    34  C    0.096653
 Sum of Mulliken charges with hydrogens summed into heavy atoms =   0.00000
 Electronic spatial extent (au):  <R**2>=          19660.5117
 Charge=              0.0000 electrons
 Dipole moment (field-independent basis, Debye):
    X=             -2.5651    Y=              6.1353    Z=             -1.2462  Tot=              6.7657
 Quadrupole moment (field-independent basis, Debye-Ang):
   XX=           -187.0874   YY=           -201.7389   ZZ=           -196.5446
   XY=             -3.1689   XZ=              1.0162   YZ=             -9.2263
 Traceless Quadrupole moment (field-independent basis, Debye-Ang):
   XX=              8.0362   YY=             -6.6153   ZZ=             -1.4210
   XY=             -3.1689   XZ=              1.0162   YZ=             -9.2263
 Octapole moment (field-independent basis, Debye-Ang**2):
  XXX=           -169.4654  YYY=             40.4913  ZZZ=             -6.3171  XYY=            -22.0320
  XXY=            160.1842  XXZ=             87.1978  XZZ=             11.4719  YZZ=             23.4059
  YYZ=            -19.6965  XYZ=            -92.7079
 Hexadecapole moment (field-independent basis, Debye-Ang**3):
 XXXX=         -15279.7885 YYYY=          -7393.8880 ZZZZ=          -2358.7123 XXXY=          -1222.7636
 XXXZ=           -212.8995 YYYX=            343.2082 YYYZ=           -176.2100 ZZZX=             48.6400
 ZZZY=             -6.4201 XXYY=          -4015.8526 XXZZ=          -3088.4514 YYZZ=          -1646.8206
 XXYZ=             51.9558 YYXZ=             87.9309 ZZXY=              2.4893
 N-N= 3.487780846740D+03 E-N=-1.142987109909D+04  KE= 1.895449239189D+03
 No NMR shielding tensors so no spin-rotation constants.
 Leave Link  601 at Thu Sep  8 09:51:15 2022, MaxMem=  209715200 cpu:       4.6
 (Enter /opt/gaussian/l701.exe)
 Compute integral first derivatives.
 ... and contract with generalized density number  0.
 Leave Link  701 at Thu Sep  8 09:51:16 2022, MaxMem=  209715200 cpu:       3.8
 (Enter /opt/gaussian/l702.exe)
 L702 exits ... SP integral derivatives will be done elsewhere.
 Leave Link  702 at Thu Sep  8 09:51:16 2022, MaxMem=  209715200 cpu:       0.2
 (Enter /opt/gaussian/l703.exe)
 Compute integral first derivatives, UseDBF=F ICtDFT=           0.
 Integral derivatives from FoFDir, PRISM(SPDF).
 Calling FoFJK, ICntrl=      2127 FMM=F ISym2X=0 I1Cent= 0 IOpClX= 0 NMat=1 NMatS=1 NMatT=0.
 FoFCou: FMM=F IPFlag=           0 FMFlag=      100000 FMFlg1=         800
         NFxFlg=           0 DoJE=F BraDBF=F KetDBF=F FulRan=T
         Omega=  0.000000  0.000000  1.000000  0.000000  0.000000 ICntrl=    2127 IOpCl=  0
         NMat0=    1 NMatS0=    1 NMatT0=    0 NMatD0=    1 NMtDS0=    0 NMtDT0=    0
         I1Cent=           0 NGrid=           0.
 Symmetry not used in FoFCou.
 Leave Link  703 at Thu Sep  8 09:56:13 2022, MaxMem=  209715200 cpu:    2371.5
 (Enter /opt/gaussian/l716.exe)
 Dipole        =-1.00920287D+00 2.41380878D+00-4.90273488D-01
 ***** Axes restored to original set *****
 -------------------------------------------------------------------
 Center     Atomic                   Forces (Hartrees/Bohr)
 Number     Number              X              Y              Z
 -------------------------------------------------------------------
      1        6           0.006451497    0.023923112   -0.002088000
      2        8          -0.004700920    0.001740298    0.003090801
      3        6          -0.005375045   -0.020620773    0.011095876
      4        6          -0.000354204    0.002188842   -0.003784742
      5        6           0.009843087   -0.000685427   -0.002036199
      6        6          -0.002889385   -0.000331260    0.002268474
      7        6           0.003779832   -0.000507019    0.000353383
      8        6          -0.008810994    0.002437283    0.001154906
      9        7           0.002079802    0.008204954    0.002876807
     10        6          -0.005966791   -0.000643827   -0.013387547
     11        6           0.003499478   -0.004517757    0.004194335
     12        6          -0.000191430   -0.000003643   -0.002281972
     13        6           0.001617859   -0.002809524   -0.003490272
     14        6          -0.000439140    0.001221825    0.003078581
     15        6          -0.004546751    0.003208917   -0.027509160
     16        6           0.000717019   -0.000488677    0.001585256
     17       17           0.003111277   -0.002475439    0.016467822
     18        6           0.003584521   -0.011613622   -0.010868046
     19        8          -0.000362913    0.000528135    0.001652644
     20        6           0.000520668   -0.003204860   -0.005081672
     21        7          -0.000333445    0.000459628    0.000106646
     22        7           0.011059242    0.008763274    0.011746542
     23        7          -0.012939357   -0.017952709   -0.006482886
     24        6           0.001078615   -0.011131714    0.011914589
[...]
 640,0.00001076,-0.00000881,0.00000020,0.00001138,-0.00000360,0.0000056
 3,0.00001224,-0.00000303,0.00000068,0.00001853,0.00000415,-0.00000984,
 -0.00002471,-0.00001447,0.00003306,-0.00002499,0.00001401,0.00003705,0
 .00000174,0.00003441,0.00003545,0.00000391,-0.00000580,-0.00000309,-0.
 00000542,0.00000623,0.00000150,-0.00000300,0.00000227,0.00000037,-0.00
 001740,-0.00002655,0.00001069,-0.00002943,-0.00017920,0.00001489,0.000
 10844,-0.00043983,-0.00016965,0.00013523,0.00001711,0.00011898,-0.0006
 6064,-0.00079838,0.00030937,0.00053823,0.00013621,0.00094330,-0.059253
 09,-0.06483950,0.08177459,-0.00001934,0.00010364,0.00003700,0.00006025
 ,-0.00000813,-0.00003970,-0.00035293,-0.00013242,0.00011046,-0.0001208
 7,0.00001031,0.00005232,0.00107771,-0.00073191,-0.00049833,-0.00037923
 ,0.00001759,-0.00010003,0.00015868,-0.00005934,-0.00011296,-0.00001535
 ,-0.00012415,0.00015674,0.00005845,0.00002640,0.00003993,-0.00000973,0
 .00003109,0.00002303,-0.00000639,0.00000783,-0.00000333,0.00000205,-0.
 00000802,0.00000236,-0.00000098,0.00000154,-0.00000043,0.00000121,-0.0
 0000562,0.00000250,0.00000267,0.00001352,-0.00001587,0.00000098,-0.000
 00885,0.00000738,-0.00000163,-0.00000890,0.00000870,-0.00003343,-0.000
 00117,-0.00000250,0.00003746,-0.00001076,-0.00000626,-0.00000628,-0.00
 000514,-0.00000189,0.00001395,0.00000752,-0.00000618,-0.00000408,-0.00
 001215,0.00001413,0.00000903,0.00000913,0.00000383,0.00000061,0.000001
 82,-0.00000339,-0.00000093,-0.00000191,0.00000038,0.00000098,-0.000000
 18,-0.00000034,0.00000018,-0.00000211,-0.00000209,0.00000118,-0.000001
 23,0.00000322,-0.00000657,-0.00000077,-0.00001174,0.00870956,0.0111647
 9,-0.01130718,-0.05940775,-0.02512683,0.03025611,-0.00187437,-0.024241
 32,0.01565567,-0.00484403,-0.00136441,0.00622444,-0.00395402,0.0041780
 9,-0.00000450,0.00002104,-0.00002351,-0.00001929,-0.00001988,-0.000049
 47,0.00000611,-0.00000560,-0.00000144,0.00000689,-0.00049020,0.0006253
 0,0.00070070,0.00004959,-0.00002820,0.00005116,0.00000274,0.00001926,0
 .00001324,-0.00000064,-0.00000089,-0.00000360,0.00000072,0.00000612,0.
 00000261,-0.00000094,0.00000153,0.00000127,0.00000159,-0.00000108,-0.0
 0000051,0.00000096,-0.00000071,0.00000015,-0.00000188,0.00000740,-0.00
 000291,0.00000062,0.00000206,-0.00000037,0.00000411,0.00000205,0.00000
 072,-0.00000003,0.00000097,-0.00000036,0.00000030,0.00000117,0.0000010
 8,-0.00000098,0.00000028,0.00000064,-0.00000242,0.00000252,-0.00000244
 ,0.05935164,0.00009575,0.00002126,0.00005606,-0.00001999,-0.00000167,-
 0.00001679,-0.00009054,0.00027556,-0.00047284,0.00037840,-0.00015281,0
 .00062084,-0.00102281,-0.00051567,-0.00029382,0.00015010,0.00003423,-0
 .00012974,0.00002281,0.00005788,-0.00004661,0.00001973,-0.00012334,0.0
 0007010,-0.00011190,0.00005199,-0.00003769,0.00000789,-0.00001741,-0.0
 0001246,0.00000572,-0.00000844,0.00000247,-0.00000274,0.00000665,-0.00
 000297,0.00000069,-0.00000203,-0.00000046,-0.00000086,0.00000534,-0.00
 000364,-0.00000311,-0.00001510,0.00001788,-0.00000383,0.00000878,-0.00
 000510,0.00000200,0.00000941,-0.00001119,0.00006640,0.00005304,0.00005
 580,-0.00002036,-0.00002566,-0.00003780,0.00000975,0.00000775,0.000005
 72,-0.00001300,-0.00000901,0.00000445,0.00000371,0.00000909,-0.0000164
 4,-0.00000752,-0.00000971,-0.00000354,-0.00000156,-0.00000198,0.000002
 68,0.00000137,0.00000118,0.00000067,-0.00000031,-0.00000099,-0.0000016
 2,0.00000040,0.00000056,0.00000143,-0.00000024,0.00000018,-0.00000342,
 0.00000677,0.00000255,0.00001435,-0.00809329,-0.00556441,0.00830305,-0
 .03044561,-0.22152538,0.15395055,-0.00223059,-0.00114387,-0.00364931,0
 .00184938,0.00363717,0.00160316,0.00297633,-0.00111611,0.00255356,-0.0
 0003577,-0.00000002,0.00000438,0.00001168,0.00002948,0.00000265,-0.000
 00196,-0.00004633,-0.00004509,0.00037521,0.00015993,-0.00073202,-0.000
 06378,0.00003851,-0.00008454,0.00001635,-0.00001227,-0.00001372,0.0000
 0354,0.00000011,0.00000084,0.00000051,-0.00000789,0.00000184,0.0000021
 7,-0.00000037,-0.00000073,-0.00000056,0.00000109,0.00000056,-0.0000003
 7,0.00000078,0.00000032,0.00000231,-0.00000477,0.00000301,0.00000088,-
 0.00000053,-0.00000086,-0.00000308,-0.00000271,0.00000002,-0.00000067,
 -0.00000038,0.00000035,-0.00000109,-0.00000063,-0.00000093,-0.00000036
 ,0.00000041,-0.00000136,0.00000133,-0.00000075,0.00000321,0.03617789,0
 .22480874,0.00006617,-0.00001995,0.00006851,-0.00000682,0.00002366,-0.
 00010369,-0.00036216,-0.00001838,0.00004795,0.00017867,-0.00032591,-0.
 00021574,0.00048200,-0.00077698,-0.00124755,-0.00043190,0.00020854,-0.
 00000937,0.00018269,-0.00000480,-0.00017310,0.00003808,-0.00010187,0.0
 0015108,-0.00003452,0.00001325,0.00001637,-0.00000942,0.00000825,-0.00
 000212,-0.00000019,-0.00000256,0.00000364,-0.00000174,0.00000236,-0.00
 000117,-0.00000054,-0.00000044,-0.00000035,-0.00000050,0.00000047,-0.0
 0000015,-0.00000036,-0.00000227,0.00000163,-0.00000084,0.00000055,-0.0
 0000142,-0.00000069,0.00000113,-0.00000131,0.00004833,0.00005275,0.000
 07127,0.00000073,-0.00004176,-0.00004701,0.00000598,0.00001167,-0.0000
 0044,-0.00000650,-0.00000653,0.00000126,0.00000304,0.00000359,-0.00001
 032,-0.00000368,-0.00000650,-0.00000190,-0.00000150,-0.00000102,0.0000
 0160,0.00000086,-0.00000028,0.00000075,0.00000032,-0.00000174,-0.00000
 173,0.00000100,-0.00000082,-0.00000010,0.00000155,-0.00000030,-0.00000
 230,0.00000299,0.00000228,0.00000939,0.00216473,0.00123418,-0.00049008
 ,0.03382442,0.15041874,-0.15499976,0.00005904,0.00613271,-0.01203206,0
 .00393778,0.00255512,0.00352601,0.00070510,0.00218947,0.00191838,-0.00
 001488,0.00000029,0.00000007,0.00002095,0.00001486,0.00001196,-0.00000
 498,-0.00003202,-0.00003341,0.00075131,-0.00020697,0.00015921,0.000001
 84,0.00000831,0.00001317,-0.00000915,0.00000559,-0.00000134,-0.0000006
 1,0.00000040,0.00000104,-0.00000180,-0.00000183,-0.00000154,0.00000117
 ,0.00000021,0.00000054,-0.00000002,0.00000053,0.00000052,0.00000039,0.
 00000047,0.00000021,0.00000129,0.00000052,0.00000071,0.00000172,0.0000
 0078,-0.00000156,-0.00000199,-0.00000158,0.00000113,-0.00000100,0.0000
 0023,0.00000025,-0.00000129,0.00000016,-0.00000043,-0.00000112,0.00000
 110,-0.00000098,-0.00000029,0.00000124,0.00000187,-0.04214355,-0.16320
 943,0.16186004,0.00006749,-0.00005896,0.00005920,0.00002381,0.00009092
 ,-0.00021109,-0.00005351,-0.00001216,0.00012329,0.00003822,0.00010309,
 0.00001081,0.00032710,-0.00016090,-0.00110305,-0.00025679,-0.00009778,
 0.00042466,-0.00007113,0.00016842,-0.00020066,-0.00005720,0.00002679,-
 0.00001020,0.00005098,0.00001303,-0.00004323,0.00000373,0.00002205,0.0
 0002106,-0.00000049,0.00000027,-0.00000480,0.00000199,-0.00000531,0.00
 000021,0.00000043,-0.00000005,-0.00000116,0.00000162,-0.00000187,-0.00
 000170,-0.00000005,0.00000479,-0.00000374,-0.00000691,-0.00000095,0.00
 001075,0.00000284,-0.00000377,-0.00000152,-0.00005248,-0.00002413,-0.0
 0001120,0.00003088,0.00001683,-0.00000323,-0.00000668,-0.00001630,-0.0
 0000052,0.00001348,0.00000966,-0.00000724,-0.00000929,-0.00001425,0.00
 001444,0.00001126,0.00001341,0.00000497,0.00000095,0.00000135,-0.00000
 478,0.,-0.00000040,0.00000158,0.00000105,0.00000090,-0.00000169,-0.000
 00074,-0.00000226,-0.00000190,-0.00000154,-0.00000317,0.00000519,-0.00
 000429,0.00000050,-0.00001155,0.01129977,-0.01187102,0.00447753,-0.002
 80179,-0.00182626,0.00452420,-0.00445763,0.00277664,0.00232280,-0.0008
 8363,0.02515575,-0.02003294,-0.06596839,0.05114420,-0.01998578,-0.0000
 0218,0.00000492,-0.00000742,-0.00000828,0.00001184,0.00000209,-0.00001
 583,-0.00000039,-0.00000579,0.00002535,0.00001806,-0.00008670,-0.00109
 811,-0.00015261,-0.00009353,-0.00003487,-0.00001430,0.00001607,0.00000
 499,-0.00000232,-0.00000756,-0.00000085,0.00000172,0.00000494,0.000000
 15,0.00000159,-0.00000045,0.00000210,-0.00000078,-0.00000127,0.0000009
 8,-0.00000085,0.00000038,-0.00000393,0.00000368,0.00000161,0.00000065,
 0.00000060,0.00000012,0.00000317,0.00000290,-0.00000001,0.00000058,0.0
 0000092,-0.00000046,0.00000072,0.00000112,0.00000114,-0.00000139,-0.00
 000047,-0.00000008,-0.00000227,0.00000191,-0.00000165,0.00113653,-0.00
 052187,0.00031652,0.06252384,0.00005257,-0.00003313,0.00004102,0.00000
 844,0.00005802,-0.00013034,-0.00011815,0.00005470,0.00009496,0.0000175
 5,0.00002146,-0.00011252,-0.00016341,-0.00085629,-0.00088963,-0.000036
 26,-0.00014619,0.00068089,0.00003865,0.00009920,-0.00044191,-0.0000053
 5,-0.00010957,0.00007551,0.00005589,0.00002882,-0.00003161,-0.00000119
 ,0.00002566,0.00002489,-0.00000326,0.00000258,-0.00000595,0.00000005,-
 0.00000546,0.00000200,-0.00000038,0.00000088,-0.00000105,0.00000058,-0
 .00000536,0.00000288,0.00000263,0.00001264,-0.00001686,-0.00000239,-0.
 00000741,0.00000502,-0.00000362,-0.00000860,0.00000849,-0.00001376,0.0
 0001075,0.00001093,0.00001974,-0.00000451,-0.00002498,0.00000025,-0.00
 000499,0.00000243,0.00000473,0.00000125,-0.00000437,-0.00000442,-0.000
 00715,0.00000162,0.00000449,0.00000513,0.00000199,-0.00000025,0.000000
 05,-0.00000223,0.00000069,0.00000011,0.00000177,0.00000088,-0.00000002
 ,-0.00000244,-0.00000009,-0.00000226,-0.00000020,-0.00000012,-0.000002
 55,0.00000184,-0.00000054,0.00000175,-0.00000078,0.00592028,-0.0027410
 9,0.00041567,0.00073854,0.00014163,0.00276336,0.00166425,0.00236892,0.
 00235275,-0.00272643,-0.00733361,0.00377322,0.05838570,-0.25339532,0.1
 4398749,-0.00000282,0.00000347,-0.00000407,-0.00000468,0.00000761,0.00
 000358,-0.00001099,-0.00000433,-0.00000680,0.00001811,0.00000709,-0.00
 007380,-0.00014436,0.00047268,-0.00035102,-0.00001214,0.00001160,0.000
 02321,0.00000246,-0.00000347,-0.00000540,-0.00000102,0.00000019,0.0000
 0013,0.00000019,0.00000086,0.00000119,0.00000108,-0.00000052,0.0000003
 6,0.00000152,-0.00000001,0.00000008,0.00000166,0.00000957,0.00000098,0
 .00000173,0.00000177,-0.00000136,0.00000315,0.00000115,0.00000106,0.00
 000007,0.00000062,-0.00000015,-0.00000036,0.00000055,0.00000044,-0.000
 00173,0.00000042,-0.00000103,-0.00000184,0.00000238,0.00000055,0.00047
 550,0.00014568,0.00039978,-0.06411209,0.26178843,-0.00002026,0.0000471
 0,-0.00001367,0.00001988,-0.00006812,0.00009527,-0.00031986,0.00021159
 ,-0.00014634,0.00045822,0.00000494,-0.00037585,-0.00177835,-0.00093161
 ,-0.00075028,-0.00032535,-0.00028348,-0.00000714,0.00028989,-0.0002050
 8,-0.00025788,0.00007608,-0.00020572,0.00026611,-0.00000570,0.00002735
 ,0.00003431,-0.00001100,0.00000689,0.00000403,-0.00000113,-0.00000443,
 0.00000382,-0.00000302,0.00000464,-0.00000278,-0.00000056,-0.00000117,
 -0.00000007,-0.00000059,0.00000149,-0.00000140,-0.00000121,-0.00000969
 ,0.00000771,-0.00000031,-0.00000009,-0.00000920,-0.00000340,0.00000353
 ,-0.00000381,0.00006671,0.00005798,0.00005474,-0.00001636,-0.00003486,
 -0.00004637,0.00000920,0.00001365,0.00000318,-0.00001214,-0.00001057,0
 .00000229,0.00000474,0.00000743,-0.00001799,-0.00000734,-0.00001016,-0
 .00000351,-0.00000217,-0.00000198,0.00000229,0.00000149,0.00000102,0.0
 0000107,-0.00000026,-0.00000153,-0.00000262,0.00000075,-0.00000028,0.0
 0000231,0.00000009,-0.00000072,-0.00000384,0.00000681,0.00000346,0.000
 01659,-0.00786747,0.00844718,-0.00169892,0.00281113,0.00392994,0.00006
 294,0.00314140,0.00154397,0.00407338,0.00008729,-0.00737816,0.00160320
 ,-0.02513854,0.14607097,-0.12205453,0.00000156,-0.00000458,0.00000307,
 0.00000072,-0.00001505,0.00000096,0.00000259,-0.00000248,0.00000248,-0
 .00000710,-0.00000294,0.00004075,0.00000511,0.00028592,0.00051568,0.00
 000439,-0.00000071,-0.00000346,-0.00000591,0.00000061,0.00000323,-0.00
 000172,0.00000045,-0.00000752,0.00000143,0.,0.00000123,-0.00000026,0.0
 0000114,0.00000115,0.00000079,0.00000114,0.00000085,0.00000678,0.00000
 272,0.00000563,0.00000174,0.00000172,-0.00000229,-0.00000183,-0.000002
 17,0.00000205,-0.00000075,-0.00000013,0.00000018,-0.00000136,-0.000000
 48,-0.00000065,-0.00000131,0.00000062,-0.00000192,0.00000064,0.0000005
 6,0.00000423,-0.00046209,0.00082276,0.00045444,0.02976007,-0.15182961,
 0.11912299,0.00003258,-0.00002685,0.00004997,0.00001052,0.00007521,-0.
 00014833,-0.00015652,-0.00009270,0.00029732,-0.00024801,0.00008518,-0.
 00017499,0.00010182,-0.00050333,0.00129781,0.00020619,-0.00007892,0.00
 006107,-0.00003479,-0.00000225,-0.00006632,-0.00001445,-0.00003394,0.0
 0001197,0.00012085,0.00001122,-0.00001605,0.00001139,0.00003457,0.0000
 6565,-0.00000744,0.00001210,-0.00002223,0.00000513,-0.00001983,0.00000
 627,0.00000018,0.00000261,-0.00000128,0.00000309,-0.00000899,0.0000020
 4,0.00000354,0.00002378,-0.00002512,-0.00000144,-0.00001261,0.00001683
 ,-0.00000023,-0.00001517,0.00001208,-0.00011627,-0.00004037,-0.0000761
 1,0.00007195,0.00002332,0.00002434,-0.00001478,-0.00002785,0.00000130,
 0.00003195,0.00002024,-0.00001458,-0.00001608,-0.00002972,0.00003298,0
 .00002309,0.00002661,0.00001029,0.00000238,0.00000366,-0.00000928,-0.0
 0000097,-0.00000243,0.00000227,0.00000247,0.00000118,-0.00000207,-0.00
 000094,-0.00000513,-0.00000377,0.00000021,-0.00000424,0.00000965,-0.00
 001272,-0.00000113,-0.00002814,-0.00350609,0.00490660,-0.00082499,0.00
 325968,0.00264076,-0.00168506,0.00796536,-0.00211965,-0.00679244,-0.31
 058548,-0.07353615,0.18376685,-0.00855781,-0.01522408,0.01198637,0.000
 01063,0.00000117,-0.00001179,-0.00001394,-0.00000707,0.00000027,-0.000
 01224,0.00000546,0.00000507,-0.00003654,0.00000368,0.00003904,-0.00000
 115,0.00002197,-0.00001814,0.00000904,-0.00000496,0.00001031,0.0000102
 2,-0.00000482,-0.00001250,0.00000272,0.00000391,0.00001076,-0.00000204
 ,0.00000296,0.00000101,0.00000383,-0.00000260,-0.00000182,0.00000151,-
 0.00000179,0.00000042,-0.00000441,0.00001218,-0.00000507,0.00000116,0.
 00000236,0.00000060,0.00001078,0.00000552,-0.00000010,0.00000067,0.000
 00205,-0.00000084,0.00000096,0.00000241,0.00000240,-0.00000244,0.,0.00
 000069,-0.00000495,0.00000492,-0.00000501,0.00085568,0.00050870,0.0002
 4334,0.00022561,-0.00004981,-0.00076214,0.31036656,0.00006658,-0.00004
 812,0.00006264,0.00004159,0.00007601,-0.00015920,-0.00016780,-0.000097
 27,0.00003281,0.00026171,-0.00013439,0.00001264,0.00001930,0.00143609,
 0.00044753,0.00010722,-0.00007350,-0.00011500,-0.00004938,-0.00002725,
 -0.00004173,-0.00000899,-0.00002997,-0.00000160,0.00008508,0.00001033,
 -0.00001697,0.00001753,0.00003596,0.00006586,-0.00000722,0.00001242,-0
 .00002465,0.00000291,-0.00001939,0.00000674,0.00000030,0.00000285,-0.0
 0000250,0.00000157,-0.00001249,0.00000646,0.00000664,0.00003169,-0.000
 03842,-0.00000102,-0.00001641,0.00001470,-0.00000537,-0.00002053,0.000
 02122,-0.00007915,-0.00002243,-0.00006664,0.00005426,0.00001244,0.0000
 1827,-0.00000704,-0.00001486,0.00000562,0.00002096,0.00001017,-0.00000
 955,-0.00000868,-0.00001856,0.00001927,0.00001370,0.00001581,0.0000062
 2,0.00000146,0.00000238,-0.00000559,-0.00000030,-0.00000162,0.00000152
 ,0.00000221,0.00000069,-0.00000092,-0.00000014,-0.00000363,-0.00000283
 ,0.00000153,-0.00000255,0.00000576,-0.00000919,-0.00000125,-0.00001764
 ,0.00516304,-0.00037946,0.00071240,0.00236594,-0.00520996,0.00625745,-
 0.02772983,-0.00837112,0.00870353,-0.06897025,-0.07650482,0.08430256,0
 .00702307,0.00773131,-0.01424649,-0.00000020,0.00000539,-0.00000980,-0
 .00000705,0.00000546,-0.00000097,-0.00001504,-0.00000137,-0.00000365,-
 0.00000593,0.00007892,-0.00005428,-0.00001409,0.00004333,0.00003554,0.
 00002303,-0.00000465,0.00000692,0.00000985,-0.00000698,-0.00001133,0.0
 0000300,0.00000387,0.00000907,-0.00000115,0.00000202,0.00000222,0.0000
 0302,-0.00000208,-0.00000008,0.00000267,-0.00000095,-0.00000012,-0.000
 00142,0.00001568,-0.00000406,0.00000162,0.00000310,-0.00000061,0.00001
 000,0.00000327,0.00000066,0.00000001,0.00000134,-0.00000018,0.,0.00000
 158,0.00000114,-0.00000147,0.00000085,0.00000067,-0.00000388,0.0000037
 9,-0.00000377,-0.00093468,0.00094292,0.00147073,-0.00069263,-0.0006157
 7,-0.00049497,0.08341210,0.08115175,-0.00001501,0.00004972,-0.00002787
 ,-0.00008403,-0.00003804,0.00014296,-0.00004282,-0.00018087,-0.0001674
 0,-0.00035911,0.00000755,0.00006572,0.00070211,0.00055114,0.00139937,-
 0.00009007,-0.00000734,0.00000184,0.00005483,0.00001467,-0.00006427,0.
 00007921,-0.00002169,0.00005462,-0.00012786,-0.00001537,-0.00000624,-0
 .00000360,-0.00001584,-0.00003371,0.00000534,-0.00001135,0.00001205,-0
 .00000503,0.00001357,-0.00000603,-0.00000022,-0.00000316,0.00000014,-0
 .00000181,0.00000824,-0.00000527,-0.00000546,-0.00002667,0.00002957,-0
 .00000182,0.00001179,-0.00001470,0.00000080,0.00001520,-0.00001674,0.0
 0011592,0.00007669,0.00010861,-0.00004919,-0.00004703,-0.00006197,0.00
 001648,0.00002536,0.00000139,-0.00002690,-0.00001885,0.00000784,0.0000
 0903,0.00001891,-0.00003421,-0.00001643,-0.00002042,-0.00000740,-0.000
 00325,-0.00000377,0.00000608,0.00000226,0.00000226,0.00000115,-0.00000
 091,-0.00000176,-0.00000305,0.00000066,0.00000117,0.00000470,-0.000000
 18,0.00000099,-0.00000782,0.00001387,0.00000507,0.00003022,-0.00076934
 ,0.00073778,0.00313985,-0.00155204,0.00651458,0.00026903,0.01257631,-0
 .00176011,-0.01627865,0.18063661,0.08595927,-0.14384262,-0.00494733,-0
 .00507221,-0.00157654,-0.00000732,-0.00000517,0.00000774,0.00001050,-0
 .00000209,-0.00000071,0.00000433,-0.00001101,-0.00000672,0.00004329,0.
 00012326,0.00001115,0.00001964,0.00003923,0.00002059,-0.00002467,0.000
 00936,-0.00000017,-0.00000424,0.00000168,0.00000678,-0.00000341,-0.000
 00392,-0.00000773,0.00000299,-0.00000083,-0.00000017,-0.00000135,0.000
 00227,0.00000143,-0.00000029,0.00000178,0.00000098,0.00000588,-0.00000
 839,0.00000632,0.00000097,-0.00000051,-0.00000203,-0.00000833,-0.00000
 472,0.00000173,-0.00000092,-0.00000088,0.00000064,-0.00000218,-0.00000
 168,-0.00000164,-0.00000063,0.00000084,-0.00000294,0.00000323,-0.00000
 157,0.00000711,0.00136907,0.00073143,0.00105794,-0.00025674,-0.0007419
 6,-0.00098010,-0.18726082,-0.08689661,0.15675916\\0.00000104,0.0000002
 3,0.00000097,-0.00000001,-0.00000219,0.00000101,-0.00000064,0.00000254
 ,-0.00000078,0.00000165,0.00000020,-0.00000148,0.00000298,-0.00000045,
 0.00000164,-0.00000203,0.00000181,0.00000230,0.00000189,0.00000017,-0.
 00000162,-0.00000107,-0.00000133,0.00000280,0.00000229,0.00000078,-0.0
 0000169,-0.00000125,0.00000304,-0.00000055,-0.00000055,-0.00000133,-0.
 00000039,-0.00000017,-0.00000025,0.00000054,-0.00000083,0.00000010,-0.
 00000041,-0.00000154,-0.00000139,0.00000144,0.00000072,0.00000159,-0.0
 0000240,-0.00000010,-0.00000051,0.00000119,-0.00000093,-0.00000067,0.0
 0000107,-0.00000095,-0.00000580,-0.00000256,-0.00000008,0.00000287,0.0
 0000128,-0.00000149,-0.00000222,-0.00000230,0.00000248,0.00000463,-0.0
 0000740,-0.00000641,-0.00000480,0.00000408,0.00000464,0.00000102,-0.00
 000068,-0.00000083,-0.00000212,-0.00000198,0.00000130,-0.00000022,-0.0
 0000056,0.00000127,0.00000046,-0.00000184,0.00000015,-0.00000066,-0.00
 000150,0.00000067,-0.00000046,0.00000045,0.00000077,0.00000155,0.00000
 181,-0.00000059,-0.00000065,0.00000110,-0.00000086,0.00000086,0.000001
 85,0.00000136,0.00000171,0.00000060,-0.00000119,0.00000007,0.00000265,
 0.00000165,0.00000307,0.00000015,-0.00000022,0.00000011,0.00000025,-0.
 00000053,-0.00000021,-0.00000005,-0.00000094,-0.00000049,0.00000082,-0
 .00000080,0.00000018,0.00000102,-0.00000039,0.00000014,0.00000005,-0.0
 0000043,0.00000028,0.00000065,-0.00000048,-0.00000130,-0.00000033,-0.0
 0000133,0.00000042,0.00000131,-0.00000103,-0.00000058,-0.00000035,-0.0
 0000096,-0.00000075,-0.00000030,-0.00000045,-0.00000007,-0.00000010,-0
 .00000032,0.00000009,-0.00000043,0.00000019,0.00000016,0.00000030,0.00
 000033,-0.00000090,0.00000008,0.00000067,-0.00000033,-0.00000129,0.000
 00092,-0.00000024,-0.00000123,0.00000117,-0.00000025,-0.00000083,0.000
 00031,0.00000049,-0.00000078,0.00000019,0.00000013,0.00000077,0.000000
 76,0.00000062,0.00000085,0.,0.00000083,0.00000082\\\@


 GROWING OLD ISN'T SO BAD -- WHEN YOU CONSIDER THE ALTERNATIVE.

                     -- MAURICE CHEVALIER
 Job cpu time:  1 days  0 hours 24 minutes 18.8 seconds.
 File lengths (MBytes):  RWF=   2112 Int=      0 D2E=      0 Chk=     28 Scr=      1
 Normal termination of Gaussian 09 at Fri Sep  9 07:36:35 2022.
