 Entering Gaussian System, Link 0=g09
 Input=Mol33.gjf
 Output=Mol33.log
 Initial command:
 /opt/gaussian/l1.exe /home/scr/lqcapf-6/Gau-305928.inp -scrdir=/home/scr/lqcapf-6/
 Entering Link 1 = /opt/gaussian/l1.exe PID=    305930.
  
 Copyright (c) 1988,1990,1992,1993,1995,1998,2003,2009,2011,
            Gaussian, Inc.  All Rights Reserved.
  
 This is part of the Gaussian(R) 09 program.  It is based on
 the Gaussian(R) 03 system (copyright 2003, Gaussian, Inc.),
 the Gaussian(R) 98 system (copyright 1998, Gaussian, Inc.),
 the Gaussian(R) 94 system (copyright 1995, Gaussian, Inc.),
 the Gaussian 92(TM) system (copyright 1992, Gaussian, Inc.),
 the Gaussian 90(TM) system (copyright 1990, Gaussian, Inc.),
 the Gaussian 88(TM) system (copyright 1988, Gaussian, Inc.),
 the Gaussian 86(TM) system (copyright 1986, Carnegie Mellon
 University), and the Gaussian 82(TM) system (copyright 1983,
 Carnegie Mellon University). Gaussian is a federally registered
 trademark of Gaussian, Inc.
  
 This software contains proprietary and confidential information,
 including trade secrets, belonging to Gaussian, Inc.
  
 This software is provided under written license and may be
 used, copied, transmitted, or stored only in accord with that
 written license.
  
 The following legend is applicable only to US Government
 contracts under FAR:
  
                    RESTRICTED RIGHTS LEGEND
  
 Use, reproduction and disclosure by the US Government is
 subject to restrictions as set forth in subparagraphs (a)
 and (c) of the Commercial Computer Software - Restricted
 Rights clause in FAR 52.227-19.
  
 Gaussian, Inc.
 340 Quinnipiac St., Bldg. 40, Wallingford CT 06492
  
  
 ---------------------------------------------------------------
 Warning -- This program may not be used in any manner that
 competes with the business of Gaussian, Inc. or will provide
 assistance to any competitor of Gaussian, Inc.  The licensee
 of this program is prohibited from giving any competitor of
 Gaussian, Inc. access to this program.  By using this program,
 the user acknowledges that Gaussian, Inc. is engaged in the
 business of creating and licensing software in the field of
 computational chemistry and represents and warrants to the
 licensee that it is not a competitor of Gaussian, Inc. and that
 it will not use this program in any manner prohibited above.
 ---------------------------------------------------------------
  

 Cite this work as:
 Gaussian 09, Revision C.01,
 M. J. Frisch, G. W. Trucks, H. B. Schlegel, G. E. Scuseria, 
 M. A. Robb, J. R. Cheeseman, G. Scalmani, V. Barone, B. Mennucci, 
 G. A. Petersson, H. Nakatsuji, M. Caricato, X. Li, H. P. Hratchian, 
 A. F. Izmaylov, J. Bloino, G. Zheng, J. L. Sonnenberg, M. Hada, 
 M. Ehara, K. Toyota, R. Fukuda, J. Hasegawa, M. Ishida, T. Nakajima, 
 Y. Honda, O. Kitao, H. Nakai, T. Vreven, J. A. Montgomery, Jr., 
 J. E. Peralta, F. Ogliaro, M. Bearpark, J. J. Heyd, E. Brothers, 
 K. N. Kudin, V. N. Staroverov, T. Keith, R. Kobayashi, J. Normand, 
 K. Raghavachari, A. Rendell, J. C. Burant, S. S. Iyengar, J. Tomasi, 
 M. Cossi, N. Rega, J. M. Millam, M. Klene, J. E. Knox, J. B. Cross, 
 V. Bakken, C. Adamo, J. Jaramillo, R. Gomperts, R. E. Stratmann, 
 O. Yazyev, A. J. Austin, R. Cammi, C. Pomelli, J. W. Ochterski, 
 R. L. Martin, K. Morokuma, V. G. Zakrzewski, G. A. Voth, 
 P. Salvador, J. J. Dannenberg, S. Dapprich, A. D. Daniels, 
 O. Farkas, J. B. Foresman, J. V. Ortiz, J. Cioslowski, 
 and D. J. Fox, Gaussian, Inc., Wallingford CT, 2010.
 
 ******************************************
 Gaussian 09:  EM64L-G09RevC.01 23-Sep-2011
                 6-Sep-2022 
 ******************************************
 %nprocshared=8
 Will use up to    8 processors via shared memory.
 %mem=1600MB
 -------------------------
 #p opt freq b3lyp/cc-pvdz
 -------------------------
 1/14=-1,18=20,19=15,26=3,38=1/1,3;
 2/9=110,12=2,17=6,18=5,40=1/2;
 3/5=16,11=2,16=1,25=1,30=1,71=1,74=-5/1,2,3;
 4//1;
 5/5=2,38=5/2;
 6/7=2,8=2,9=2,10=2,28=1/1;
 7//1,2,3,16;
 1/14=-1,18=20,19=15/3(2);
 2/9=110/2;
 99//99;
 2/9=110/2;
 3/5=16,11=2,16=1,25=1,30=1,71=1,74=-5/1,2,3;
 4/5=5,16=3/1;
 5/5=2,38=5/2;
 7//1,2,3,16;
 1/14=-1,18=20,19=15/3(-5);
 2/9=110/2;
 6/7=2,8=2,9=2,10=2,19=2,28=1/1;
 99/9=1/99;
 Leave Link    1 at Tue Sep  6 22:18:58 2022, MaxMem=  209715200 cpu:       0.2
 (Enter /opt/gaussian/l101.exe)
 ---------
 Mol33.log
 ---------
 Charge =  0 Multiplicity = 1
 Symbolic Z-Matrix:
 C                    -4.46228   4.40227  -1.12069 
 C                    -3.09406   3.9168   -0.70732 
 C                    -2.20058   4.76956  -0.07061 
 C                    -0.94835   4.30208   0.27573 
 C                    -0.54372   3.01293   0.01492 
 C                    -1.43253   2.14681  -0.6172 
 C                    -2.69563   2.60665  -0.9688 
 C                    -1.02761   0.72643  -0.97023 
 N                    -0.37137  -0.02455   0.11698 
 C                    -1.05886  -0.5673    1.16019 
 O                    -0.50804  -1.16418   2.08142 
 C                    -2.57821  -0.46211   1.18781 
 N                    -3.19975  -1.43331   0.31488 
 N                    -3.97202  -1.02718  -0.73398 
 N                    -4.47509  -2.04063  -1.30944 
 C                    -4.05946  -3.18437  -0.64868 
 C                    -4.34776  -4.52872  -0.88881 
 C                    -3.78452  -5.45016  -0.04192 
 C                    -2.94607  -5.04774   1.02371 
 C                    -2.65316  -3.72754   1.26838 
 C                    -3.23662  -2.79634   0.4019 
 C                     1.05047  -0.22512   0.04167 
 C                     1.58748  -0.93349  -1.0235 
 C                     2.95773  -1.10838  -1.1273 
 C                     3.82011  -0.59085  -0.163 
 C                     3.26568   0.10515   0.91041 
 C                     1.89711   0.28797   1.01355 
 C                     5.28806  -0.78148  -0.27203 
 C                     5.96448  -0.60344  -1.47707 
 C                     7.33621  -0.79253  -1.52994 
 C                     8.00365  -1.15347  -0.37131 
 N                     7.36625  -1.32807   0.7846 
 C                     6.04967  -1.15034   0.83556 
 Cl                    0.20364   5.42915   1.10362 
 H                    -5.20153   3.61682  -1.02617 
 H                    -4.78295   5.23975  -0.51457 
 H                    -4.45933   4.72686  -2.15641 
 H                    -2.47529   5.78024   0.15423 
 H                     0.43765   2.69021   0.29291 
 H                    -3.38533   1.93341  -1.44389 
 H                    -1.89208   0.1853   -1.32032 
 H                    -0.32476   0.75438  -1.78925 
 H                    -2.8734   -0.65263   2.20814 
 H                    -2.93637   0.50893   0.89378 
 H                    -4.98432  -4.81307  -1.7021 
 H                    -3.97597  -6.4953   -0.18418 
 H                    -2.52229  -5.80178   1.65796 
 H                    -2.00147  -3.42688   2.06305 
 H                     0.93648  -1.36404  -1.75972 
 H                     3.35334  -1.67694  -1.94646 
 H                     3.90674   0.52444   1.66097 
 H                     1.48774   0.81341   1.85203 
 H                     5.42698  -0.30316  -2.35563 
 H                     7.87576  -0.65479  -2.44545 
 H                     9.06291  -1.30659  -0.36077 
 H                     5.58627  -1.32411   1.78519 
 
 NAtoms=     56 NQM=        0 NQMF=       0 NMMI=     56 NMMIF=      0
                NMic=       0 NMicF=      0.
                    Isotopes and Nuclear Properties:
 (Nuclear quadrupole moments (NQMom) in fm**2, nuclear magnetic moments (NMagM)
  in nuclear magnetons)

  Atom         1           2           3           4           5           6           7           8           9          10
 IAtWgt=          12          12          12          12          12          12          12          12          14          12
 AtmWgt=  12.0000000  12.0000000  12.0000000  12.0000000  12.0000000  12.0000000  12.0000000  12.0000000  14.0030740  12.0000000
 NucSpn=           0           0           0           0           0           0           0           0           2           0
 AtZEff=   0.0000000   0.0000000   0.0000000   0.0000000   0.0000000   0.0000000   0.0000000   0.0000000   0.0000000   0.0000000
 NQMom=    0.0000000   0.0000000   0.0000000   0.0000000   0.0000000   0.0000000   0.0000000   0.0000000   2.0440000   0.0000000
 NMagM=    0.0000000   0.0000000   0.0000000   0.0000000   0.0000000   0.0000000   0.0000000   0.0000000   0.4037610   0.0000000

  Atom        11          12          13          14          15          16          17          18          19          20
 IAtWgt=          16          12          14          14          14          12          12          12          12          12
 AtmWgt=  15.9949146  12.0000000  14.0030740  14.0030740  14.0030740  12.0000000  12.0000000  12.0000000  12.0000000  12.0000000
 NucSpn=           0           0           2           2           2           0           0           0           0           0
 AtZEff=   0.0000000   0.0000000   0.0000000   0.0000000   0.0000000   0.0000000   0.0000000   0.0000000   0.0000000   0.0000000
 NQMom=    0.0000000   0.0000000   2.0440000   2.0440000   2.0440000   0.0000000   0.0000000   0.0000000   0.0000000   0.0000000
 NMagM=    0.0000000   0.0000000   0.4037610   0.4037610   0.4037610   0.0000000   0.0000000   0.0000000   0.0000000   0.0000000

  Atom        21          22          23          24          25          26          27          28          29          30
 IAtWgt=          12          12          12          12          12          12          12          12          12          12
 AtmWgt=  12.0000000  12.0000000  12.0000000  12.0000000  12.0000000  12.0000000  12.0000000  12.0000000  12.0000000  12.0000000
 NucSpn=           0           0           0           0           0           0           0           0           0           0
 AtZEff=   0.0000000   0.0000000   0.0000000   0.0000000   0.0000000   0.0000000   0.0000000   0.0000000   0.0000000   0.0000000
 NQMom=    0.0000000   0.0000000   0.0000000   0.0000000   0.0000000   0.0000000   0.0000000   0.0000000   0.0000000   0.0000000
 NMagM=    0.0000000   0.0000000   0.0000000   0.0000000   0.0000000   0.0000000   0.0000000   0.0000000   0.0000000   0.0000000

  Atom        31          32          33          34          35          36          37          38          39          40
 IAtWgt=          12          14          12          35           1           1           1           1           1           1
 AtmWgt=  12.0000000  14.0030740  12.0000000  34.9688527   1.0078250   1.0078250   1.0078250   1.0078250   1.0078250   1.0078250
 NucSpn=           0           2           0           3           1           1           1           1           1           1
 AtZEff=   0.0000000   0.0000000   0.0000000   0.0000000   0.0000000   0.0000000   0.0000000   0.0000000   0.0000000   0.0000000
 NQMom=    0.0000000   2.0440000   0.0000000  -8.1650000   0.0000000   0.0000000   0.0000000   0.0000000   0.0000000   0.0000000
 NMagM=    0.0000000   0.4037610   0.0000000   0.8218740   2.7928460   2.7928460   2.7928460   2.7928460   2.7928460   2.7928460

  Atom        41          42          43          44          45          46          47          48          49          50
 IAtWgt=           1           1           1           1           1           1           1           1           1           1
 AtmWgt=   1.0078250   1.0078250   1.0078250   1.0078250   1.0078250   1.0078250   1.0078250   1.0078250   1.0078250   1.0078250
 NucSpn=           1           1           1           1           1           1           1           1           1           1
 AtZEff=   0.0000000   0.0000000   0.0000000   0.0000000   0.0000000   0.0000000   0.0000000   0.0000000   0.0000000   0.0000000
 NQMom=    0.0000000   0.0000000   0.0000000   0.0000000   0.0000000   0.0000000   0.0000000   0.0000000   0.0000000   0.0000000
 NMagM=    2.7928460   2.7928460   2.7928460   2.7928460   2.7928460   2.7928460   2.7928460   2.7928460   2.7928460   2.7928460

  Atom        51          52          53          54          55          56
 IAtWgt=           1           1           1           1           1           1
 AtmWgt=   1.0078250   1.0078250   1.0078250   1.0078250   1.0078250   1.0078250
 NucSpn=           1           1           1           1           1           1
 AtZEff=   0.0000000   0.0000000   0.0000000   0.0000000   0.0000000   0.0000000
 NQMom=    0.0000000   0.0000000   0.0000000   0.0000000   0.0000000   0.0000000
 NMagM=    2.7928460   2.7928460   2.7928460   2.7928460   2.7928460   2.7928460
 Leave Link  101 at Tue Sep  6 22:18:58 2022, MaxMem=  209715200 cpu:       1.0
 (Enter /opt/gaussian/l103.exe)

 GradGradGradGradGradGradGradGradGradGradGradGradGradGradGradGradGradGrad
 Berny optimization.
 Initialization pass.
                           ----------------------------
                           !    Initial Parameters    !
                           ! (Angstroms and Degrees)  !
 --------------------------                            --------------------------
 ! Name  Definition              Value          Derivative Info.                !
 --------------------------------------------------------------------------------
 ! R1    R(1,2)                  1.5095         estimate D2E/DX2                !
 ! R2    R(1,35)                 1.0828         estimate D2E/DX2                !
 ! R3    R(1,36)                 1.0824         estimate D2E/DX2                !
 ! R4    R(1,37)                 1.0854         estimate D2E/DX2                !
 ! R5    R(2,3)                  1.3896         estimate D2E/DX2                !
 ! R6    R(2,7)                  1.3941         estimate D2E/DX2                !
 ! R7    R(3,4)                  1.3808         estimate D2E/DX2                !
 ! R8    R(3,38)                 1.0712         estimate D2E/DX2                !
 ! R9    R(4,5)                  1.3761         estimate D2E/DX2                !
 ! R10   R(4,34)                 1.8118         estimate D2E/DX2                !
 ! R11   R(5,6)                  1.3927         estimate D2E/DX2                !
 ! R12   R(5,39)                 1.0698         estimate D2E/DX2                !
 ! R13   R(6,7)                  1.3894         estimate D2E/DX2                !
 ! R14   R(6,8)                  1.5186         estimate D2E/DX2                !
 ! R15   R(7,40)                 1.0745         estimate D2E/DX2                !
 ! R16   R(8,9)                  1.4753         estimate D2E/DX2                !
 ! R17   R(8,41)                 1.0783         estimate D2E/DX2                !
 ! R18   R(8,42)                 1.0796         estimate D2E/DX2                !
 ! R19   R(9,10)                 1.3622         estimate D2E/DX2                !
 ! R20   R(9,22)                 1.4379         estimate D2E/DX2                !
 ! R21   R(10,11)                1.2281         estimate D2E/DX2                !
 ! R22   R(10,12)                1.5232         estimate D2E/DX2                !
 ! R23   R(12,13)                1.4462         estimate D2E/DX2                !
 ! R24   R(12,43)                1.0791         estimate D2E/DX2                !
 ! R25   R(12,44)                1.0759         estimate D2E/DX2                !
 ! R26   R(13,14)                1.3643         estimate D2E/DX2                !
 ! R27   R(13,21)                1.3663         estimate D2E/DX2                !
 ! R28   R(14,15)                1.2694         estimate D2E/DX2                !
 ! R29   R(15,16)                1.3847         estimate D2E/DX2                !
 ! R30   R(16,17)                1.3957         estimate D2E/DX2                !
 ! R31   R(16,21)                1.3897         estimate D2E/DX2                !
 ! R32   R(17,18)                1.3724         estimate D2E/DX2                !
 ! R33   R(17,45)                1.0712         estimate D2E/DX2                !
 ! R34   R(18,19)                1.4144         estimate D2E/DX2                !
 ! R35   R(18,46)                1.072          estimate D2E/DX2                !
 ! R36   R(19,20)                1.3743         estimate D2E/DX2                !
 ! R37   R(19,47)                1.0726         estimate D2E/DX2                !
 ! R38   R(20,21)                1.3994         estimate D2E/DX2                !
 ! R39   R(20,48)                1.0708         estimate D2E/DX2                !
 ! R40   R(22,23)                1.3874         estimate D2E/DX2                !
 ! R41   R(22,27)                1.3873         estimate D2E/DX2                !
 ! R42   R(23,24)                1.3853         estimate D2E/DX2                !
 ! R43   R(23,49)                1.0729         estimate D2E/DX2                !
 ! R44   R(24,25)                1.3933         estimate D2E/DX2                !
 ! R45   R(24,50)                1.0727         estimate D2E/DX2                !
 ! R46   R(25,26)                1.3943         estimate D2E/DX2                !
 ! R47   R(25,28)                1.4843         estimate D2E/DX2                !
 ! R48   R(26,27)                1.3846         estimate D2E/DX2                !
 ! R49   R(26,51)                1.0724         estimate D2E/DX2                !
 ! R50   R(27,52)                1.0708         estimate D2E/DX2                !
 ! R51   R(28,29)                1.3933         estimate D2E/DX2                !
 ! R52   R(28,33)                1.3939         estimate D2E/DX2                !
 ! R53   R(29,30)                1.3857         estimate D2E/DX2                !
 ! R54   R(29,53)                1.0728         estimate D2E/DX2                !
 ! R55   R(30,31)                1.385          estimate D2E/DX2                !
 ! R56   R(30,54)                1.0716         estimate D2E/DX2                !
 ! R57   R(31,32)                1.3315         estimate D2E/DX2                !
 ! R58   R(31,55)                1.0703         estimate D2E/DX2                !
 ! R59   R(32,33)                1.3295         estimate D2E/DX2                !
 ! R60   R(33,56)                1.0709         estimate D2E/DX2                !
 ! A1    A(2,1,35)             111.2011         estimate D2E/DX2                !
 ! A2    A(2,1,36)             111.3474         estimate D2E/DX2                !
 ! A3    A(2,1,37)             110.7951         estimate D2E/DX2                !
 ! A4    A(35,1,36)            108.0665         estimate D2E/DX2                !
 ! A5    A(35,1,37)            107.5834         estimate D2E/DX2                !
 ! A6    A(36,1,37)            107.6842         estimate D2E/DX2                !
 ! A7    A(1,2,3)              120.7252         estimate D2E/DX2                !
 ! A8    A(1,2,7)              120.6583         estimate D2E/DX2                !
 ! A9    A(3,2,7)              118.6134         estimate D2E/DX2                !
 ! A10   A(2,3,4)              119.3594         estimate D2E/DX2                !
 ! A11   A(2,3,38)             120.6831         estimate D2E/DX2                !
 ! A12   A(4,3,38)             119.9573         estimate D2E/DX2                !
 ! A13   A(3,4,5)              122.4317         estimate D2E/DX2                !
 ! A14   A(3,4,34)             118.7261         estimate D2E/DX2                !
 ! A15   A(5,4,34)             118.8422         estimate D2E/DX2                !
 ! A16   A(4,5,6)              118.7481         estimate D2E/DX2                !
 ! A17   A(4,5,39)             120.204          estimate D2E/DX2                !
 ! A18   A(6,5,39)             121.0477         estimate D2E/DX2                !
 ! A19   A(5,6,7)              119.2873         estimate D2E/DX2                !
 ! A20   A(5,6,8)              121.1324         estimate D2E/DX2                !
 ! A21   A(7,6,8)              119.5465         estimate D2E/DX2                !
 ! A22   A(2,7,6)              121.5582         estimate D2E/DX2                !
 ! A23   A(2,7,40)             119.2276         estimate D2E/DX2                !
 ! A24   A(6,7,40)             119.2108         estimate D2E/DX2                !
 ! A25   A(6,8,9)              115.0491         estimate D2E/DX2                !
 ! A26   A(6,8,41)             109.3356         estimate D2E/DX2                !
 ! A27   A(6,8,42)             109.0102         estimate D2E/DX2                !
 ! A28   A(9,8,41)             109.9021         estimate D2E/DX2                !
 ! A29   A(9,8,42)             106.4181         estimate D2E/DX2                !
 ! A30   A(41,8,42)            106.7751         estimate D2E/DX2                !
 ! A31   A(8,9,10)             122.8668         estimate D2E/DX2                !
 ! A32   A(8,9,22)             118.1801         estimate D2E/DX2                !
 ! A33   A(10,9,22)            118.9208         estimate D2E/DX2                !
 ! A34   A(9,10,11)            122.8027         estimate D2E/DX2                !
 ! A35   A(9,10,12)            119.3265         estimate D2E/DX2                !
 ! A36   A(11,10,12)           117.8601         estimate D2E/DX2                !
 ! A37   A(10,12,13)           111.7991         estimate D2E/DX2                !
 ! A38   A(10,12,43)           106.129          estimate D2E/DX2                !
 ! A39   A(10,12,44)           112.9172         estimate D2E/DX2                !
 ! A40   A(13,12,43)           109.5474         estimate D2E/DX2                !
 ! A41   A(13,12,44)           107.3411         estimate D2E/DX2                !
 ! A42   A(43,12,44)           109.0666         estimate D2E/DX2                !
 ! A43   A(12,13,14)           120.4898         estimate D2E/DX2                !
 ! A44   A(12,13,21)           130.0226         estimate D2E/DX2                !
 ! A45   A(14,13,21)           109.3081         estimate D2E/DX2                !
 ! A46   A(13,14,15)           109.5835         estimate D2E/DX2                !
 ! A47   A(14,15,16)           108.9147         estimate D2E/DX2                !
 ! A48   A(15,16,17)           130.652          estimate D2E/DX2                !
 ! A49   A(15,16,21)           107.9279         estimate D2E/DX2                !
 ! A50   A(17,16,21)           121.4192         estimate D2E/DX2                !
 ! A51   A(16,17,18)           117.1131         estimate D2E/DX2                !
 ! A52   A(16,17,45)           120.6            estimate D2E/DX2                !
 ! A53   A(18,17,45)           122.2868         estimate D2E/DX2                !
 ! A54   A(17,18,19)           121.1433         estimate D2E/DX2                !
 ! A55   A(17,18,46)           119.9596         estimate D2E/DX2                !
 ! A56   A(19,18,46)           118.8969         estimate D2E/DX2                !
 ! A57   A(18,19,20)           122.2634         estimate D2E/DX2                !
 ! A58   A(18,19,47)           118.6667         estimate D2E/DX2                !
 ! A59   A(20,19,47)           119.0693         estimate D2E/DX2                !
 ! A60   A(19,20,21)           116.1132         estimate D2E/DX2                !
 ! A61   A(19,20,48)           122.1125         estimate D2E/DX2                !
 ! A62   A(21,20,48)           121.7638         estimate D2E/DX2                !
 ! A63   A(13,21,16)           104.263          estimate D2E/DX2                !
 ! A64   A(13,21,20)           133.7898         estimate D2E/DX2                !
 ! A65   A(16,21,20)           121.9472         estimate D2E/DX2                !
 ! A66   A(9,22,23)            119.6162         estimate D2E/DX2                !
 ! A67   A(9,22,27)            121.0097         estimate D2E/DX2                !
 ! A68   A(23,22,27)           119.3722         estimate D2E/DX2                !
 ! A69   A(22,23,24)           120.3229         estimate D2E/DX2                !
 ! A70   A(22,23,49)           119.7923         estimate D2E/DX2                !
 ! A71   A(24,23,49)           119.8739         estimate D2E/DX2                !
 ! A72   A(23,24,25)           120.8952         estimate D2E/DX2                !
 ! A73   A(23,24,50)           119.2694         estimate D2E/DX2                !
 ! A74   A(25,24,50)           119.8073         estimate D2E/DX2                !
 ! A75   A(24,25,26)           118.1709         estimate D2E/DX2                !
 ! A76   A(24,25,28)           120.9023         estimate D2E/DX2                !
 ! A77   A(26,25,28)           120.9261         estimate D2E/DX2                !
 ! A78   A(25,26,27)           121.0851         estimate D2E/DX2                !
 ! A79   A(25,26,51)           119.7538         estimate D2E/DX2                !
 ! A80   A(27,26,51)           119.1499         estimate D2E/DX2                !
 ! A81   A(22,27,26)           120.1458         estimate D2E/DX2                !
 ! A82   A(22,27,52)           119.7826         estimate D2E/DX2                !
 ! A83   A(26,27,52)           120.0651         estimate D2E/DX2                !
 ! A84   A(25,28,29)           121.8196         estimate D2E/DX2                !
 ! A85   A(25,28,33)           121.0647         estimate D2E/DX2                !
 ! A86   A(29,28,33)           117.1157         estimate D2E/DX2                !
 ! A87   A(28,29,30)           119.7446         estimate D2E/DX2                !
 ! A88   A(28,29,53)           120.0527         estimate D2E/DX2                !
 ! A89   A(30,29,53)           120.1927         estimate D2E/DX2                !
 ! A90   A(29,30,31)           118.7307         estimate D2E/DX2                !
 ! A91   A(29,30,54)           120.8969         estimate D2E/DX2                !
 ! A92   A(31,30,54)           120.3702         estimate D2E/DX2                !
 ! A93   A(30,31,32)           121.9868         estimate D2E/DX2                !
 ! A94   A(30,31,55)           121.4969         estimate D2E/DX2                !
 ! A95   A(32,31,55)           116.5163         estimate D2E/DX2                !
 ! A96   A(31,32,33)           119.3276         estimate D2E/DX2                !
 ! A97   A(28,33,32)           123.0937         estimate D2E/DX2                !
 ! A98   A(28,33,56)           120.7409         estimate D2E/DX2                !
 ! A99   A(32,33,56)           116.1569         estimate D2E/DX2                !
 ! D1    D(35,1,2,3)          -145.3637         estimate D2E/DX2                !
 ! D2    D(35,1,2,7)            35.2894         estimate D2E/DX2                !
 ! D3    D(36,1,2,3)           -24.7836         estimate D2E/DX2                !
 ! D4    D(36,1,2,7)           155.8694         estimate D2E/DX2                !
 ! D5    D(37,1,2,3)            95.0381         estimate D2E/DX2                !
 ! D6    D(37,1,2,7)           -84.3089         estimate D2E/DX2                !
 ! D7    D(1,2,3,4)           -178.9551         estimate D2E/DX2                !
 ! D8    D(1,2,3,38)             1.1877         estimate D2E/DX2                !
 ! D9    D(7,2,3,4)              0.4049         estimate D2E/DX2                !
 ! D10   D(7,2,3,38)          -179.4523         estimate D2E/DX2                !
 ! D11   D(1,2,7,6)            178.8799         estimate D2E/DX2                !
 ! D12   D(1,2,7,40)            -1.7918         estimate D2E/DX2                !
 ! D13   D(3,2,7,6)             -0.4805         estimate D2E/DX2                !
 ! D14   D(3,2,7,40)           178.8477         estimate D2E/DX2                !
 ! D15   D(2,3,4,5)             -0.0454         estimate D2E/DX2                !
 ! D16   D(2,3,4,34)           179.9328         estimate D2E/DX2                !
 ! D17   D(38,3,4,5)           179.8129         estimate D2E/DX2                !
 ! D18   D(38,3,4,34)           -0.2089         estimate D2E/DX2                !
 ! D19   D(3,4,5,6)             -0.2512         estimate D2E/DX2                !
 ! D20   D(3,4,5,39)           179.5744         estimate D2E/DX2                !
 ! D21   D(34,4,5,6)           179.7707         estimate D2E/DX2                !
 ! D22   D(34,4,5,39)           -0.4038         estimate D2E/DX2                !
 ! D23   D(4,5,6,7)              0.178          estimate D2E/DX2                !
 ! D24   D(4,5,6,8)            178.054          estimate D2E/DX2                !
 ! D25   D(39,5,6,7)          -179.646          estimate D2E/DX2                !
 ! D26   D(39,5,6,8)            -1.77           estimate D2E/DX2                !
 ! D27   D(5,6,7,2)              0.1875         estimate D2E/DX2                !
 ! D28   D(5,6,7,40)          -179.1409         estimate D2E/DX2                !
 ! D29   D(8,6,7,2)           -177.7226         estimate D2E/DX2                !
 ! D30   D(8,6,7,40)             2.949          estimate D2E/DX2                !
 ! D31   D(5,6,8,9)             47.8218         estimate D2E/DX2                !
 ! D32   D(5,6,8,41)           172.0303         estimate D2E/DX2                !
 ! D33   D(5,6,8,42)           -71.5845         estimate D2E/DX2                !
 ! D34   D(7,6,8,9)           -134.3077         estimate D2E/DX2                !
 ! D35   D(7,6,8,41)           -10.0992         estimate D2E/DX2                !
 ! D36   D(7,6,8,42)           106.286          estimate D2E/DX2                !
 ! D37   D(6,8,9,10)            77.1134         estimate D2E/DX2                !
 ! D38   D(6,8,9,22)          -104.9766         estimate D2E/DX2                !
 ! D39   D(41,8,9,10)          -46.7964         estimate D2E/DX2                !
 ! D40   D(41,8,9,22)          131.1136         estimate D2E/DX2                !
 ! D41   D(42,8,9,10)         -162.053          estimate D2E/DX2                !
 ! D42   D(42,8,9,22)           15.857          estimate D2E/DX2                !
 ! D43   D(8,9,10,11)         -178.1754         estimate D2E/DX2                !
 ! D44   D(8,9,10,12)            3.0437         estimate D2E/DX2                !
 ! D45   D(22,9,10,11)           3.9293         estimate D2E/DX2                !
 ! D46   D(22,9,10,12)        -174.8516         estimate D2E/DX2                !
 ! D47   D(8,9,22,23)          -61.3775         estimate D2E/DX2                !
 ! D48   D(8,9,22,27)          118.1265         estimate D2E/DX2                !
 ! D49   D(10,9,22,23)         116.617          estimate D2E/DX2                !
 ! D50   D(10,9,22,27)         -63.879          estimate D2E/DX2                !
 ! D51   D(9,10,12,13)          78.6245         estimate D2E/DX2                !
 ! D52   D(9,10,12,43)        -161.9837         estimate D2E/DX2                !
 ! D53   D(9,10,12,44)         -42.5477         estimate D2E/DX2                !
 ! D54   D(11,10,12,13)       -100.2165         estimate D2E/DX2                !
 ! D55   D(11,10,12,43)         19.1753         estimate D2E/DX2                !
 ! D56   D(11,10,12,44)        138.6112         estimate D2E/DX2                !
 ! D57   D(10,12,13,14)       -118.5827         estimate D2E/DX2                !
 ! D58   D(10,12,13,21)         66.8413         estimate D2E/DX2                !
 ! D59   D(43,12,13,14)        124.0627         estimate D2E/DX2                !
 ! D60   D(43,12,13,21)        -50.5134         estimate D2E/DX2                !
 ! D61   D(44,12,13,14)          5.7673         estimate D2E/DX2                !
 ! D62   D(44,12,13,21)       -168.8088         estimate D2E/DX2                !
 ! D63   D(12,13,14,15)       -176.1522         estimate D2E/DX2                !
 ! D64   D(21,13,14,15)         -0.5511         estimate D2E/DX2                !
 ! D65   D(12,13,21,16)        175.4213         estimate D2E/DX2                !
 ! D66   D(12,13,21,20)         -4.5336         estimate D2E/DX2                !
 ! D67   D(14,13,21,16)          0.3726         estimate D2E/DX2                !
 ! D68   D(14,13,21,20)       -179.5824         estimate D2E/DX2                !
 ! D69   D(13,14,15,16)          0.4827         estimate D2E/DX2                !
 ! D70   D(14,15,16,17)        179.4089         estimate D2E/DX2                !
 ! D71   D(14,15,16,21)         -0.245          estimate D2E/DX2                !
 ! D72   D(15,16,17,18)       -179.5562         estimate D2E/DX2                !
 ! D73   D(15,16,17,45)          0.3437         estimate D2E/DX2                !
 ! D74   D(21,16,17,18)          0.058          estimate D2E/DX2                !
 ! D75   D(21,16,17,45)        179.9578         estimate D2E/DX2                !
 ! D76   D(15,16,21,13)         -0.0893         estimate D2E/DX2                !
 ! D77   D(15,16,21,20)        179.8724         estimate D2E/DX2                !
 ! D78   D(17,16,21,13)       -179.7816         estimate D2E/DX2                !
 ! D79   D(17,16,21,20)          0.1801         estimate D2E/DX2                !
 ! D80   D(16,17,18,19)         -0.1752         estimate D2E/DX2                !
 ! D81   D(16,17,18,46)        179.9639         estimate D2E/DX2                !
 ! D82   D(45,17,18,19)        179.9268         estimate D2E/DX2                !
 ! D83   D(45,17,18,46)          0.0659         estimate D2E/DX2                !
 ! D84   D(17,18,19,20)          0.0622         estimate D2E/DX2                !
 ! D85   D(17,18,19,47)       -179.6475         estimate D2E/DX2                !
 ! D86   D(46,18,19,20)        179.9245         estimate D2E/DX2                !
 ! D87   D(46,18,19,47)          0.2149         estimate D2E/DX2                !
 ! D88   D(18,19,20,21)          0.1672         estimate D2E/DX2                !
 ! D89   D(18,19,20,48)       -178.6729         estimate D2E/DX2                !
 ! D90   D(47,19,20,21)        179.8758         estimate D2E/DX2                !
 ! D91   D(47,19,20,48)          1.0357         estimate D2E/DX2                !
 ! D92   D(19,20,21,13)        179.6631         estimate D2E/DX2                !
 ! D93   D(19,20,21,16)         -0.2855         estimate D2E/DX2                !
 ! D94   D(48,20,21,13)         -1.4924         estimate D2E/DX2                !
 ! D95   D(48,20,21,16)        178.559          estimate D2E/DX2                !
 ! D96   D(9,22,23,24)         178.4744         estimate D2E/DX2                !
 ! D97   D(9,22,23,49)          -2.7257         estimate D2E/DX2                !
 ! D98   D(27,22,23,24)         -1.0378         estimate D2E/DX2                !
 ! D99   D(27,22,23,49)        177.7621         estimate D2E/DX2                !
 ! D100  D(9,22,27,26)        -178.8142         estimate D2E/DX2                !
 ! D101  D(9,22,27,52)           2.109          estimate D2E/DX2                !
 ! D102  D(23,22,27,26)          0.6911         estimate D2E/DX2                !
 ! D103  D(23,22,27,52)       -178.3858         estimate D2E/DX2                !
 ! D104  D(22,23,24,25)          0.6261         estimate D2E/DX2                !
 ! D105  D(22,23,24,50)        178.6948         estimate D2E/DX2                !
 ! D106  D(49,23,24,25)       -178.1728         estimate D2E/DX2                !
 ! D107  D(49,23,24,50)         -0.1041         estimate D2E/DX2                !
 ! D108  D(23,24,25,26)          0.137          estimate D2E/DX2                !
 ! D109  D(23,24,25,28)        179.824          estimate D2E/DX2                !
 ! D110  D(50,24,25,26)       -177.9214         estimate D2E/DX2                !
 ! D111  D(50,24,25,28)          1.7656         estimate D2E/DX2                !
 ! D112  D(24,25,26,27)         -0.4861         estimate D2E/DX2                !
 ! D113  D(24,25,26,51)       -179.261          estimate D2E/DX2                !
 ! D114  D(28,25,26,27)        179.827          estimate D2E/DX2                !
 ! D115  D(28,25,26,51)          1.0521         estimate D2E/DX2                !
 ! D116  D(24,25,28,29)         44.3457         estimate D2E/DX2                !
 ! D117  D(24,25,28,33)       -135.5654         estimate D2E/DX2                !
 ! D118  D(26,25,28,29)       -135.976          estimate D2E/DX2                !
 ! D119  D(26,25,28,33)         44.113          estimate D2E/DX2                !
 ! D120  D(25,26,27,22)          0.0736         estimate D2E/DX2                !
 ! D121  D(25,26,27,52)        179.1478         estimate D2E/DX2                !
 ! D122  D(51,26,27,22)        178.8558         estimate D2E/DX2                !
 ! D123  D(51,26,27,52)         -2.07           estimate D2E/DX2                !
 ! D124  D(25,28,29,30)        179.9849         estimate D2E/DX2                !
 ! D125  D(25,28,29,53)          1.1315         estimate D2E/DX2                !
 ! D126  D(33,28,29,30)         -0.1007         estimate D2E/DX2                !
 ! D127  D(33,28,29,53)       -178.9541         estimate D2E/DX2                !
 ! D128  D(25,28,33,32)       -179.7965         estimate D2E/DX2                !
 ! D129  D(25,28,33,56)          1.3039         estimate D2E/DX2                !
 ! D130  D(29,28,33,32)          0.2883         estimate D2E/DX2                !
 ! D131  D(29,28,33,56)       -178.6112         estimate D2E/DX2                !
 ! D132  D(28,29,30,31)         -0.1633         estimate D2E/DX2                !
 ! D133  D(28,29,30,54)       -179.6249         estimate D2E/DX2                !
 ! D134  D(53,29,30,31)        178.6885         estimate D2E/DX2                !
 ! D135  D(53,29,30,54)         -0.7731         estimate D2E/DX2                !
 ! D136  D(29,30,31,32)          0.2726         estimate D2E/DX2                !
 ! D137  D(29,30,31,55)       -179.7236         estimate D2E/DX2                !
 ! D138  D(54,30,31,32)        179.7372         estimate D2E/DX2                !
 ! D139  D(54,30,31,55)         -0.2591         estimate D2E/DX2                !
 ! D140  D(30,31,32,33)         -0.0974         estimate D2E/DX2                !
 ! D141  D(55,31,32,33)        179.899          estimate D2E/DX2                !
 ! D142  D(31,32,33,28)         -0.1922         estimate D2E/DX2                !
 ! D143  D(31,32,33,56)        178.7541         estimate D2E/DX2                !
 --------------------------------------------------------------------------------
 Trust Radius=3.00D-01 FncErr=1.00D-07 GrdErr=1.00D-06
 Number of steps in this run=    312 maximum allowed number of steps=    336.
 GradGradGradGradGradGradGradGradGradGradGradGradGradGradGradGradGradGrad

 Leave Link  103 at Tue Sep  6 22:18:58 2022, MaxMem=  209715200 cpu:       0.1
 (Enter /opt/gaussian/l202.exe)
 Stoichiometry    C27H22ClN5O
 Framework group  C1[X(C27H22ClN5O)]
 Deg. of freedom   162
 Full point group                 C1      NOp   1
 Largest Abelian subgroup         C1      NOp   1
 Largest concise Abelian subgroup C1      NOp   1
                         Standard orientation:                         
 ---------------------------------------------------------------------
 Center     Atomic      Atomic             Coordinates (Angstroms)
 Number     Number       Type             X           Y           Z
 ---------------------------------------------------------------------
      1          6           0       -4.462280    4.402269   -1.120690
      2          6           0       -3.094060    3.916799   -0.707320
      3          6           0       -2.200581    4.769559   -0.070610
      4          6           0       -0.948350    4.302080    0.275730
      5          6           0       -0.543720    3.012930    0.014920
      6          6           0       -1.432530    2.146810   -0.617200
      7          6           0       -2.695630    2.606649   -0.968800
      8          6           0       -1.027610    0.726430   -0.970230
      9          7           0       -0.371369   -0.024550    0.116980
     10          6           0       -1.058859   -0.567300    1.160190
     11          8           0       -0.508039   -1.164180    2.081420
     12          6           0       -2.578209   -0.462111    1.187810
     13          7           0       -3.199749   -1.433311    0.314880
     14          7           0       -3.972019   -1.027181   -0.733980
     15          7           0       -4.475089   -2.040631   -1.309440
     16          6           0       -4.059459   -3.184371   -0.648680
     17          6           0       -4.347758   -4.528721   -0.888810
     18          6           0       -3.784518   -5.450161   -0.041920
     19          6           0       -2.946068   -5.047741    1.023710
     20          6           0       -2.653159   -3.727541    1.268380
     21          6           0       -3.236619   -2.796341    0.401900
     22          6           0        1.050471   -0.225120    0.041670
     23          6           0        1.587481   -0.933490   -1.023500
     24          6           0        2.957731   -1.108379   -1.127300
     25          6           0        3.820111   -0.590849   -0.163000
     26          6           0        3.265681    0.105151    0.910410
     27          6           0        1.897111    0.287970    1.013550
     28          6           0        5.288061   -0.781479   -0.272030
     29          6           0        5.964481   -0.603439   -1.477070
     30          6           0        7.336211   -0.792528   -1.529940
     31          6           0        8.003651   -1.153468   -0.371310
     32          7           0        7.366251   -1.328068    0.784600
     33          6           0        6.049671   -1.150339    0.835560
     34         17           0        0.203639    5.429150    1.103620
     35          1           0       -5.201530    3.616819   -1.026170
     36          1           0       -4.782951    5.239749   -0.514570
     37          1           0       -4.459331    4.726859   -2.156410
     38          1           0       -2.475291    5.780239    0.154230
     39          1           0        0.437650    2.690210    0.292910
     40          1           0       -3.385330    1.933409   -1.443890
     41          1           0       -1.892079    0.185300   -1.320320
     42          1           0       -0.324760    0.754380   -1.789250
     43          1           0       -2.873399   -0.652631    2.208140
     44          1           0       -2.936370    0.508929    0.893780
     45          1           0       -4.984318   -4.813071   -1.702100
     46          1           0       -3.975968   -6.495301   -0.184180
     47          1           0       -2.522288   -5.801781    1.657960
     48          1           0       -2.001469   -3.426881    2.063050
     49          1           0        0.936481   -1.364040   -1.759720
     50          1           0        3.353341   -1.676939   -1.946460
     51          1           0        3.906740    0.524441    1.660970
     52          1           0        1.487740    0.813410    1.852030
     53          1           0        5.426981   -0.303159   -2.355630
     54          1           0        7.875761   -0.654788   -2.445450
     55          1           0        9.062911   -1.306588   -0.360770
     56          1           0        5.586271   -1.324109    1.785190
 ---------------------------------------------------------------------
 Rotational constants (GHZ):      0.1146321      0.0729066      0.0484673
 Leave Link  202 at Tue Sep  6 22:18:58 2022, MaxMem=  209715200 cpu:       0.0
 (Enter /opt/gaussian/l301.exe)
 Standard basis: CC-pVDZ (5D, 7F)
 Ernie: Thresh=  0.10000D-02 Tol=  0.10000D-05 Strict=F.
 Ernie:  76 primitive shells out of 886 were deleted.
 There are   590 symmetry adapted basis functions of A   symmetry.
 Integral buffers will be    131072 words long.
 Raffenetti 2 integral format.
 Two-electron integral symmetry is turned on.
   590 basis functions,  1314 primitive gaussians,   624 cartesian basis functions
   122 alpha electrons      122 beta electrons
       nuclear repulsion energy      3371.9844071772 Hartrees.
 IExCor=  402 DFT=T Ex+Corr=B3LYP ExCW=0 ScaHFX=  0.200000
 ScaDFX=  0.800000  0.720000  1.000000  0.810000 ScalE2=  1.000000  1.000000
 IRadAn=      0 IRanWt=     -1 IRanGd=            0 ICorTp=0
 NAtoms=   56 NActive=   56 NUniq=   56 SFac= 1.00D+00 NAtFMM=   60 NAOKFM=F Big=F
 Leave Link  301 at Tue Sep  6 22:18:58 2022, MaxMem=  209715200 cpu:       0.3
 (Enter /opt/gaussian/l302.exe)
 NPDir=0 NMtPBC=     1 NCelOv=     1 NCel=       1 NClECP=     1 NCelD=      1
         NCelK=      1 NCelE2=     1 NClLst=     1 CellRange=     0.0.
 One-electron integrals computed using PRISM.
 NBasis=   590 RedAO= T  NBF=   590
 NBsUse=   590 1.00D-06 NBFU=   590
 Precomputing XC quadrature grid using
 IXCGrd= 2 IRadAn=           0 IRanWt=          -1 IRanGd=           0 AccXCQ= 0.00D+00.
 NRdTot=    3612 NPtTot=      461776 NUsed=      487801 NTot=      487833
 NSgBfM=   602   602   602   602   602 NAtAll=    56    56.
 Leave Link  302 at Tue Sep  6 22:19:00 2022, MaxMem=  209715200 cpu:       9.3
 (Enter /opt/gaussian/l303.exe)
 DipDrv:  MaxL=1.
 Leave Link  303 at Tue Sep  6 22:19:00 2022, MaxMem=  209715200 cpu:       1.3
 (Enter /opt/gaussian/l401.exe)
 Harris functional with IExCor=  402 diagonalized for initial guess.
 ExpMin= 1.22D-01 ExpMax= 1.28D+05 ExpMxC= 1.24D+03 IAcc=2 IRadAn=         4 AccDes= 0.00D+00
 HarFok:  IExCor=  402 AccDes= 0.00D+00 IRadAn=         4 IDoV= 1
 ScaDFX=  1.000000  1.000000  1.000000  1.000000
 FoFCou: FMM=F IPFlag=           0 FMFlag=      100000 FMFlg1=           0
         NFxFlg=           0 DoJE=T BraDBF=F KetDBF=T FulRan=T
         Omega=  0.000000  0.000000  1.000000  0.000000  0.000000 ICntrl=     500 IOpCl=  0
         NMat0=    1 NMatS0=    1 NMatT0=    0 NMatD0=    1 NMtDS0=    0 NMtDT0=    0
         I1Cent=           4 NGrid=           0.
 Petite list used in FoFCou.
 Harris En= -1851.12981448004    
 Initial guess orbital symmetries:
       Occupied  (A) (A) (A) (A) (A) (A) (A) (A) (A) (A) (A) (A)
                 (A) (A) (A) (A) (A) (A) (A) (A) (A) (A) (A) (A)
                 (A) (A) (A) (A) (A) (A) (A) (A) (A) (A) (A) (A)
                 (A) (A) (A) (A) (A) (A) (A) (A) (A) (A) (A) (A)
                 (A) (A) (A) (A) (A) (A) (A) (A) (A) (A) (A) (A)
                 (A) (A) (A) (A) (A) (A) (A) (A) (A) (A) (A) (A)
                 (A) (A) (A) (A) (A) (A) (A) (A) (A) (A) (A) (A)
                 (A) (A) (A) (A) (A) (A) (A) (A) (A) (A) (A) (A)
                 (A) (A) (A) (A) (A) (A) (A) (A) (A) (A) (A) (A)
                 (A) (A) (A) (A) (A) (A) (A) (A) (A) (A) (A) (A)
                 (A) (A)
       Virtual   (A) (A) (A) (A) (A) (A) (A) (A) (A) (A) (A) (A)
                 (A) (A) (A) (A) (A) (A) (A) (A) (A) (A) (A) (A)
                 (A) (A) (A) (A) (A) (A) (A) (A) (A) (A) (A) (A)
                 (A) (A) (A) (A) (A) (A) (A) (A) (A) (A) (A) (A)
                 (A) (A) (A) (A) (A) (A) (A) (A) (A) (A) (A) (A)
                 (A) (A) (A) (A) (A) (A) (A) (A) (A) (A) (A) (A)
                 (A) (A) (A) (A) (A) (A) (A) (A) (A) (A) (A) (A)
                 (A) (A) (A) (A) (A) (A) (A) (A) (A) (A) (A) (A)
                 (A) (A) (A) (A) (A) (A) (A) (A) (A) (A) (A) (A)
                 (A) (A) (A) (A) (A) (A) (A) (A) (A) (A) (A) (A)
                 (A) (A) (A) (A) (A) (A) (A) (A) (A) (A) (A) (A)
                 (A) (A) (A) (A) (A) (A) (A) (A) (A) (A) (A) (A)
                 (A) (A) (A) (A) (A) (A) (A) (A) (A) (A) (A) (A)
                 (A) (A) (A) (A) (A) (A) (A) (A) (A) (A) (A) (A)
                 (A) (A) (A) (A) (A) (A) (A) (A) (A) (A) (A) (A)
                 (A) (A) (A) (A) (A) (A) (A) (A) (A) (A) (A) (A)
                 (A) (A) (A) (A) (A) (A) (A) (A) (A) (A) (A) (A)
                 (A) (A) (A) (A) (A) (A) (A) (A) (A) (A) (A) (A)
                 (A) (A) (A) (A) (A) (A) (A) (A) (A) (A) (A) (A)
                 (A) (A) (A) (A) (A) (A) (A) (A) (A) (A) (A) (A)
                 (A) (A) (A) (A) (A) (A) (A) (A) (A) (A) (A) (A)
                 (A) (A) (A) (A) (A) (A) (A) (A) (A) (A) (A) (A)
                 (A) (A) (A) (A) (A) (A) (A) (A) (A) (A) (A) (A)
                 (A) (A) (A) (A) (A) (A) (A) (A) (A) (A) (A) (A)
                 (A) (A) (A) (A) (A) (A) (A) (A) (A) (A) (A) (A)
                 (A) (A) (A) (A) (A) (A) (A) (A) (A) (A) (A) (A)
                 (A) (A) (A) (A) (A) (A) (A) (A) (A) (A) (A) (A)
                 (A) (A) (A) (A) (A) (A) (A) (A) (A) (A) (A) (A)
                 (A) (A) (A) (A) (A) (A) (A) (A) (A) (A) (A) (A)
                 (A) (A) (A) (A) (A) (A) (A) (A) (A) (A) (A) (A)
                 (A) (A) (A) (A) (A) (A) (A) (A) (A) (A) (A) (A)
                 (A) (A) (A) (A) (A) (A) (A) (A) (A) (A) (A) (A)
                 (A) (A) (A) (A) (A) (A) (A) (A) (A) (A) (A) (A)
                 (A) (A) (A) (A) (A) (A) (A) (A) (A) (A) (A) (A)
                 (A) (A) (A) (A) (A) (A) (A) (A) (A) (A) (A) (A)
                 (A) (A) (A) (A) (A) (A) (A) (A) (A) (A) (A) (A)
                 (A) (A) (A) (A) (A) (A) (A) (A) (A) (A) (A) (A)
                 (A) (A) (A) (A) (A) (A) (A) (A) (A) (A) (A) (A)
                 (A) (A) (A) (A) (A) (A) (A) (A) (A) (A) (A) (A)
 The electronic state of the initial guess is 1-A.
 Leave Link  401 at Tue Sep  6 22:19:04 2022, MaxMem=  209715200 cpu:      29.1
 (Enter /opt/gaussian/l502.exe)
 Closed shell SCF:
 Requested convergence on RMS density matrix=1.00D-08 within 128 cycles.
 Requested convergence on MAX density matrix=1.00D-06.
 Requested convergence on             energy=1.00D-06.
 No special actions if energy rises.
 Using DIIS extrapolation, IDIIS=  1040.
 Integral symmetry usage will be decided dynamically.
       487284 words used for storage of precomputed grid.
 IEnd=     1683268 IEndB=     1683268 NGot=   209715200 MDV=   208438573
 LenX=   208438573 LenY=   208048573
 Fock matrices will be formed incrementally for  20 cycles.
 Integral accuracy reduced to 1.0D-05 until final iterations.

 Cycle   1  Pass 0  IDiag  1:
 FoFCou: FMM=F IPFlag=           0 FMFlag=      100000 FMFlg1=           0
         NFxFlg=           0 DoJE=F BraDBF=F KetDBF=F FulRan=T
         Omega=  0.000000  0.000000  1.000000  0.000000  0.000000 ICntrl=       0 IOpCl=  0
         NMat0=    1 NMatS0=    1 NMatT0=    0 NMatD0=    1 NMtDS0=    0 NMtDT0=    0
         I1Cent=           0 NGrid=           0.
 Symmetry not used in FoFCou.
 E= -1850.71922525068    
 DIIS: error= 2.35D-02 at cycle   1 NSaved=   1.
 NSaved= 1 IEnMin= 1 EnMin= -1850.71922525068     IErMin= 1 ErrMin= 2.35D-02
 ErrMax= 2.35D-02 EMaxC= 1.00D-01 BMatC= 6.03D-01 BMatP= 6.03D-01
 IDIUse=3 WtCom= 7.65D-01 WtEn= 2.35D-01
 Coeff-Com:  0.100D+01
 Coeff-En:   0.100D+01
 Coeff:      0.100D+01
 Gap=     0.350 Goal=   None    Shift=    0.000
 GapD=    0.350 DampG=1.000 DampE=0.500 DampFc=0.5000 IDamp=-1.
 Damping current iteration by 5.00D-01
 RMSDP=3.81D-03 MaxDP=2.09D-01              OVMax= 3.12D-01

 Cycle   2  Pass 0  IDiag  1:
 RMSU=  1.32D-03    CP:  9.74D-01
 E= -1850.89954300036     Delta-E=       -0.180317749678 Rises=F Damp=T
 DIIS: error= 8.32D-03 at cycle   2 NSaved=   2.
 NSaved= 2 IEnMin= 2 EnMin= -1850.89954300036     IErMin= 2 ErrMin= 8.32D-03
 ErrMax= 8.32D-03 EMaxC= 1.00D-01 BMatC= 1.18D-01 BMatP= 6.03D-01
 IDIUse=3 WtCom= 9.17D-01 WtEn= 8.32D-02
 Coeff-Com:  0.228D+00 0.772D+00
 Coeff-En:   0.335D+00 0.665D+00
 Coeff:      0.237D+00 0.763D+00
 Gap=     0.256 Goal=   None    Shift=    0.000
 RMSDP=1.37D-03 MaxDP=7.99D-02 DE=-1.80D-01 OVMax= 3.04D-01

 Cycle   3  Pass 0  IDiag  1:
 RMSU=  9.35D-04    CP:  9.57D-01  8.64D-01
 E= -1851.24640490859     Delta-E=       -0.346861908235 Rises=F Damp=F
 DIIS: error= 1.19D-02 at cycle   3 NSaved=   3.
 NSaved= 3 IEnMin= 3 EnMin= -1851.24640490859     IErMin= 2 ErrMin= 8.32D-03
 ErrMax= 1.19D-02 EMaxC= 1.00D-01 BMatC= 1.44D-01 BMatP= 1.18D-01
 IDIUse=2 WtCom= 0.00D+00 WtEn= 1.00D+00
 Coeff-En:   0.000D+00 0.000D+00 0.100D+01
 Coeff:      0.000D+00 0.000D+00 0.100D+01
 Gap=     0.234 Goal=   None    Shift=    0.000
 RMSDP=2.16D-03 MaxDP=1.82D-01 DE=-3.47D-01 OVMax= 3.17D-01

 Cycle   4  Pass 0  IDiag  1:
 RMSU=  8.54D-04    CP:  9.62D-01  1.32D+00 -1.95D-01
 E= -1850.50896884785     Delta-E=        0.737436060739 Rises=F Damp=F
 DIIS: error= 2.86D-02 at cycle   4 NSaved=   4.
 NSaved= 4 IEnMin= 3 EnMin= -1851.24640490859     IErMin= 2 ErrMin= 8.32D-03
 ErrMax= 2.86D-02 EMaxC= 1.00D-01 BMatC= 9.94D-01 BMatP= 1.18D-01
 IDIUse=2 WtCom= 0.00D+00 WtEn= 1.00D+00
 Coeff-En:   0.000D+00 0.000D+00 0.810D+00 0.190D+00
 Coeff:      0.000D+00 0.000D+00 0.810D+00 0.190D+00
 Gap=     0.180 Goal=   None    Shift=    0.000
 RMSDP=1.19D-03 MaxDP=9.78D-02 DE= 7.37D-01 OVMax= 1.25D-01

 Cycle   5  Pass 0  IDiag  1:
 RMSU=  1.97D-04    CP:  9.61D-01  1.00D+00  4.09D-01  5.02D-01
 E= -1851.31263857611     Delta-E=       -0.803669728261 Rises=F Damp=F
 DIIS: error= 7.99D-03 at cycle   5 NSaved=   5.
 NSaved= 5 IEnMin= 5 EnMin= -1851.31263857611     IErMin= 5 ErrMin= 7.99D-03
 ErrMax= 7.99D-03 EMaxC= 1.00D-01 BMatC= 7.53D-02 BMatP= 1.18D-01
 IDIUse=3 WtCom= 9.20D-01 WtEn= 7.99D-02
 Coeff-Com:  0.380D-02 0.424D-01 0.354D+00-0.606D-01 0.660D+00
 Coeff-En:   0.000D+00 0.000D+00 0.377D+00 0.000D+00 0.623D+00
 Coeff:      0.350D-02 0.390D-01 0.356D+00-0.558D-01 0.657D+00
 Gap=     0.199 Goal=   None    Shift=    0.000
 RMSDP=4.52D-04 MaxDP=2.88D-02 DE=-8.04D-01 OVMax= 5.82D-02

 Cycle   6  Pass 0  IDiag  1:
 RMSU=  6.70D-05    CP:  9.60D-01  9.32D-01  6.56D-01  2.96D-01  6.78D-01
 E= -1851.38024371839     Delta-E=       -0.067605142279 Rises=F Damp=F
 DIIS: error= 9.06D-04 at cycle   6 NSaved=   6.
 NSaved= 6 IEnMin= 6 EnMin= -1851.38024371839     IErMin= 6 ErrMin= 9.06D-04
 ErrMax= 9.06D-04 EMaxC= 1.00D-01 BMatC= 1.24D-03 BMatP= 7.53D-02
 IDIUse=3 WtCom= 9.91D-01 WtEn= 9.06D-03
 Coeff-Com: -0.364D-02 0.231D-01 0.177D+00-0.622D-01 0.439D+00 0.426D+00
 Coeff-En:   0.000D+00 0.000D+00 0.000D+00 0.000D+00 0.000D+00 0.100D+01
 Coeff:     -0.361D-02 0.229D-01 0.176D+00-0.616D-01 0.435D+00 0.431D+00
 Gap=     0.190 Goal=   None    Shift=    0.000
 RMSDP=5.87D-05 MaxDP=4.35D-03 DE=-6.76D-02 OVMax= 1.05D-02

 Cycle   7  Pass 0  IDiag  1:
 RMSU=  1.88D-05    CP:  9.60D-01  9.37D-01  6.50D-01  2.98D-01  7.58D-01
                    CP:  5.21D-01
 E= -1851.38129751421     Delta-E=       -0.001053795821 Rises=F Damp=F
 DIIS: error= 3.31D-04 at cycle   7 NSaved=   7.
 NSaved= 7 IEnMin= 7 EnMin= -1851.38129751421     IErMin= 7 ErrMin= 3.31D-04
 ErrMax= 3.31D-04 EMaxC= 1.00D-01 BMatC= 7.52D-05 BMatP= 1.24D-03
 IDIUse=3 WtCom= 9.97D-01 WtEn= 3.31D-03
 Coeff-Com: -0.136D-02 0.708D-02 0.648D-01-0.273D-01 0.168D+00 0.216D+00
 Coeff-Com:  0.573D+00
 Coeff-En:   0.000D+00 0.000D+00 0.000D+00 0.000D+00 0.000D+00 0.000D+00
 Coeff-En:   0.100D+01
 Coeff:     -0.135D-02 0.705D-02 0.645D-01-0.272D-01 0.168D+00 0.215D+00
 Coeff:      0.574D+00
 Gap=     0.191 Goal=   None    Shift=    0.000
 RMSDP=1.91D-05 MaxDP=1.92D-03 DE=-1.05D-03 OVMax= 3.00D-03

 Cycle   8  Pass 0  IDiag  1:
 RMSU=  9.96D-06    CP:  9.60D-01  9.36D-01  6.53D-01  2.96D-01  7.60D-01
                    CP:  5.71D-01  5.90D-01
 E= -1851.38134704794     Delta-E=       -0.000049533725 Rises=F Damp=F
 DIIS: error= 1.23D-04 at cycle   8 NSaved=   8.
 NSaved= 8 IEnMin= 8 EnMin= -1851.38134704794     IErMin= 8 ErrMin= 1.23D-04
 ErrMax= 1.23D-04 EMaxC= 1.00D-01 BMatC= 2.36D-05 BMatP= 7.52D-05
 IDIUse=3 WtCom= 9.99D-01 WtEn= 1.23D-03
 Coeff-Com:  0.419D-03-0.189D-02 0.101D-01-0.410D-02 0.209D-01 0.513D-01
 Coeff-Com:  0.406D+00 0.517D+00
 Coeff-En:   0.000D+00 0.000D+00 0.000D+00 0.000D+00 0.000D+00 0.000D+00
 Coeff-En:   0.217D+00 0.783D+00
 Coeff:      0.418D-03-0.189D-02 0.101D-01-0.409D-02 0.209D-01 0.513D-01
 Coeff:      0.406D+00 0.518D+00
 Gap=     0.191 Goal=   None    Shift=    0.000
 RMSDP=9.28D-06 MaxDP=6.62D-04 DE=-4.95D-05 OVMax= 1.37D-03

 Initial convergence to 1.0D-05 achieved.  Increase integral accuracy.
 Cycle   9  Pass 1  IDiag  1:
 E= -1851.38123986355     Delta-E=        0.000107184384 Rises=F Damp=F
 DIIS: error= 1.47D-04 at cycle   1 NSaved=   1.
 NSaved= 1 IEnMin= 1 EnMin= -1851.38123986355     IErMin= 1 ErrMin= 1.47D-04
 ErrMax= 1.47D-04 EMaxC= 1.00D-01 BMatC= 1.76D-05 BMatP= 1.76D-05
 IDIUse=3 WtCom= 9.99D-01 WtEn= 1.47D-03
 Coeff-Com:  0.100D+01
 Coeff-En:   0.100D+01
 Coeff:      0.100D+01
 Gap=     0.191 Goal=   None    Shift=    0.000
 RMSDP=9.28D-06 MaxDP=6.62D-04 DE= 1.07D-04 OVMax= 9.31D-04

 Cycle  10  Pass 1  IDiag  1:
 RMSU=  1.14D-04    CP:  1.00D+00
 E= -1851.38125268662     Delta-E=       -0.000012823071 Rises=F Damp=F
 DIIS: error= 5.62D-05 at cycle   2 NSaved=   2.
 NSaved= 2 IEnMin= 2 EnMin= -1851.38125268662     IErMin= 2 ErrMin= 5.62D-05
 ErrMax= 5.62D-05 EMaxC= 1.00D-01 BMatC= 4.65D-06 BMatP= 1.76D-05
 IDIUse=1 WtCom= 1.00D+00 WtEn= 0.00D+00
 Coeff-Com:  0.256D+00 0.744D+00
 Coeff:      0.256D+00 0.744D+00
 Gap=     0.191 Goal=   None    Shift=    0.000
 RMSDP=8.63D-06 MaxDP=7.58D-04 DE=-1.28D-05 OVMax= 1.54D-03

 Cycle  11  Pass 1  IDiag  1:
 RMSU=  6.05D-06    CP:  1.00D+00  1.01D+00
 E= -1851.38124877436     Delta-E=        0.000003912266 Rises=F Damp=F
 DIIS: error= 8.50D-05 at cycle   3 NSaved=   3.
 NSaved= 3 IEnMin= 2 EnMin= -1851.38125268662     IErMin= 2 ErrMin= 5.62D-05
 ErrMax= 8.50D-05 EMaxC= 1.00D-01 BMatC= 8.73D-06 BMatP= 4.65D-06
 IDIUse=1 WtCom= 1.00D+00 WtEn= 0.00D+00
 Coeff-Com:  0.595D-02 0.577D+00 0.417D+00
 Coeff:      0.595D-02 0.577D+00 0.417D+00
 Gap=     0.191 Goal=   None    Shift=    0.000
 RMSDP=5.20D-06 MaxDP=4.70D-04 DE= 3.91D-06 OVMax= 1.00D-03

 Cycle  12  Pass 1  IDiag  1:
 RMSU=  9.87D-07    CP:  1.00D+00  1.01D+00  4.19D-01
 E= -1851.38125710113     Delta-E=       -0.000008326770 Rises=F Damp=F
 DIIS: error= 1.46D-05 at cycle   4 NSaved=   4.
 NSaved= 4 IEnMin= 4 EnMin= -1851.38125710113     IErMin= 4 ErrMin= 1.46D-05
 ErrMax= 1.46D-05 EMaxC= 1.00D-01 BMatC= 2.29D-07 BMatP= 4.65D-06
 IDIUse=1 WtCom= 1.00D+00 WtEn= 0.00D+00
 Coeff-Com: -0.354D-02 0.353D+00 0.269D+00 0.382D+00
 Coeff:     -0.354D-02 0.353D+00 0.269D+00 0.382D+00
 Gap=     0.191 Goal=   None    Shift=    0.000
 RMSDP=8.70D-07 MaxDP=7.85D-05 DE=-8.33D-06 OVMax= 1.03D-04

 Cycle  13  Pass 1  IDiag  1:
 RMSU=  2.35D-07    CP:  1.00D+00  1.01D+00  4.33D-01  4.31D-01
 E= -1851.38125731182     Delta-E=       -0.000000210690 Rises=F Damp=F
 DIIS: error= 2.34D-06 at cycle   5 NSaved=   5.
 NSaved= 5 IEnMin= 5 EnMin= -1851.38125731182     IErMin= 5 ErrMin= 2.34D-06
 ErrMax= 2.34D-06 EMaxC= 1.00D-01 BMatC= 4.19D-09 BMatP= 2.29D-07
 IDIUse=1 WtCom= 1.00D+00 WtEn= 0.00D+00
 Coeff-Com: -0.226D-02 0.197D+00 0.151D+00 0.229D+00 0.425D+00
 Coeff:     -0.226D-02 0.197D+00 0.151D+00 0.229D+00 0.425D+00
 Gap=     0.191 Goal=   None    Shift=    0.000
 RMSDP=1.26D-07 MaxDP=1.10D-05 DE=-2.11D-07 OVMax= 2.07D-05

 Cycle  14  Pass 1  IDiag  1:
 RMSU=  7.70D-08    CP:  1.00D+00  1.01D+00  4.32D-01  4.40D-01  8.15D-01
 E= -1851.38125731567     Delta-E=       -0.000000003851 Rises=F Damp=F
 DIIS: error= 4.50D-07 at cycle   6 NSaved=   6.
 NSaved= 6 IEnMin= 6 EnMin= -1851.38125731567     IErMin= 6 ErrMin= 4.50D-07
 ErrMax= 4.50D-07 EMaxC= 1.00D-01 BMatC= 2.48D-10 BMatP= 4.19D-09
 IDIUse=1 WtCom= 1.00D+00 WtEn= 0.00D+00
 Coeff-Com: -0.931D-03 0.771D-01 0.593D-01 0.924D-01 0.241D+00 0.531D+00
 Coeff:     -0.931D-03 0.771D-01 0.593D-01 0.924D-01 0.241D+00 0.531D+00
 Gap=     0.191 Goal=   None    Shift=    0.000
 RMSDP=3.76D-08 MaxDP=1.92D-06 DE=-3.85D-09 OVMax= 4.51D-06

 Cycle  15  Pass 1  IDiag  1:
 RMSU=  2.09D-08    CP:  1.00D+00  1.01D+00  4.32D-01  4.44D-01  8.37D-01
                    CP:  8.06D-01
 E= -1851.38125731592     Delta-E=       -0.000000000256 Rises=F Damp=F
 DIIS: error= 2.32D-07 at cycle   7 NSaved=   7.
 NSaved= 7 IEnMin= 7 EnMin= -1851.38125731592     IErMin= 7 ErrMin= 2.32D-07
 ErrMax= 2.32D-07 EMaxC= 1.00D-01 BMatC= 4.81D-11 BMatP= 2.48D-10
 IDIUse=1 WtCom= 1.00D+00 WtEn= 0.00D+00
 Coeff-Com: -0.237D-03 0.182D-01 0.141D-01 0.226D-01 0.891D-01 0.336D+00
 Coeff-Com:  0.520D+00
 Coeff:     -0.237D-03 0.182D-01 0.141D-01 0.226D-01 0.891D-01 0.336D+00
 Coeff:      0.520D+00
 Gap=     0.191 Goal=   None    Shift=    0.000
 RMSDP=1.49D-08 MaxDP=1.50D-06 DE=-2.56D-10 OVMax= 1.45D-06

 Cycle  16  Pass 1  IDiag  1:
 RMSU=  7.22D-09    CP:  1.00D+00  1.01D+00  4.32D-01  4.44D-01  8.42D-01
                    CP:  8.41D-01  6.77D-01
 E= -1851.38125731593     Delta-E=       -0.000000000003 Rises=F Damp=F
 DIIS: error= 1.04D-07 at cycle   8 NSaved=   8.
 NSaved= 8 IEnMin= 8 EnMin= -1851.38125731593     IErMin= 8 ErrMin= 1.04D-07
 ErrMax= 1.04D-07 EMaxC= 1.00D-01 BMatC= 9.78D-12 BMatP= 4.81D-11
 IDIUse=1 WtCom= 1.00D+00 WtEn= 0.00D+00
 Coeff-Com: -0.242D-05-0.821D-03-0.564D-03-0.591D-03 0.204D-01 0.139D+00
 Coeff-Com:  0.352D+00 0.491D+00
 Coeff:     -0.242D-05-0.821D-03-0.564D-03-0.591D-03 0.204D-01 0.139D+00
 Coeff:      0.352D+00 0.491D+00
 Gap=     0.191 Goal=   None    Shift=    0.000
 RMSDP=5.95D-09 MaxDP=6.03D-07 DE=-2.73D-12 OVMax= 6.30D-07

 SCF Done:  E(RB3LYP) =  -1851.38125732     A.U. after   16 cycles
             Convg  =    0.5953D-08             -V/T =  2.0049
 KE= 1.842443646832D+03 PE=-1.106960120873D+04 EE= 4.003791897402D+03
 Leave Link  502 at Tue Sep  6 22:34:14 2022, MaxMem=  209715200 cpu:    7265.1
 (Enter /opt/gaussian/l601.exe)
 Copying SCF densities to generalized density rwf, IOpCl= 0 IROHF=0.

 **********************************************************************

            Population analysis using the SCF density.

 **********************************************************************

 Orbital symmetries:
       Occupied  (A) (A) (A) (A) (A) (A) (A) (A) (A) (A) (A) (A)
                 (A) (A) (A) (A) (A) (A) (A) (A) (A) (A) (A) (A)
                 (A) (A) (A) (A) (A) (A) (A) (A) (A) (A) (A) (A)
                 (A) (A) (A) (A) (A) (A) (A) (A) (A) (A) (A) (A)
                 (A) (A) (A) (A) (A) (A) (A) (A) (A) (A) (A) (A)
                 (A) (A) (A) (A) (A) (A) (A) (A) (A) (A) (A) (A)
                 (A) (A) (A) (A) (A) (A) (A) (A) (A) (A) (A) (A)
                 (A) (A) (A) (A) (A) (A) (A) (A) (A) (A) (A) (A)
                 (A) (A) (A) (A) (A) (A) (A) (A) (A) (A) (A) (A)
                 (A) (A) (A) (A) (A) (A) (A) (A) (A) (A) (A) (A)
                 (A) (A)
       Virtual   (A) (A) (A) (A) (A) (A) (A) (A) (A) (A) (A) (A)
                 (A) (A) (A) (A) (A) (A) (A) (A) (A) (A) (A) (A)
                 (A) (A) (A) (A) (A) (A) (A) (A) (A) (A) (A) (A)
                 (A) (A) (A) (A) (A) (A) (A) (A) (A) (A) (A) (A)
                 (A) (A) (A) (A) (A) (A) (A) (A) (A) (A) (A) (A)
                 (A) (A) (A) (A) (A) (A) (A) (A) (A) (A) (A) (A)
                 (A) (A) (A) (A) (A) (A) (A) (A) (A) (A) (A) (A)
                 (A) (A) (A) (A) (A) (A) (A) (A) (A) (A) (A) (A)
                 (A) (A) (A) (A) (A) (A) (A) (A) (A) (A) (A) (A)
                 (A) (A) (A) (A) (A) (A) (A) (A) (A) (A) (A) (A)
                 (A) (A) (A) (A) (A) (A) (A) (A) (A) (A) (A) (A)
                 (A) (A) (A) (A) (A) (A) (A) (A) (A) (A) (A) (A)
                 (A) (A) (A) (A) (A) (A) (A) (A) (A) (A) (A) (A)
                 (A) (A) (A) (A) (A) (A) (A) (A) (A) (A) (A) (A)
                 (A) (A) (A) (A) (A) (A) (A) (A) (A) (A) (A) (A)
                 (A) (A) (A) (A) (A) (A) (A) (A) (A) (A) (A) (A)
                 (A) (A) (A) (A) (A) (A) (A) (A) (A) (A) (A) (A)
                 (A) (A) (A) (A) (A) (A) (A) (A) (A) (A) (A) (A)
                 (A) (A) (A) (A) (A) (A) (A) (A) (A) (A) (A) (A)
                 (A) (A) (A) (A) (A) (A) (A) (A) (A) (A) (A) (A)
                 (A) (A) (A) (A) (A) (A) (A) (A) (A) (A) (A) (A)
                 (A) (A) (A) (A) (A) (A) (A) (A) (A) (A) (A) (A)
                 (A) (A) (A) (A) (A) (A) (A) (A) (A) (A) (A) (A)
                 (A) (A) (A) (A) (A) (A) (A) (A) (A) (A) (A) (A)
                 (A) (A) (A) (A) (A) (A) (A) (A) (A) (A) (A) (A)
                 (A) (A) (A) (A) (A) (A) (A) (A) (A) (A) (A) (A)
                 (A) (A) (A) (A) (A) (A) (A) (A) (A) (A) (A) (A)
                 (A) (A) (A) (A) (A) (A) (A) (A) (A) (A) (A) (A)
                 (A) (A) (A) (A) (A) (A) (A) (A) (A) (A) (A) (A)
                 (A) (A) (A) (A) (A) (A) (A) (A) (A) (A) (A) (A)
                 (A) (A) (A) (A) (A) (A) (A) (A) (A) (A) (A) (A)
                 (A) (A) (A) (A) (A) (A) (A) (A) (A) (A) (A) (A)
                 (A) (A) (A) (A) (A) (A) (A) (A) (A) (A) (A) (A)
                 (A) (A) (A) (A) (A) (A) (A) (A) (A) (A) (A) (A)
                 (A) (A) (A) (A) (A) (A) (A) (A) (A) (A) (A) (A)
                 (A) (A) (A) (A) (A) (A) (A) (A) (A) (A) (A) (A)
                 (A) (A) (A) (A) (A) (A) (A) (A) (A) (A) (A) (A)
                 (A) (A) (A) (A) (A) (A) (A) (A) (A) (A) (A) (A)
                 (A) (A) (A) (A) (A) (A) (A) (A) (A) (A) (A) (A)
 The electronic state is 1-A.
 Alpha  occ. eigenvalues -- -101.54405 -19.12033 -14.42034 -14.40081 -14.38312
 Alpha  occ. eigenvalues --  -14.35673 -14.32601 -10.30229 -10.25738 -10.25019
 Alpha  occ. eigenvalues --  -10.24444 -10.24079 -10.23603 -10.22276 -10.22235
 Alpha  occ. eigenvalues --  -10.21682 -10.21626 -10.21569 -10.21162 -10.21019
 Alpha  occ. eigenvalues --  -10.20936 -10.20473 -10.20460 -10.20374 -10.20337
 Alpha  occ. eigenvalues --  -10.20272 -10.20181 -10.20145 -10.20129 -10.20114
 Alpha  occ. eigenvalues --  -10.20060 -10.19854 -10.19703 -10.19525  -9.46143
 Alpha  occ. eigenvalues --   -7.22411  -7.21434  -7.21405  -1.11179  -1.05385
 Alpha  occ. eigenvalues --   -0.96398  -0.94998  -0.93686  -0.89943  -0.87959
 Alpha  occ. eigenvalues --   -0.87737  -0.84487  -0.82318  -0.80429  -0.79187
 Alpha  occ. eigenvalues --   -0.78628  -0.77723  -0.76975  -0.76219  -0.75716
 Alpha  occ. eigenvalues --   -0.74086  -0.71496  -0.70870  -0.66280  -0.65800
 Alpha  occ. eigenvalues --   -0.64785  -0.63568  -0.62600  -0.62276  -0.60747
 Alpha  occ. eigenvalues --   -0.60318  -0.60247  -0.57490  -0.54671  -0.54172
 Alpha  occ. eigenvalues --   -0.53708  -0.52996  -0.51932  -0.51447  -0.50111
 Alpha  occ. eigenvalues --   -0.49791  -0.49646  -0.48111  -0.47693  -0.47556
 Alpha  occ. eigenvalues --   -0.46282  -0.45875  -0.45614  -0.45342  -0.45188
 Alpha  occ. eigenvalues --   -0.44129  -0.43858  -0.43663  -0.43369  -0.42910
 Alpha  occ. eigenvalues --   -0.42780  -0.41990  -0.41028  -0.40747  -0.40431
 Alpha  occ. eigenvalues --   -0.40126  -0.39279  -0.39034  -0.38501  -0.38402
 Alpha  occ. eigenvalues --   -0.37476  -0.36849  -0.36723  -0.36470  -0.36248
 Alpha  occ. eigenvalues --   -0.36237  -0.34426  -0.32999  -0.32269  -0.31421
 Alpha  occ. eigenvalues --   -0.30517  -0.28765  -0.27817  -0.27330  -0.27155
 Alpha  occ. eigenvalues --   -0.26533  -0.26294  -0.25975  -0.25648  -0.25452
 Alpha  occ. eigenvalues --   -0.24266  -0.23890
 Alpha virt. eigenvalues --   -0.04828  -0.04725  -0.03102  -0.02882  -0.02443
 Alpha virt. eigenvalues --   -0.02190  -0.00886   0.00148   0.00992   0.01507
 Alpha virt. eigenvalues --    0.02912   0.05919   0.06395   0.06780   0.06953
 Alpha virt. eigenvalues --    0.07880   0.08553   0.09395   0.09984   0.10283
 Alpha virt. eigenvalues --    0.10526   0.10737   0.11058   0.11431   0.11742
 Alpha virt. eigenvalues --    0.12233   0.12821   0.13282   0.13811   0.14143
 Alpha virt. eigenvalues --    0.14887   0.15257   0.15399   0.15578   0.15926
 Alpha virt. eigenvalues --    0.15991   0.17206   0.17333   0.18106   0.19183
 Alpha virt. eigenvalues --    0.20393   0.20873   0.21827   0.22728   0.22999
 Alpha virt. eigenvalues --    0.23303   0.24344   0.24781   0.25889   0.26254
 Alpha virt. eigenvalues --    0.27440   0.28007   0.28571   0.28700   0.29451
 Alpha virt. eigenvalues --    0.30201   0.30430   0.31420   0.31466   0.33054
 Alpha virt. eigenvalues --    0.33569   0.34415   0.34722   0.35496   0.36000
 Alpha virt. eigenvalues --    0.36604   0.37385   0.38034   0.38631   0.39261
 Alpha virt. eigenvalues --    0.41662   0.42365   0.42643   0.42914   0.43314
 Alpha virt. eigenvalues --    0.44280   0.44810   0.45104   0.45211   0.45554
 Alpha virt. eigenvalues --    0.45734   0.46347   0.46474   0.46941   0.47235
 Alpha virt. eigenvalues --    0.47491   0.47730   0.48115   0.48730   0.49021
 Alpha virt. eigenvalues --    0.49164   0.49386   0.49639   0.49957   0.50107
 Alpha virt. eigenvalues --    0.50267   0.50712   0.50898   0.50945   0.51123
 Alpha virt. eigenvalues --    0.51511   0.52082   0.52303   0.52403   0.52954
 Alpha virt. eigenvalues --    0.53480   0.53703   0.53791   0.54256   0.54586
 Alpha virt. eigenvalues --    0.55080   0.55733   0.56132   0.56891   0.57091
 Alpha virt. eigenvalues --    0.57540   0.57871   0.58315   0.58864   0.59287
 Alpha virt. eigenvalues --    0.59369   0.59841   0.60440   0.60783   0.61019
 Alpha virt. eigenvalues --    0.62021   0.62151   0.62462   0.62980   0.63431
 Alpha virt. eigenvalues --    0.63968   0.64294   0.64337   0.64851   0.65233
 Alpha virt. eigenvalues --    0.65439   0.65903   0.66511   0.66843   0.67073
 Alpha virt. eigenvalues --    0.67167   0.67721   0.67987   0.68065   0.68547
 Alpha virt. eigenvalues --    0.68636   0.69108   0.69505   0.70264   0.70487
 Alpha virt. eigenvalues --    0.70784   0.71792   0.71842   0.72479   0.72898
 Alpha virt. eigenvalues --    0.73389   0.73633   0.73836   0.74719   0.75345
 Alpha virt. eigenvalues --    0.76245   0.77498   0.78693   0.79037   0.80229
 Alpha virt. eigenvalues --    0.80905   0.81175   0.82189   0.84167   0.84385
 Alpha virt. eigenvalues --    0.85222   0.85478   0.85998   0.86334   0.86879
 Alpha virt. eigenvalues --    0.87498   0.87829   0.88116   0.88603   0.88865
 Alpha virt. eigenvalues --    0.89215   0.89778   0.90568   0.90993   0.91697
 Alpha virt. eigenvalues --    0.92125   0.92267   0.92384   0.93688   0.93820
 Alpha virt. eigenvalues --    0.93947   0.95349   0.95584   0.96134   0.96917
 Alpha virt. eigenvalues --    0.97349   0.98256   0.98897   0.99010   0.99588
 Alpha virt. eigenvalues --    0.99971   1.00686   1.00813   1.01493   1.01744
 Alpha virt. eigenvalues --    1.02398   1.02636   1.02911   1.03130   1.03693
 Alpha virt. eigenvalues --    1.04309   1.04727   1.04980   1.05720   1.06227
 Alpha virt. eigenvalues --    1.06311   1.06707   1.07051   1.07580   1.07934
 Alpha virt. eigenvalues --    1.08893   1.09317   1.10384   1.10965   1.12282
 Alpha virt. eigenvalues --    1.13041   1.13256   1.13923   1.15173   1.15726
 Alpha virt. eigenvalues --    1.15963   1.16912   1.18041   1.19238   1.19876
 Alpha virt. eigenvalues --    1.20297   1.20512   1.21651   1.23594   1.23764
 Alpha virt. eigenvalues --    1.24831   1.25459   1.26043   1.27720   1.28992
 Alpha virt. eigenvalues --    1.29693   1.30419   1.31231   1.31471   1.32854
 Alpha virt. eigenvalues --    1.34111   1.34607   1.36127   1.36504   1.36897
 Alpha virt. eigenvalues --    1.38497   1.39128   1.40466   1.41622   1.42772
 Alpha virt. eigenvalues --    1.44092   1.44749   1.45281   1.45940   1.46955
 Alpha virt. eigenvalues --    1.47740   1.47779   1.48381   1.49062   1.49438
 Alpha virt. eigenvalues --    1.49490   1.49791   1.50142   1.50858   1.51084
 Alpha virt. eigenvalues --    1.52281   1.52670   1.53406   1.53821   1.55431
 Alpha virt. eigenvalues --    1.55588   1.55978   1.56544   1.57206   1.57843
 Alpha virt. eigenvalues --    1.58433   1.58952   1.59596   1.60049   1.60515
 Alpha virt. eigenvalues --    1.60832   1.61679   1.62024   1.62262   1.62584
 Alpha virt. eigenvalues --    1.62868   1.63286   1.63634   1.63647   1.64162
 Alpha virt. eigenvalues --    1.64787   1.64850   1.65436   1.65581   1.66121
 Alpha virt. eigenvalues --    1.66276   1.66530   1.67716   1.67963   1.68746
 Alpha virt. eigenvalues --    1.69102   1.70098   1.70183   1.70608   1.71146
 Alpha virt. eigenvalues --    1.71723   1.72220   1.72591   1.73212   1.73887
 Alpha virt. eigenvalues --    1.74248   1.74859   1.75405   1.75855   1.76416
 Alpha virt. eigenvalues --    1.76955   1.77127   1.77888   1.78066   1.78364
 Alpha virt. eigenvalues --    1.78805   1.79394   1.80297   1.80764   1.81269
 Alpha virt. eigenvalues --    1.81948   1.82728   1.82874   1.83479   1.83878
 Alpha virt. eigenvalues --    1.84455   1.84604   1.85404   1.85956   1.86050
 Alpha virt. eigenvalues --    1.87032   1.87714   1.87871   1.88417   1.88903
 Alpha virt. eigenvalues --    1.89449   1.89788   1.91177   1.91267   1.92571
 Alpha virt. eigenvalues --    1.93340   1.93843   1.94823   1.95671   1.96840
 Alpha virt. eigenvalues --    1.97244   1.97447   1.98670   1.99073   1.99214
 Alpha virt. eigenvalues --    2.00214   2.00954   2.01580   2.01800   2.02476
 Alpha virt. eigenvalues --    2.03116   2.03417   2.04234   2.04883   2.05708
 Alpha virt. eigenvalues --    2.06129   2.06576   2.07360   2.08436   2.10531
 Alpha virt. eigenvalues --    2.11155   2.12697   2.12883   2.14392   2.15161
 Alpha virt. eigenvalues --    2.15803   2.17390   2.17560   2.18553   2.19172
 Alpha virt. eigenvalues --    2.19687   2.20492   2.21397   2.22724   2.23311
 Alpha virt. eigenvalues --    2.23816   2.25233   2.26302   2.28259   2.30073
 Alpha virt. eigenvalues --    2.30868   2.31571   2.34535   2.35334   2.35995
 Alpha virt. eigenvalues --    2.39065   2.41680   2.41922   2.42351   2.42834
 Alpha virt. eigenvalues --    2.43710   2.43773   2.44274   2.45056   2.47063
 Alpha virt. eigenvalues --    2.47079   2.47800   2.48975   2.49554   2.50209
 Alpha virt. eigenvalues --    2.50435   2.51264   2.52013   2.54043   2.54418
 Alpha virt. eigenvalues --    2.54780   2.55006   2.56277   2.57697   2.58001
 Alpha virt. eigenvalues --    2.61365   2.63953   2.64862   2.67612   2.68671
 Alpha virt. eigenvalues --    2.69307   2.69994   2.70921   2.72938   2.73882
 Alpha virt. eigenvalues --    2.75468   2.75813   2.76493   2.76749   2.77862
 Alpha virt. eigenvalues --    2.78070   2.79744   2.81260   2.82679   2.83447
 Alpha virt. eigenvalues --    2.84503   2.87537   2.88354   2.90239   2.94264
 Alpha virt. eigenvalues --    2.95942   2.99105   2.99763   3.02055   3.09605
 Alpha virt. eigenvalues --    3.11335   3.13708   3.34424   3.40181   3.45987
 Alpha virt. eigenvalues --    3.48920   3.59562   3.59704
          Condensed to atoms (all electrons):
 Mulliken atomic charges:
              1
     1  C    0.080854
     2  C   -0.115332
     3  C    0.155506
     4  C   -0.162910
     5  C    0.165899
     6  C   -0.112484
     7  C    0.051164
     8  C    0.185824
     9  N   -0.273264
    10  C    0.114380
    11  O   -0.268207
    12  C    0.205043
    13  N   -0.249741
    14  N   -0.065747
    15  N   -0.175116
    16  C   -0.004054
    17  C    0.062070
    18  C    0.051907
    19  C    0.055411
    20  C    0.048579
    21  C    0.180133
    22  C    0.055455
    23  C    0.080833
    24  C    0.045135
    25  C    0.025277
    26  C    0.038997
    27  C    0.106666
    28  C   -0.063446
    29  C    0.097561
    30  C   -0.001538
    31  C    0.121829
    32  N   -0.171922
    33  C    0.121356
    34  Cl  -0.108307
    35  H    0.032741
    36  H    0.020744
    37  H    0.045952
    38  H   -0.045048
    39  H   -0.049002
    40  H   -0.048254
    41  H    0.025037
    42  H    0.040824
    43  H    0.037802
    44  H    0.045019
    45  H   -0.032431
    46  H   -0.034968
    47  H   -0.030581
    48  H   -0.019226
    49  H   -0.040617
    50  H   -0.044971
    51  H   -0.040220
    52  H   -0.033478
    53  H   -0.040599
    54  H   -0.034788
    55  H   -0.013391
    56  H   -0.018357
 Sum of Mulliken atomic charges =   0.00000
 Mulliken charges with hydrogens summed into heavy atoms:
              1
     1  C    0.180290
     2  C   -0.115332
     3  C    0.110458
     4  C   -0.162910
     5  C    0.116896
     6  C   -0.112484
     7  C    0.002911
     8  C    0.251685
     9  N   -0.273264
    10  C    0.114380
    11  O   -0.268207
    12  C    0.287863
    13  N   -0.249741
    14  N   -0.065747
    15  N   -0.175116
    16  C   -0.004054
    17  C    0.029639
    18  C    0.016939
    19  C    0.024830
    20  C    0.029353
    21  C    0.180133
    22  C    0.055455
    23  C    0.040216
    24  C    0.000164
    25  C    0.025277
    26  C   -0.001223
    27  C    0.073189
    28  C   -0.063446
    29  C    0.056962
    30  C   -0.036326
    31  C    0.108438
    32  N   -0.171922
    33  C    0.102999
    34  Cl  -0.108307
 Sum of Mulliken charges with hydrogens summed into heavy atoms =   0.00000
 Electronic spatial extent (au):  <R**2>=          21033.5156
 Charge=              0.0000 electrons
 Dipole moment (field-independent basis, Debye):
    X=             -0.9034    Y=              0.2089    Z=             -2.5334  Tot=              2.6977
 Quadrupole moment (field-independent basis, Debye-Ang):
   XX=           -206.8228   YY=           -197.0424   ZZ=           -201.5709
   XY=             -3.3933   XZ=            -18.1631   YZ=             -0.1372
 Traceless Quadrupole moment (field-independent basis, Debye-Ang):
   XX=             -5.0107   YY=              4.7696   ZZ=              0.2411
   XY=             -3.3933   XZ=            -18.1631   YZ=             -0.1372
 Octapole moment (field-independent basis, Debye-Ang**2):
  XXX=              6.7214  YYY=            -76.3509  ZZZ=             -2.2805  XYY=           -112.4001
  XXY=             71.1790  XXZ=            -78.3708  XZZ=             17.3384  YZZ=              5.9963
  YYZ=            -12.4310  XYZ=             31.4716
 Hexadecapole moment (field-independent basis, Debye-Ang**3):
 XXXX=         -17466.7911 YYYY=          -9839.7554 ZZZZ=          -1413.0334 XXXY=            -22.2779
 XXXZ=           -929.7955 YYYX=            111.9017 YYYZ=            -73.9556 ZZZX=            -56.9508
 ZZZY=             28.1252 XXYY=          -4389.8186 XXZZ=          -3069.6343 YYZZ=          -1962.2287
 XXYZ=            119.2739 YYXZ=             72.2005 ZZXY=              0.8209
 N-N= 3.371984407177D+03 E-N=-1.106960124481D+04  KE= 1.842443646832D+03
 No NMR shielding tensors so no spin-rotation constants.
 Leave Link  601 at Tue Sep  6 22:34:14 2022, MaxMem=  209715200 cpu:       4.5
 (Enter /opt/gaussian/l701.exe)
 Compute integral first derivatives.
 ... and contract with generalized density number  0.
 Leave Link  701 at Tue Sep  6 22:34:15 2022, MaxMem=  209715200 cpu:       3.9
 (Enter /opt/gaussian/l702.exe)
 L702 exits ... SP integral derivatives will be done elsewhere.
 Leave Link  702 at Tue Sep  6 22:34:15 2022, MaxMem=  209715200 cpu:       0.2
 (Enter /opt/gaussian/l703.exe)
 Compute integral first derivatives, UseDBF=F ICtDFT=           0.
 Integral derivatives from FoFDir, PRISM(SPDF).
 Calling FoFJK, ICntrl=      2127 FMM=F ISym2X=0 I1Cent= 0 IOpClX= 0 NMat=1 NMatS=1 NMatT=0.
 FoFCou: FMM=F IPFlag=           0 FMFlag=      100000 FMFlg1=         800
         NFxFlg=           0 DoJE=F BraDBF=F KetDBF=F FulRan=T
         Omega=  0.000000  0.000000  1.000000  0.000000  0.000000 ICntrl=    2127 IOpCl=  0
         NMat0=    1 NMatS0=    1 NMatT0=    0 NMatD0=    1 NMtDS0=    0 NMtDT0=    0
         I1Cent=           0 NGrid=           0.
 Symmetry not used in FoFCou.
 Leave Link  703 at Tue Sep  6 22:39:15 2022, MaxMem=  209715200 cpu:    2392.6
 (Enter /opt/gaussian/l716.exe)
 Dipole        =-3.55420085D-01 8.21918295D-02-9.96698506D-01
 ***** Axes restored to original set *****
 -------------------------------------------------------------------
 Center     Atomic                   Forces (Hartrees/Bohr)
 Number     Number              X              Y              Z
 -------------------------------------------------------------------
      1        6           0.010341378   -0.003634829    0.004450890
      2        6          -0.008388632    0.001985539   -0.002749575
      3        6          -0.001116767   -0.000498908   -0.000794076
      4        6           0.017401488    0.018088711    0.012765395
      5        6          -0.000322697   -0.002740627   -0.001035988
      6        6           0.001659917   -0.006603929   -0.001912294
      7        6           0.000969071    0.001932363    0.000830774
      8        6           0.001058487    0.004623513    0.011809056
[...]
 00044,0.00000036,-0.00000152,0.00000095,0.00000240,0.00000616,-0.00000
 394,0.00000676,-0.00002180,-0.00001035,-0.00008857,0.00044440,0.000453
 13,-0.00001684,0.00004718,0.00008653,0.00001836,0.00001327,-0.00000555
 ,0.11670007,-0.09209361,0.24721807,0.00000083,0.,0.00000007,0.00000347
 ,-0.00000333,0.00000275,-0.00000300,0.00000722,0.00000024,-0.00001210,
 -0.00001726,-0.00001123,0.00000883,0.00001084,0.00000564,-0.00000414,-
 0.00000697,-0.00001511,0.00000083,0.00001376,0.00000218,0.00001219,-0.
 00002276,0.00005066,-0.00012465,-0.00001085,0.00002862,0.00004780,0.00
 003166,-0.00009584,-0.00002696,-0.00002777,0.00003599,0.00001182,0.000
 01382,0.00001347,-0.00001909,-0.00000259,-0.00001327,0.00001179,-0.000
 00565,0.00002661,-0.00000810,-0.00001701,-0.00001205,-0.00000252,0.000
 00303,-0.00000451,0.00000134,0.00000011,0.00000146,-0.00000071,-0.0000
 0063,-0.00000148,0.,0.00000342,0.00000108,0.00000041,-0.00000467,0.000
 00393,-0.00000085,0.00001654,-0.00000621,0.00009175,-0.00000286,-0.000
 00220,-0.00003191,0.00000440,-0.00001624,-0.00001600,0.00008897,0.0000
 5665,0.00019815,-0.00030160,0.00144082,-0.00044836,-0.00004724,-0.0001
 2893,-0.00002105,0.00012423,0.00006082,-0.00488396,0.00214417,-0.00108
 510,-0.01036002,-0.00700600,0.02692085,-0.13326963,-0.02565046,0.12241
 870,0.01165181,0.00260039,-0.01276235,0.00006788,0.00207165,-0.0033266
 7,-0.00143766,0.00038939,-0.00080156,0.00000651,0.00001036,0.00000479,
 -0.00000089,0.00000017,0.00000015,-0.00000129,0.00000155,0.00000056,-0
 .00000218,0.00000071,-0.00000186,-0.00000152,0.00000136,0.00000069,-0.
 00000118,-0.00001175,0.00000031,0.00000027,-0.00000162,0.00000079,-0.0
 0000637,0.00000766,-0.00000400,0.00000358,-0.00000244,0.00000799,-0.00
 000565,-0.00000154,-0.00000148,-0.00000439,-0.00000253,-0.00000053,-0.
 00000092,-0.00000039,-0.00000076,-0.00000049,-0.00000179,-0.00000011,0
 .00000064,-0.00000009,0.00000054,0.00000295,0.00000430,-0.00000321,-0.
 00002812,-0.00000370,-0.00000630,0.00000462,-0.00003144,-0.00000424,0.
 00001627,-0.00002544,0.00001450,-0.00004382,0.00001035,0.00000490,0.00
 109540,-0.00063668,-0.00046073,0.13696599,0.00000017,-0.00000056,-0.00
 000065,0.00000150,0.00000043,0.00000114,-0.00000264,-0.00000283,-0.000
 00196,0.00000759,0.00000697,0.00000643,-0.00000056,-0.00000377,-0.0000
 0031,0.00000038,0.00000194,0.00000187,-0.00000119,-0.00000075,-0.00000
 005,0.00000191,0.00000410,-0.00000155,-0.00001372,-0.00001445,0.000010
 41,0.00000684,0.00000510,-0.00000924,-0.00000367,-0.00000549,0.0000029
 0,0.00000156,0.00000408,0.00000299,-0.00000326,-0.00000154,-0.00000323
 ,0.00000197,-0.00000354,0.00000494,-0.00000121,-0.00000269,-0.00000213
 ,-0.00000054,0.00000014,-0.00000081,0.00000052,0.00000083,-0.00000014,
 0.00000081,-0.00000051,0.00000001,0.00000031,-0.00000010,-0.00000020,0
 .00000066,-0.00000069,0.00000035,-0.00000042,0.00000393,-0.00000115,0.
 00002363,0.00001355,0.00000835,-0.00000806,0.00001246,0.00001438,-0.00
 000901,-0.00008999,0.00000738,0.00006715,0.00041383,-0.00012721,-0.000
 01320,-0.00010194,0.00003857,-0.00004870,-0.00001141,-0.00003550,0.002
 18876,0.00738868,0.00192621,0.00259672,0.00362359,-0.00374100,-0.02562
 371,-0.04970948,0.05221604,-0.00717182,0.00001883,0.00625440,0.0015856
 8,0.00634286,0.00409655,0.00084210,-0.00039558,-0.00006837,-0.00000606
 ,-0.00000497,-0.00000354,-0.00000079,-0.00000017,0.00000022,0.00000006
 ,0.00000019,-0.00000003,-0.00000007,0.00000058,-0.00000022,0.00000066,
 0.00000010,-0.00000021,0.00000084,0.00000217,-0.00000124,-0.00000048,0
 .00000024,-0.00000072,0.00000010,0.,0.00000017,0.00000116,0.00000099,0
 .00000054,-0.00000053,-0.00000033,-0.00000054,0.00000058,0.00000030,-0
 .00000033,-0.00000066,0.00000012,-0.00000008,-0.00000064,-0.00000065,0
 .00000024,-0.00000016,-0.00000005,0.00000071,0.00000017,0.00000091,0.,
 -0.00000131,0.00000305,-0.00000049,-0.00004846,0.00001789,0.00002072,-
 0.00001238,-0.00001428,-0.00001770,0.00000387,0.00000878,-0.00000182,-
 0.00083218,-0.00359627,-0.00147475,0.02711833,0.04027332,-0.00000086,0
 .00000022,0.00000057,-0.00000395,0.00000365,-0.00000251,0.00000176,-0.
 00000618,-0.00000091,0.00001269,0.00001826,0.00001213,-0.00000593,-0.0
 0000996,-0.00000590,0.00000203,0.00000691,0.00001059,-0.00000009,-0.00
 001154,-0.00000261,-0.00001106,0.00001840,-0.00003243,0.00008506,-0.00
 000159,-0.00002534,-0.00003897,-0.00002169,0.00006729,0.00002411,0.000
 01823,-0.00002743,-0.00000854,-0.00000881,-0.00000786,0.00001459,0.000
 00181,0.00000947,-0.00000729,0.00000429,-0.00001992,0.00000684,0.00001
 215,0.00000792,0.00000156,-0.00000238,0.00000361,-0.00000078,-0.000000
 24,-0.00000156,0.00000097,-0.00000027,0.00000049,0.00000066,-0.0000025
 9,-0.00000099,0.00000040,0.00000329,-0.00000325,0.00000015,-0.00001140
 ,0.00000469,-0.00006257,0.00000013,0.00000520,0.00000456,0.00001054,-0
 .00001162,0.00005531,-0.00003536,-0.00001939,-0.00037455,0.00013328,0.
 00009744,-0.00001290,0.00000636,0.00003565,0.00000158,-0.00000745,0.00
 001252,-0.00034087,0.00171599,0.00275569,-0.00239272,0.00020851,0.0032
 7750,0.12251427,0.05192318,-0.25130573,0.01830949,0.00243097,-0.014209
 32,-0.00293056,0.00409347,-0.00381983,-0.00194216,0.00001379,0.0004476
 5,-0.00000706,-0.00001080,-0.00000614,0.00000083,0.00000005,-0.0000000
 2,0.00000106,-0.00000178,-0.00000077,0.00000150,-0.00000033,0.00000137
 ,0.00000125,-0.00000131,-0.00000028,0.00000078,0.00000869,0.00000129,-
 0.00000097,0.00000120,-0.00000025,0.00000359,-0.00000567,0.00000289,-0
 .00000202,0.00000093,-0.00000525,0.00000378,0.00000156,0.00000090,0.00
 000304,0.00000194,0.00000086,0.00000013,0.00000014,0.00000096,-0.00000
 009,0.00000147,0.00000041,-0.00000111,-0.00000012,-0.00000009,-0.00000
 296,-0.00000293,0.00000283,0.00001057,0.00000158,0.00000688,-0.0000279
 3,-0.00000952,-0.00000839,-0.00001061,0.00000855,0.00000472,0.00000465
 ,0.00000032,-0.00000290,0.00010313,-0.00147173,0.00035965,-0.13270092,
 -0.05748682,0.26228355,0.00000133,-0.00000063,-0.00000135,0.00000635,-
 0.00000442,0.00000397,-0.00000398,0.00000610,-0.00000002,-0.00001166,-
 0.00001948,-0.00001167,0.00000771,0.00001052,0.00000775,-0.00000153,-0
 .00000748,-0.00001056,-0.00000115,0.00001383,0.00000331,0.00001446,-0.
 00002332,0.00003530,-0.00010839,-0.00000274,0.00003405,0.00005616,0.00
 003219,-0.00008347,-0.00003523,-0.00002614,0.00003504,0.00001160,0.000
 01342,0.00000989,-0.00002047,-0.00000345,-0.00001341,0.00000968,-0.000
 00802,0.00002793,-0.00000946,-0.00001638,-0.00001084,-0.00000203,0.000
 00279,-0.00000478,0.00000125,0.00000108,0.00000208,-0.00000077,0.00000
 002,-0.00000015,-0.00000111,0.00000357,0.00000080,-0.00000051,-0.00000
 465,0.00000432,-0.00000022,0.00001693,-0.00000668,0.00008870,0.0000049
 4,0.00001400,0.00000467,-0.00002291,-0.00001587,-0.00010291,0.00002706
 ,0.00001607,0.00006712,-0.00020081,-0.00018852,0.00000191,0.00000927,-
 0.00000190,-0.00002201,0.00003212,-0.00003727,0.00027823,-0.00000600,-
 0.00016850,0.00063358,0.00164402,-0.00261006,-0.00986781,0.00122815,0.
 00314745,-0.32182233,0.04191765,-0.01337601,-0.01608873,-0.00156146,0.
 01017082,0.00202596,0.00052241,0.00174546,0.00000503,0.00001093,0.0000
 0584,-0.00000171,-0.00000026,0.00000012,-0.00000130,0.00000245,0.00000
 099,-0.00000201,0.00000076,-0.00000183,-0.00000118,0.00000182,0.000000
 15,0.00000002,-0.00000962,-0.00000258,0.00000095,-0.00000141,-0.000000
 24,-0.00000404,0.00000696,-0.00000370,0.00000367,-0.00000090,0.0000070
 0,-0.00000470,-0.00000235,-0.00000134,-0.00000346,-0.00000224,-0.00000
 145,-0.00000034,-0.00000012,-0.00000140,-0.00000018,-0.00000228,-0.000
 00060,0.00000142,-0.00000004,0.00000043,0.00000400,0.00000442,-0.00000
 392,-0.00001836,-0.00000500,-0.00000671,0.00002001,0.00002620,0.000014
 88,0.00001372,-0.00004055,-0.00002166,-0.00000699,0.00000181,0.0000059
 7,-0.00060587,-0.00001764,0.00018012,0.00042787,-0.00032155,-0.0004543
 4,0.34548839,-0.00000033,-0.00000014,0.,-0.00000118,0.00000161,-0.0000
 0079,-0.00000039,-0.00000405,-0.00000135,0.00000941,0.00001282,0.00000
 885,-0.00000191,-0.00000617,-0.00000290,0.00000067,0.00000415,0.000005
 16,-0.00000098,-0.00000546,-0.00000129,-0.00000646,0.00001018,-0.00001
 454,0.00004382,0.00000169,-0.00003222,-0.00000756,-0.00001564,0.000046
 46,-0.00000154,0.00001095,-0.00001772,-0.00000325,-0.00000243,-0.00000
 452,0.00000434,0.00000006,0.00000247,-0.00000209,0.00000007,-0.0000062
 5,0.00000234,0.00000390,0.00000233,0.00000039,-0.00000080,0.00000112,-
 0.00000014,0.00000025,-0.00000081,0.00000086,-0.00000024,0.00000022,0.
 00000037,-0.00000102,-0.00000071,0.00000065,0.00000112,-0.00000106,-0.
 00000024,-0.00000321,0.00000152,0.00001305,0.00004729,0.00017095,0.000
 10391,-0.00002707,-0.00019526,-0.00029933,0.00006359,0.00013046,-0.000
 49327,-0.00145861,-0.00051877,0.00031914,-0.00000587,-0.00007543,-0.00
 016107,0.00002132,-0.00010199,0.00000479,-0.00055228,0.00032057,0.0012
 6066,0.00568086,0.00357059,0.01012308,0.00484981,0.00039462,0.04202960
 ,-0.04809392,0.00562265,-0.00898705,-0.00271279,-0.00088009,-0.0002898
 3,0.00930118,0.00346772,-0.00000619,-0.00000744,-0.00000510,0.00000007
 ,0.,0.00000009,0.00000049,-0.00000075,-0.00000032,0.00000052,0.0000001
 1,0.00000041,0.00000080,-0.00000054,-0.00000006,0.00000058,0.00000448,
 0.00000108,-0.00000076,0.00000056,-0.00000031,0.00000198,-0.00000253,0
 .00000069,-0.00000068,-0.00000010,-0.00000238,0.00000237,0.00000060,0.
 ,0.00000145,0.00000102,0.00000031,-0.00000025,0.00000015,0.00000037,-0
 .00000043,0.00000028,0.00000025,-0.00000056,0.,0.00000042,-0.00000116,
 -0.00000082,0.00000133,-0.00001811,-0.00000593,0.00000513,-0.00001914,
 -0.00000860,-0.00003574,0.00002018,-0.00002636,-0.00003068,0.00000592,
 -0.00001146,-0.00000003,0.00049612,-0.00035149,-0.00010463,-0.00057869
 ,-0.00260152,-0.00103816,-0.04340553,0.03538592,-0.00000019,-0.0000001
 0,-0.00000002,-0.00000049,0.00000085,-0.00000055,0.00000014,-0.0000023
 1,-0.00000067,0.00000482,0.00000638,0.00000441,-0.00000156,-0.00000348
 ,-0.00000129,0.00000123,0.00000227,0.00000417,-0.00000062,-0.00000361,
 -0.00000073,-0.00000237,0.00000711,-0.00001343,0.00003141,-0.00000053,
 -0.00000848,-0.00001028,-0.00000686,0.00002575,0.00000507,0.00000596,-
 0.00000871,-0.00000274,-0.00000324,-0.00000304,0.00000385,0.00000035,0
 .00000233,-0.00000215,0.00000097,-0.00000552,0.00000188,0.00000346,0.0
 0000231,0.00000046,-0.00000069,0.00000097,-0.00000008,0.00000011,-0.00
 000039,0.00000041,-0.00000002,0.00000010,0.00000044,-0.00000109,-0.000
 00017,0.00000023,0.00000098,-0.00000122,-0.00000005,-0.00000320,0.0000
 0132,-0.00000001,0.00003419,0.00008567,0.00008911,-0.00000258,-0.00004
 043,-0.00007019,-0.00004523,-0.00001650,-0.00014972,-0.00052871,0.0001
 4752,0.00010913,-0.00004248,-0.00004976,-0.00009437,0.00002109,-0.0000
 0616,0.00054467,-0.00001973,-0.00077674,-0.00146307,0.00355537,-0.0036
 8203,-0.02505235,0.00391585,0.00443579,-0.01364064,0.00603545,-0.05390
 609,0.03413796,-0.00452352,-0.00450856,0.00390792,0.00342981,-0.002269
 91,-0.00000313,-0.00000387,-0.00000241,0.00000007,0.00000004,0.0000000
 5,0.00000027,-0.00000046,-0.00000011,0.00000036,-0.00000003,0.00000024
 ,0.00000040,-0.00000034,0.,0.00000043,0.00000317,-0.00000028,-0.000000
 37,0.00000036,-0.00000019,0.00000167,-0.00000219,0.00000130,-0.0000001
 0,0.00000059,-0.00000180,0.00000149,0.00000042,0.00000021,0.00000138,0
 .00000069,0.00000020,-0.00000007,0.00000009,0.00000027,-0.00000009,0.0
 0000034,0.00000026,-0.00000041,0.00000002,0.00000011,-0.00000110,-0.00
 000094,0.00000111,0.00000248,-0.00000063,0.00000101,0.00001260,0.00003
 477,0.00002390,-0.00000509,0.00002773,0.00002159,0.00000072,-0.0000043
 1,-0.00000120,-0.00134218,0.00010108,0.00005173,0.00035515,-0.00110896
 ,0.00033535,0.00164180,-0.01089318,0.06010475,-0.00000093,-0.00000013,
 0.00000052,-0.00000340,0.00000328,-0.00000209,0.00000137,-0.00000706,-
 0.00000186,0.00001491,0.00002107,0.00001385,-0.00000537,-0.00001115,-0
 .00000588,0.00000262,0.00000842,0.00000875,-0.00000105,-0.00001192,-0.
 00000341,-0.00001264,0.00002253,-0.00002850,0.00010497,0.00001663,-0.0
 0004402,-0.00004076,-0.00003217,0.00008574,0.00002271,0.00002449,-0.00
 003161,-0.00001010,-0.00001408,-0.00000901,0.00001582,0.00000286,0.000
 00935,-0.00000713,0.00000791,-0.00002188,0.00000698,0.00001231,0.00000
 819,0.00000166,-0.00000194,0.00000368,-0.00000080,-0.00000127,-0.00000
 141,0.00000037,0.00000110,-0.00000034,0.00000170,-0.00000396,0.0000005
 3,0.00000072,0.00000406,-0.00000384,-0.00000038,-0.00001513,0.00000533
 ,-0.00006035,0.00006899,0.00030823,0.00023540,-0.00004303,-0.00014370,
 -0.00018020,-0.00012327,-0.00008308,0.00100780,-0.00031755,-0.00055032
 ,-0.00020636,0.00058035,0.00004762,-0.00044456,-0.00015347,-0.00006268
 ,0.00873812,0.00447992,-0.01318757,-0.00144271,0.00197872,-0.00257423,
 -0.00069138,-0.00007479,0.00009635,-0.00389214,0.00172820,0.00085814,-
 0.02648125,-0.00657070,0.02890316,-0.09912149,-0.02757517,0.09969139,-
 0.00000861,-0.00001185,-0.00000800,0.00000089,0.00000026,0.00000007,0.
 00000099,-0.00000178,-0.00000046,0.00000124,-0.00000036,0.00000092,0.0
 0000115,-0.00000137,0.00000021,0.00000058,0.00001028,0.00000168,-0.000
 00117,0.00000099,0.,0.00000418,-0.00000644,0.00000257,-0.00000037,0.00
 000099,-0.00000935,0.00000509,0.00000209,0.00000084,0.00000433,0.00000
 211,0.00000133,0.00000005,0.00000019,0.00000091,0.00000028,0.00000162,
 0.00000076,-0.00000084,0.00000085,-0.00000039,-0.00000359,-0.00000470,
 0.00000422,0.00001056,0.00000708,0.00000273,0.00000344,0.00002134,0.00
 001443,-0.00056136,0.00071605,-0.00018957,0.00001123,0.00004710,-0.000
 02177,0.00051458,0.00021541,-0.00089057,0.00013451,-0.00032706,0.00017
 150,-0.00042332,-0.00015943,0.00098586,0.12275408,0.00000101,-0.000000
 88,-0.00000144,0.00000494,-0.00000224,0.00000385,-0.00000580,0.0000011
 3,-0.00000265,0.00000091,-0.00000242,0.00000013,0.00001021,0.00000251,
 0.00000345,-0.00000166,-0.00000176,-0.00000641,-0.00000295,0.00000815,
 0.00000153,-0.00000177,-0.00002107,0.00002854,-0.00006872,-0.00000546,
 -0.00003564,0.00005964,0.00003073,-0.00004838,-0.00004436,-0.00003960,
 0.00002209,0.00001091,0.00001798,0.00001148,-0.00001808,-0.00000545,-0
 .00001325,0.00000915,-0.00001421,0.00002558,-0.00000744,-0.00001383,-0
 .00000981,-0.00000237,0.00000095,-0.00000431,0.00000149,0.00000306,0.0
 0000097,0.00000116,-0.00000355,0.00000031,-0.00000063,0.00000298,-0.00
 000228,0.00000165,-0.00000520,0.00000252,-0.00000072,0.00002225,-0.000
 00649,0.00004707,0.00009321,0.00030996,0.00022762,-0.00004224,-0.00027
 843,-0.00046776,0.00009224,-0.00031417,0.00043154,-0.00211887,-0.00083
 286,0.00079796,-0.00005167,0.00085777,-0.00029378,-0.00014268,-0.00045
 745,-0.00610378,0.00461233,0.00867461,0.00265917,0.00495121,0.00284415
 ,-0.00009756,-0.00034838,-0.00041065,0.00269210,0.00952284,0.00262370,
 0.00155809,-0.00194121,-0.00741378,-0.02700329,-0.05954529,0.06440309,
 -0.00000414,0.00000140,-0.00000252,-0.00000191,-0.00000005,0.00000025,
 -0.00000092,0.00000153,0.00000065,-0.00000204,0.00000112,-0.00000177,-
 0.00000055,0.00000127,0.00000040,0.00000151,-0.00000632,0.00000152,-0.
 00000050,-0.00000061,-0.00000081,-0.00000504,0.00000806,-0.00000624,0.
 00000582,-0.00000151,0.00000454,-0.00000366,-0.00000117,-0.00000189,-0
 .00000224,-0.00000131,-0.00000095,-0.00000075,-0.00000020,-0.00000055,
 -0.00000134,-0.00000194,-0.00000022,-0.00000094,-0.00000202,0.00000214
 ,0.00000075,0.00000726,-0.00000209,-0.00000662,-0.00002227,-0.00000130
 ,-0.00007315,-0.00007324,-0.00004652,0.00065970,-0.00055136,-0.0003456
 2,0.00003852,-0.00001001,0.00001355,-0.00040236,-0.00034048,0.00033373
 ,-0.00025262,-0.00158638,-0.00050127,0.00017595,0.00050327,0.00001280,
 0.02548256,0.04701941,-0.00000085,0.00000040,0.00000044,-0.00000521,0.
 00000448,-0.00000244,0.00000235,-0.00000738,-0.00000116,0.00001430,0.0
 0002031,0.00001444,-0.00000840,-0.00001083,-0.00000430,0.00000145,0.00
 000709,0.00000804,0.,-0.00001341,-0.00000170,-0.00001114,0.00004476,-0
 .00003159,0.00010186,0.00000558,0.00001105,-0.00006033,-0.00000936,0.0
 0002012,0.00005405,0.00000527,0.00000217,-0.00000874,-0.00001456,-0.00
 000662,0.00001813,0.00000099,0.00001259,-0.00001113,0.00000071,-0.0000
 2542,0.00000893,0.00001736,0.00001150,0.00000189,-0.00000401,0.0000042
 7,-0.00000085,0.00000149,-0.00000224,0.00000228,-0.00000221,0.00000140
 ,0.00000113,-0.00000465,-0.00000284,0.00000166,0.00000413,-0.00000583,
 0.00000048,-0.00001011,0.00000574,-0.00004953,0.00020305,0.00029731,0.
 00040730,-0.00009329,-0.00013614,-0.00082545,-0.00012909,-0.00031152,0
 .00202099,-0.00109772,-0.00001246,0.00006907,-0.00069766,-0.00014428,-
 0.00039498,-0.00005492,0.00029012,0.01246379,0.00587951,-0.01591579,-0
 .00338279,0.00319788,-0.00195233,-0.00089985,0.00000118,0.00005663,-0.
 00126476,0.00257834,0.00417317,0.00524594,-0.00388485,0.00427501,0.098
 88313,0.06334449,-0.26241996,-0.00000804,-0.00001286,-0.00000621,0.000
 00092,-0.00000001,-0.00000004,0.00000131,-0.00000207,-0.00000086,0.000
 00223,-0.00000058,0.00000191,0.00000165,-0.00000156,-0.00000075,-0.000
 00003,0.00001322,-0.00000344,-0.00000061,0.00000204,-0.00000128,0.0000
 0602,-0.00000794,0.00000530,-0.00000446,0.00000207,-0.00000941,0.00000
 271,0.00000220,0.00000104,0.00000575,0.00000243,0.00000094,0.00000032,
 0.00000028,0.00000134,-0.00000055,0.00000193,0.00000069,-0.00000268,-0
 .00000134,0.00000108,-0.00000572,-0.00000199,0.00000508,-0.00001476,0.
 00001879,-0.00000487,0.00004362,0.00006158,0.00007434,0.00037781,0.000
 33852,0.00058920,-0.00002034,-0.00002664,0.00000033,0.00066208,0.00007
 653,-0.00102863,0.00000600,-0.00052456,-0.00022941,-0.00007473,0.00021
 052,0.00005396,-0.11335330,-0.06943353,0.27234230\\0.00000059,-0.00000
 135,-0.00000539,-0.00000057,-0.00000011,-0.00000483,-0.00000312,-0.000
 00053,-0.00000156,0.00000102,0.00000008,0.00000067,-0.00000031,0.00000
 084,-0.00000128,-0.00000294,-0.00000150,-0.00000210,0.00000148,-0.0000
 0012,-0.00000126,-0.00000048,0.00000114,-0.00000139,-0.00000021,0.0000
 0073,0.00000275,0.00000035,0.00000015,-0.00000085,0.00000065,-0.000000
 33,0.00000001,-0.00000121,0.00000108,0.00000035,0.00000172,-0.00000086
 ,-0.00000217,0.00000134,0.00000074,-0.00000051,0.00000133,-0.00000237,
 -0.00000221,-0.00000104,-0.00000101,0.00000186,0.00000109,-0.00000135,
 0.00000144,0.00000206,-0.00000030,0.00000189,0.00000033,0.00000003,0.0
 0000056,0.00000163,-0.00000043,-0.00000023,0.00000039,-0.00000165,0.00
 000150,-0.00000058,0.00000002,-0.00000130,0.00000031,0.00000006,0.0000
 0194,0.00000060,0.00000080,0.00000172,0.00000116,0.00000082,0.00000017
 ,-0.00000179,0.00000143,0.00000108,0.00000063,0.00000035,-0.00000033,-
 0.00000141,0.00000150,0.00000172,0.00000076,0.00000079,0.00000182,0.00
 000052,0.00000122,0.00000245,-0.00000132,0.00000240,0.00000194,0.00000
 079,0.00000176,0.00000384,0.00000136,0.00000248,0.00000044,-0.00000279
 ,-0.00000027,-0.00000332,-0.00000223,-0.00000210,-0.00000150,-0.000002
 49,-0.00000167,-0.00000206,-0.00000046,-0.00000304,-0.00000216,-0.0000
 0123,0.00000036,-0.00000314,-0.00000031,0.00000008,-0.00000106,-0.0000
 0101,-0.00000173,-0.00000259,-0.00000117,-0.00000228,-0.00000044,0.000
 00088,-0.00000113,-0.00000075,-0.00000033,-0.00000017,0.00000072,-0.00
 000118,0.00000022,-0.00000164,0.00000094,-0.00000229,-0.00000032,0.000
 00164,-0.00000217,0.00000155,0.00000131,-0.00000067,0.00000238,0.00000
 087,0.00000111,0.00000139,0.00000033,-0.00000087,-0.00000008,0.0000011
 9,-0.00000038,0.00000038,0.00000025,0.00000210,0.00000163,-0.00000142,
 0.00000170,0.00000129,-0.00000003,0.00000100,0.00000037,0.00000132,0.0
 0000146,0.00000094,0.00000185,0.00000223,0.00000249,-0.00000101,0.0000
 0198,0.00000316\\\@


 I CLAIM NOT TO HAVE CONTROLLED EVENTS,
 BUT CONFESS PLAINLY THAT EVENTS HAVE CONTROLLED ME.

                                         A. LINCOLN
 Job cpu time:  1 days  0 hours 29 minutes 11.3 seconds.
 File lengths (MBytes):  RWF=   2164 Int=      0 D2E=      0 Chk=     28 Scr=      1
 Normal termination of Gaussian 09 at Wed Sep  7 07:16:32 2022.
