 Entering Gaussian System, Link 0=g09
 Input=Mol31.gjf
 Output=Mol31.log
 Initial command:
 /opt/gaussian/l1.exe /home/scr/lqcapf-6/Gau-279287.inp -scrdir=/home/scr/lqcapf-6/
 Entering Link 1 = /opt/gaussian/l1.exe PID=    279289.
  
 Copyright (c) 1988,1990,1992,1993,1995,1998,2003,2009,2011,
            Gaussian, Inc.  All Rights Reserved.
  
 This is part of the Gaussian(R) 09 program.  It is based on
 the Gaussian(R) 03 system (copyright 2003, Gaussian, Inc.),
 the Gaussian(R) 98 system (copyright 1998, Gaussian, Inc.),
 the Gaussian(R) 94 system (copyright 1995, Gaussian, Inc.),
 the Gaussian 92(TM) system (copyright 1992, Gaussian, Inc.),
 the Gaussian 90(TM) system (copyright 1990, Gaussian, Inc.),
 the Gaussian 88(TM) system (copyright 1988, Gaussian, Inc.),
 the Gaussian 86(TM) system (copyright 1986, Carnegie Mellon
 University), and the Gaussian 82(TM) system (copyright 1983,
 Carnegie Mellon University). Gaussian is a federally registered
 trademark of Gaussian, Inc.
  
 This software contains proprietary and confidential information,
 including trade secrets, belonging to Gaussian, Inc.
  
 This software is provided under written license and may be
 used, copied, transmitted, or stored only in accord with that
 written license.
  
 The following legend is applicable only to US Government
 contracts under FAR:
  
                    RESTRICTED RIGHTS LEGEND
  
 Use, reproduction and disclosure by the US Government is
 subject to restrictions as set forth in subparagraphs (a)
 and (c) of the Commercial Computer Software - Restricted
 Rights clause in FAR 52.227-19.
  
 Gaussian, Inc.
 340 Quinnipiac St., Bldg. 40, Wallingford CT 06492
  
  
 ---------------------------------------------------------------
 Warning -- This program may not be used in any manner that
 competes with the business of Gaussian, Inc. or will provide
 assistance to any competitor of Gaussian, Inc.  The licensee
 of this program is prohibited from giving any competitor of
 Gaussian, Inc. access to this program.  By using this program,
 the user acknowledges that Gaussian, Inc. is engaged in the
 business of creating and licensing software in the field of
 computational chemistry and represents and warrants to the
 licensee that it is not a competitor of Gaussian, Inc. and that
 it will not use this program in any manner prohibited above.
 ---------------------------------------------------------------
  

 Cite this work as:
 Gaussian 09, Revision C.01,
 M. J. Frisch, G. W. Trucks, H. B. Schlegel, G. E. Scuseria, 
 M. A. Robb, J. R. Cheeseman, G. Scalmani, V. Barone, B. Mennucci, 
 G. A. Petersson, H. Nakatsuji, M. Caricato, X. Li, H. P. Hratchian, 
 A. F. Izmaylov, J. Bloino, G. Zheng, J. L. Sonnenberg, M. Hada, 
 M. Ehara, K. Toyota, R. Fukuda, J. Hasegawa, M. Ishida, T. Nakajima, 
 Y. Honda, O. Kitao, H. Nakai, T. Vreven, J. A. Montgomery, Jr., 
 J. E. Peralta, F. Ogliaro, M. Bearpark, J. J. Heyd, E. Brothers, 
 K. N. Kudin, V. N. Staroverov, T. Keith, R. Kobayashi, J. Normand, 
 K. Raghavachari, A. Rendell, J. C. Burant, S. S. Iyengar, J. Tomasi, 
 M. Cossi, N. Rega, J. M. Millam, M. Klene, J. E. Knox, J. B. Cross, 
 V. Bakken, C. Adamo, J. Jaramillo, R. Gomperts, R. E. Stratmann, 
 O. Yazyev, A. J. Austin, R. Cammi, C. Pomelli, J. W. Ochterski, 
 R. L. Martin, K. Morokuma, V. G. Zakrzewski, G. A. Voth, 
 P. Salvador, J. J. Dannenberg, S. Dapprich, A. D. Daniels, 
 O. Farkas, J. B. Foresman, J. V. Ortiz, J. Cioslowski, 
 and D. J. Fox, Gaussian, Inc., Wallingford CT, 2010.
 
 ******************************************
 Gaussian 09:  EM64L-G09RevC.01 23-Sep-2011
                 6-Sep-2022 
 ******************************************
 %nprocshared=8
 Will use up to    8 processors via shared memory.
 %mem=1600MB
 -------------------------
 #p opt freq b3lyp/cc-pvdz
 -------------------------
 1/14=-1,18=20,19=15,26=3,38=1/1,3;
 2/9=110,12=2,17=6,18=5,40=1/2;
 3/5=16,11=2,16=1,25=1,30=1,71=1,74=-5/1,2,3;
 4//1;
 5/5=2,38=5/2;
 6/7=2,8=2,9=2,10=2,28=1/1;
 7//1,2,3,16;
 1/14=-1,18=20,19=15/3(2);
 2/9=110/2;
 99//99;
 2/9=110/2;
 3/5=16,11=2,16=1,25=1,30=1,71=1,74=-5/1,2,3;
 4/5=5,16=3/1;
 5/5=2,38=5/2;
 7//1,2,3,16;
 1/14=-1,18=20,19=15/3(-5);
 2/9=110/2;
 6/7=2,8=2,9=2,10=2,19=2,28=1/1;
 99/9=1/99;
 Leave Link    1 at Tue Sep  6 09:30:41 2022, MaxMem=  209715200 cpu:       0.2
 (Enter /opt/gaussian/l101.exe)
 ---------
 Mol31.log
 ---------
 Charge =  0 Multiplicity = 1
 Symbolic Z-Matrix:
 F                    -4.15244   4.49224  -1.04995 
 C                    -2.92043   4.0041   -0.70221 
 C                    -2.03132   4.85733  -0.09099 
 C                    -0.7998    4.33457   0.25202 
 C                    -0.46106   3.02232  -0.00041 
 C                    -1.38561   2.18247  -0.61884 
 C                    -2.63368   2.68314  -0.97243 
 C                    -1.03624   0.74442  -0.96015 
 N                    -0.39725  -0.01447   0.1284 
 C                    -1.09865  -0.54313   1.17206 
 O                    -0.56039  -1.14866   2.09377 
 C                    -2.61565  -0.40699   1.1973 
 N                    -3.25503  -1.35357   0.3117 
 N                    -3.99312  -0.91895  -0.7514 
 N                    -4.51979  -1.91326  -1.33784 
 C                    -4.15727  -3.07187  -0.67142 
 C                    -4.48816  -4.4048   -0.91964 
 C                    -3.97295  -5.34668  -0.06459 
 C                    -3.14034  -4.97557   1.01676 
 C                    -2.80603  -3.66669   1.26963 
 C                    -3.341    -2.71458   0.39503 
 C                     1.01991  -0.24994   0.05208 
 C                     1.5388   -0.9709   -1.01364 
 C                     2.90427  -1.17952  -1.11763 
 C                     3.77944  -0.68417  -0.15308 
 C                     3.24254   0.02427   0.92109 
 C                     1.87887   0.24084   1.02461 
 C                     5.24216  -0.91121  -0.26229 
 C                     5.92267  -0.7498   -1.46738 
 C                     7.28925  -0.97277  -1.52021 
 C                     7.94746  -1.35035  -0.36154 
 N                     7.30587  -1.50932   0.79429 
 C                     5.99416  -1.29908   0.84531 
 Cl                    0.40454   5.41248   1.05355 
 H                    -2.29332   5.87479   0.1052 
 H                     0.50705   2.6599    0.27368 
 H                    -3.37455   2.06399  -1.43794 
 H                    -1.92308   0.23309  -1.2969 
 H                    -0.34256   0.74242  -1.78737 
 H                    -2.9173   -0.60315   2.21458 
 H                    -2.95385   0.57519   0.91586 
 H                    -5.11959  -4.66536  -1.74478 
 H                    -4.19841  -6.38419  -0.21238 
 H                    -2.75476  -5.74499   1.65685 
 H                    -2.1587   -3.39074   2.07684 
 H                     0.87757  -1.38576  -1.7498 
 H                     3.28552  -1.75738  -1.93701 
 H                     3.89381   0.42609   1.67236 
 H                     1.48285   0.7737    1.86493 
 H                     5.39294  -0.4363   -2.34607 
 H                     7.83209  -0.84836  -2.43565 
 H                     9.00258  -1.52961  -0.35093 
 H                     5.52669  -1.46176   1.79492 
 
 NAtoms=     53 NQM=        0 NQMF=       0 NMMI=     53 NMMIF=      0
                NMic=       0 NMicF=      0.
                    Isotopes and Nuclear Properties:
 (Nuclear quadrupole moments (NQMom) in fm**2, nuclear magnetic moments (NMagM)
  in nuclear magnetons)

  Atom         1           2           3           4           5           6           7           8           9          10
 IAtWgt=          19          12          12          12          12          12          12          12          14          12
 AtmWgt=  18.9984033  12.0000000  12.0000000  12.0000000  12.0000000  12.0000000  12.0000000  12.0000000  14.0030740  12.0000000
 NucSpn=           1           0           0           0           0           0           0           0           2           0
 AtZEff=   0.0000000   0.0000000   0.0000000   0.0000000   0.0000000   0.0000000   0.0000000   0.0000000   0.0000000   0.0000000
 NQMom=    0.0000000   0.0000000   0.0000000   0.0000000   0.0000000   0.0000000   0.0000000   0.0000000   2.0440000   0.0000000
 NMagM=    2.6288670   0.0000000   0.0000000   0.0000000   0.0000000   0.0000000   0.0000000   0.0000000   0.4037610   0.0000000

  Atom        11          12          13          14          15          16          17          18          19          20
 IAtWgt=          16          12          14          14          14          12          12          12          12          12
 AtmWgt=  15.9949146  12.0000000  14.0030740  14.0030740  14.0030740  12.0000000  12.0000000  12.0000000  12.0000000  12.0000000
 NucSpn=           0           0           2           2           2           0           0           0           0           0
 AtZEff=   0.0000000   0.0000000   0.0000000   0.0000000   0.0000000   0.0000000   0.0000000   0.0000000   0.0000000   0.0000000
 NQMom=    0.0000000   0.0000000   2.0440000   2.0440000   2.0440000   0.0000000   0.0000000   0.0000000   0.0000000   0.0000000
 NMagM=    0.0000000   0.0000000   0.4037610   0.4037610   0.4037610   0.0000000   0.0000000   0.0000000   0.0000000   0.0000000

  Atom        21          22          23          24          25          26          27          28          29          30
 IAtWgt=          12          12          12          12          12          12          12          12          12          12
 AtmWgt=  12.0000000  12.0000000  12.0000000  12.0000000  12.0000000  12.0000000  12.0000000  12.0000000  12.0000000  12.0000000
 NucSpn=           0           0           0           0           0           0           0           0           0           0
 AtZEff=   0.0000000   0.0000000   0.0000000   0.0000000   0.0000000   0.0000000   0.0000000   0.0000000   0.0000000   0.0000000
 NQMom=    0.0000000   0.0000000   0.0000000   0.0000000   0.0000000   0.0000000   0.0000000   0.0000000   0.0000000   0.0000000
 NMagM=    0.0000000   0.0000000   0.0000000   0.0000000   0.0000000   0.0000000   0.0000000   0.0000000   0.0000000   0.0000000

  Atom        31          32          33          34          35          36          37          38          39          40
 IAtWgt=          12          14          12          35           1           1           1           1           1           1
 AtmWgt=  12.0000000  14.0030740  12.0000000  34.9688527   1.0078250   1.0078250   1.0078250   1.0078250   1.0078250   1.0078250
 NucSpn=           0           2           0           3           1           1           1           1           1           1
 AtZEff=   0.0000000   0.0000000   0.0000000   0.0000000   0.0000000   0.0000000   0.0000000   0.0000000   0.0000000   0.0000000
 NQMom=    0.0000000   2.0440000   0.0000000  -8.1650000   0.0000000   0.0000000   0.0000000   0.0000000   0.0000000   0.0000000
 NMagM=    0.0000000   0.4037610   0.0000000   0.8218740   2.7928460   2.7928460   2.7928460   2.7928460   2.7928460   2.7928460

  Atom        41          42          43          44          45          46          47          48          49          50
 IAtWgt=           1           1           1           1           1           1           1           1           1           1
 AtmWgt=   1.0078250   1.0078250   1.0078250   1.0078250   1.0078250   1.0078250   1.0078250   1.0078250   1.0078250   1.0078250
 NucSpn=           1           1           1           1           1           1           1           1           1           1
 AtZEff=   0.0000000   0.0000000   0.0000000   0.0000000   0.0000000   0.0000000   0.0000000   0.0000000   0.0000000   0.0000000
 NQMom=    0.0000000   0.0000000   0.0000000   0.0000000   0.0000000   0.0000000   0.0000000   0.0000000   0.0000000   0.0000000
 NMagM=    2.7928460   2.7928460   2.7928460   2.7928460   2.7928460   2.7928460   2.7928460   2.7928460   2.7928460   2.7928460

  Atom        51          52          53
 IAtWgt=           1           1           1
 AtmWgt=   1.0078250   1.0078250   1.0078250
 NucSpn=           1           1           1
 AtZEff=   0.0000000   0.0000000   0.0000000
 NQMom=    0.0000000   0.0000000   0.0000000
 NMagM=    2.7928460   2.7928460   2.7928460
 Leave Link  101 at Tue Sep  6 09:30:41 2022, MaxMem=  209715200 cpu:       0.9
 (Enter /opt/gaussian/l103.exe)

 GradGradGradGradGradGradGradGradGradGradGradGradGradGradGradGradGradGrad
 Berny optimization.
 Initialization pass.
                           ----------------------------
                           !    Initial Parameters    !
                           ! (Angstroms and Degrees)  !
 --------------------------                            --------------------------
 ! Name  Definition              Value          Derivative Info.                !
 --------------------------------------------------------------------------------
 ! R1    R(1,2)                  1.3701         estimate D2E/DX2                !
 ! R2    R(2,3)                  1.3755         estimate D2E/DX2                !
 ! R3    R(2,7)                  1.3785         estimate D2E/DX2                !
 ! R4    R(3,4)                  1.3812         estimate D2E/DX2                !
 ! R5    R(3,35)                 1.0688         estimate D2E/DX2                !
 ! R6    R(4,5)                  1.3786         estimate D2E/DX2                !
 ! R7    R(4,34)                 1.8041         estimate D2E/DX2                !
 ! R8    R(5,6)                  1.3938         estimate D2E/DX2                !
 ! R9    R(5,36)                 1.0694         estimate D2E/DX2                !
 ! R10   R(6,7)                  1.3905         estimate D2E/DX2                !
 ! R11   R(6,8)                  1.5187         estimate D2E/DX2                !
 ! R12   R(7,37)                 1.0719         estimate D2E/DX2                !
 ! R13   R(8,9)                  1.4728         estimate D2E/DX2                !
 ! R14   R(8,38)                 1.0777         estimate D2E/DX2                !
 ! R15   R(8,39)                 1.0796         estimate D2E/DX2                !
 ! R16   R(9,10)                 1.3641         estimate D2E/DX2                !
 ! R17   R(9,22)                 1.4386         estimate D2E/DX2                !
 ! R18   R(10,11)                1.2272         estimate D2E/DX2                !
 ! R19   R(10,12)                1.5233         estimate D2E/DX2                !
 ! R20   R(12,13)                1.4454         estimate D2E/DX2                !
 ! R21   R(12,40)                1.079          estimate D2E/DX2                !
 ! R22   R(12,41)                1.0762         estimate D2E/DX2                !
 ! R23   R(13,14)                1.3652         estimate D2E/DX2                !
 ! R24   R(13,21)                1.3663         estimate D2E/DX2                !
 ! R25   R(14,15)                1.2688         estimate D2E/DX2                !
 ! R26   R(15,16)                1.3849         estimate D2E/DX2                !
 ! R27   R(16,17)                1.3956         estimate D2E/DX2                !
 ! R28   R(16,21)                1.3897         estimate D2E/DX2                !
 ! R29   R(17,18)                1.3725         estimate D2E/DX2                !
 ! R30   R(17,42)                1.0712         estimate D2E/DX2                !
 ! R31   R(18,19)                1.4143         estimate D2E/DX2                !
 ! R32   R(18,43)                1.072          estimate D2E/DX2                !
 ! R33   R(19,20)                1.3744         estimate D2E/DX2                !
 ! R34   R(19,44)                1.0726         estimate D2E/DX2                !
 ! R35   R(20,21)                1.3992         estimate D2E/DX2                !
 ! R36   R(20,45)                1.0709         estimate D2E/DX2                !
 ! R37   R(22,23)                1.3874         estimate D2E/DX2                !
 ! R38   R(22,27)                1.3873         estimate D2E/DX2                !
 ! R39   R(23,24)                1.3852         estimate D2E/DX2                !
 ! R40   R(23,46)                1.073          estimate D2E/DX2                !
 ! R41   R(24,25)                1.3934         estimate D2E/DX2                !
 ! R42   R(24,47)                1.0727         estimate D2E/DX2                !
 ! R43   R(25,26)                1.3943         estimate D2E/DX2                !
 ! R44   R(25,28)                1.4843         estimate D2E/DX2                !
 ! R45   R(26,27)                1.3846         estimate D2E/DX2                !
 ! R46   R(26,48)                1.0724         estimate D2E/DX2                !
 ! R47   R(27,49)                1.0709         estimate D2E/DX2                !
 ! R48   R(28,29)                1.3933         estimate D2E/DX2                !
 ! R49   R(28,33)                1.3938         estimate D2E/DX2                !
 ! R50   R(29,30)                1.3857         estimate D2E/DX2                !
 ! R51   R(29,50)                1.0728         estimate D2E/DX2                !
 ! R52   R(30,31)                1.385          estimate D2E/DX2                !
 ! R53   R(30,51)                1.0715         estimate D2E/DX2                !
 ! R54   R(31,32)                1.3315         estimate D2E/DX2                !
 ! R55   R(31,52)                1.0703         estimate D2E/DX2                !
 ! R56   R(32,33)                1.3294         estimate D2E/DX2                !
 ! R57   R(33,53)                1.0709         estimate D2E/DX2                !
 ! A1    A(1,2,3)              118.2307         estimate D2E/DX2                !
 ! A2    A(1,2,7)              118.6027         estimate D2E/DX2                !
 ! A3    A(3,2,7)              123.1653         estimate D2E/DX2                !
 ! A4    A(2,3,4)              116.8672         estimate D2E/DX2                !
 ! A5    A(2,3,35)             120.9041         estimate D2E/DX2                !
 ! A6    A(4,3,35)             122.2286         estimate D2E/DX2                !
 ! A7    A(3,4,5)              122.2699         estimate D2E/DX2                !
 ! A8    A(3,4,34)             118.6482         estimate D2E/DX2                !
 ! A9    A(5,4,34)             119.0816         estimate D2E/DX2                !
 ! A10   A(4,5,6)              119.4613         estimate D2E/DX2                !
 ! A11   A(4,5,36)             119.8736         estimate D2E/DX2                !
 ! A12   A(6,5,36)             120.6642         estimate D2E/DX2                !
 ! A13   A(5,6,7)              119.4246         estimate D2E/DX2                !
 ! A14   A(5,6,8)              121.177          estimate D2E/DX2                !
 ! A15   A(7,6,8)              119.3591         estimate D2E/DX2                !
 ! A16   A(2,7,6)              118.811          estimate D2E/DX2                !
 ! A17   A(2,7,37)             119.662          estimate D2E/DX2                !
 ! A18   A(6,7,37)             121.5239         estimate D2E/DX2                !
 ! A19   A(6,8,9)              114.9356         estimate D2E/DX2                !
 ! A20   A(6,8,38)             109.2806         estimate D2E/DX2                !
 ! A21   A(6,8,39)             108.7698         estimate D2E/DX2                !
 ! A22   A(9,8,38)             110.0907         estimate D2E/DX2                !
 ! A23   A(9,8,39)             106.6545         estimate D2E/DX2                !
 ! A24   A(38,8,39)            106.7656         estimate D2E/DX2                !
 ! A25   A(8,9,10)             122.8268         estimate D2E/DX2                !
 ! A26   A(8,9,22)             118.1977         estimate D2E/DX2                !
 ! A27   A(10,9,22)            118.9263         estimate D2E/DX2                !
 ! A28   A(9,10,11)            122.7085         estimate D2E/DX2                !
 ! A29   A(9,10,12)            119.3479         estimate D2E/DX2                !
 ! A30   A(11,10,12)           117.9343         estimate D2E/DX2                !
 ! A31   A(10,12,13)           111.8297         estimate D2E/DX2                !
 ! A32   A(10,12,40)           106.1272         estimate D2E/DX2                !
 ! A33   A(10,12,41)           112.9653         estimate D2E/DX2                !
 ! A34   A(13,12,40)           109.5679         estimate D2E/DX2                !
 ! A35   A(13,12,41)           107.3636         estimate D2E/DX2                !
 ! A36   A(40,12,41)           108.941          estimate D2E/DX2                !
 ! A37   A(12,13,14)           120.5165         estimate D2E/DX2                !
 ! A38   A(12,13,21)           130.0045         estimate D2E/DX2                !
 ! A39   A(14,13,21)           109.3052         estimate D2E/DX2                !
 ! A40   A(13,14,15)           109.5628         estimate D2E/DX2                !
 ! A41   A(14,15,16)           108.9375         estimate D2E/DX2                !
 ! A42   A(15,16,17)           130.6452         estimate D2E/DX2                !
 ! A43   A(15,16,21)           107.9352         estimate D2E/DX2                !
 ! A44   A(17,16,21)           121.4188         estimate D2E/DX2                !
 ! A45   A(16,17,18)           117.1052         estimate D2E/DX2                !
 ! A46   A(16,17,42)           120.602          estimate D2E/DX2                !
 ! A47   A(18,17,42)           122.2927         estimate D2E/DX2                !
 ! A48   A(17,18,19)           121.1479         estimate D2E/DX2                !
 ! A49   A(17,18,43)           119.9578         estimate D2E/DX2                !
 ! A50   A(19,18,43)           118.8942         estimate D2E/DX2                !
 ! A51   A(18,19,20)           122.2605         estimate D2E/DX2                !
 ! A52   A(18,19,44)           118.6651         estimate D2E/DX2                !
 ! A53   A(20,19,44)           119.0739         estimate D2E/DX2                !
 ! A54   A(19,20,21)           116.1071         estimate D2E/DX2                !
 ! A55   A(19,20,45)           122.0824         estimate D2E/DX2                !
 ! A56   A(21,20,45)           121.8003         estimate D2E/DX2                !
 ! A57   A(13,21,16)           104.2566         estimate D2E/DX2                !
 ! A58   A(13,21,20)           133.7837         estimate D2E/DX2                !
 ! A59   A(16,21,20)           121.9597         estimate D2E/DX2                !
 ! A60   A(9,22,23)            119.6197         estimate D2E/DX2                !
 ! A61   A(9,22,27)            120.9872         estimate D2E/DX2                !
 ! A62   A(23,22,27)           119.3917         estimate D2E/DX2                !
 ! A63   A(22,23,24)           120.3052         estimate D2E/DX2                !
 ! A64   A(22,23,46)           119.8326         estimate D2E/DX2                !
 ! A65   A(24,23,46)           119.8504         estimate D2E/DX2                !
 ! A66   A(23,24,25)           120.9045         estimate D2E/DX2                !
 ! A67   A(23,24,47)           119.2632         estimate D2E/DX2                !
 ! A68   A(25,24,47)           119.8036         estimate D2E/DX2                !
 ! A69   A(24,25,26)           118.1684         estimate D2E/DX2                !
 ! A70   A(24,25,28)           120.9069         estimate D2E/DX2                !
 ! A71   A(26,25,28)           120.9238         estimate D2E/DX2                !
 ! A72   A(25,26,27)           121.0855         estimate D2E/DX2                !
 ! A73   A(25,26,48)           119.7521         estimate D2E/DX2                !
 ! A74   A(27,26,48)           119.1521         estimate D2E/DX2                !
 ! A75   A(22,27,26)           120.1361         estimate D2E/DX2                !
 ! A76   A(22,27,49)           119.811          estimate D2E/DX2                !
 ! A77   A(26,27,49)           120.0447         estimate D2E/DX2                !
 ! A78   A(25,28,29)           121.8187         estimate D2E/DX2                !
 ! A79   A(25,28,33)           121.0505         estimate D2E/DX2                !
 ! A80   A(29,28,33)           117.1307         estimate D2E/DX2                !
 ! A81   A(28,29,30)           119.7366         estimate D2E/DX2                !
 ! A82   A(28,29,50)           120.0708         estimate D2E/DX2                !
 ! A83   A(30,29,50)           120.1827         estimate D2E/DX2                !
 ! A84   A(29,30,31)           118.7284         estimate D2E/DX2                !
 ! A85   A(29,30,51)           120.8983         estimate D2E/DX2                !
 ! A86   A(31,30,51)           120.3711         estimate D2E/DX2                !
 ! A87   A(30,31,32)           121.9889         estimate D2E/DX2                !
 ! A88   A(30,31,52)           121.4964         estimate D2E/DX2                !
 ! A89   A(32,31,52)           116.5147         estimate D2E/DX2                !
 ! A90   A(31,32,33)           119.3321         estimate D2E/DX2                !
 ! A91   A(28,33,32)           123.0824         estimate D2E/DX2                !
 ! A92   A(28,33,53)           120.7589         estimate D2E/DX2                !
 ! A93   A(32,33,53)           116.1501         estimate D2E/DX2                !
 ! D1    D(1,2,3,4)            179.7582         estimate D2E/DX2                !
 ! D2    D(1,2,3,35)            -0.1623         estimate D2E/DX2                !
 ! D3    D(7,2,3,4)              0.1872         estimate D2E/DX2                !
 ! D4    D(7,2,3,35)          -179.7333         estimate D2E/DX2                !
 ! D5    D(1,2,7,6)           -179.8688         estimate D2E/DX2                !
 ! D6    D(1,2,7,37)            -0.5            estimate D2E/DX2                !
 ! D7    D(3,2,7,6)             -0.2992         estimate D2E/DX2                !
 ! D8    D(3,2,7,37)           179.0696         estimate D2E/DX2                !
 ! D9    D(2,3,4,5)              0.069          estimate D2E/DX2                !
 ! D10   D(2,3,4,34)           179.8899         estimate D2E/DX2                !
 ! D11   D(35,3,4,5)           179.9883         estimate D2E/DX2                !
 ! D12   D(35,3,4,34)           -0.1908         estimate D2E/DX2                !
 ! D13   D(3,4,5,6)             -0.2029         estimate D2E/DX2                !
 ! D14   D(3,4,5,36)           179.4502         estimate D2E/DX2                !
 ! D15   D(34,4,5,6)           179.9769         estimate D2E/DX2                !
 ! D16   D(34,4,5,36)           -0.37           estimate D2E/DX2                !
 ! D17   D(4,5,6,7)              0.0865         estimate D2E/DX2                !
 ! D18   D(4,5,6,8)            177.7913         estimate D2E/DX2                !
 ! D19   D(36,5,6,7)          -179.5638         estimate D2E/DX2                !
 ! D20   D(36,5,6,8)            -1.859          estimate D2E/DX2                !
 ! D21   D(5,6,7,2)              0.1538         estimate D2E/DX2                !
 ! D22   D(5,6,7,37)          -179.2028         estimate D2E/DX2                !
 ! D23   D(8,6,7,2)           -177.5932         estimate D2E/DX2                !
 ! D24   D(8,6,7,37)             3.0503         estimate D2E/DX2                !
 ! D25   D(5,6,8,9)             47.5624         estimate D2E/DX2                !
 ! D26   D(5,6,8,38)           171.8933         estimate D2E/DX2                !
 ! D27   D(5,6,8,39)           -71.898          estimate D2E/DX2                !
 ! D28   D(7,6,8,9)           -134.7313         estimate D2E/DX2                !
 ! D29   D(7,6,8,38)           -10.4004         estimate D2E/DX2                !
 ! D30   D(7,6,8,39)           105.8083         estimate D2E/DX2                !
 ! D31   D(6,8,9,10)            78.5081         estimate D2E/DX2                !
 ! D32   D(6,8,9,22)          -104.0715         estimate D2E/DX2                !
 ! D33   D(38,8,9,10)          -45.395          estimate D2E/DX2                !
 ! D34   D(38,8,9,22)          132.0254         estimate D2E/DX2                !
 ! D35   D(39,8,9,10)         -160.8634         estimate D2E/DX2                !
 ! D36   D(39,8,9,22)           16.557          estimate D2E/DX2                !
 ! D37   D(8,9,10,11)         -178.2779         estimate D2E/DX2                !
 ! D38   D(8,9,10,12)            2.8591         estimate D2E/DX2                !
 ! D39   D(22,9,10,11)           4.3196         estimate D2E/DX2                !
 ! D40   D(22,9,10,12)        -174.5434         estimate D2E/DX2                !
 ! D41   D(8,9,22,23)          -61.0161         estimate D2E/DX2                !
 ! D42   D(8,9,22,27)          118.5604         estimate D2E/DX2                !
 ! D43   D(10,9,22,23)         116.5073         estimate D2E/DX2                !
 ! D44   D(10,9,22,27)         -63.9162         estimate D2E/DX2                !
 ! D45   D(9,10,12,13)          77.8892         estimate D2E/DX2                !
 ! D46   D(9,10,12,40)        -162.6781         estimate D2E/DX2                !
 ! D47   D(9,10,12,41)         -43.3699         estimate D2E/DX2                !
 ! D48   D(11,10,12,13)       -101.0279         estimate D2E/DX2                !
 ! D49   D(11,10,12,40)         18.4048         estimate D2E/DX2                !
 ! D50   D(11,10,12,41)        137.713          estimate D2E/DX2                !
 ! D51   D(10,12,13,14)       -117.1662         estimate D2E/DX2                !
 ! D52   D(10,12,13,21)         68.1713         estimate D2E/DX2                !
 ! D53   D(40,12,13,14)        125.4498         estimate D2E/DX2                !
 ! D54   D(40,12,13,21)        -49.2127         estimate D2E/DX2                !
 ! D55   D(41,12,13,14)          7.2802         estimate D2E/DX2                !
 ! D56   D(41,12,13,21)       -167.3823         estimate D2E/DX2                !
 ! D57   D(12,13,14,15)       -176.217          estimate D2E/DX2                !
 ! D58   D(21,13,14,15)         -0.5469         estimate D2E/DX2                !
 ! D59   D(12,13,21,16)        175.4743         estimate D2E/DX2                !
 ! D60   D(12,13,21,20)         -4.5161         estimate D2E/DX2                !
 ! D61   D(14,13,21,16)          0.3452         estimate D2E/DX2                !
 ! D62   D(14,13,21,20)       -179.6452         estimate D2E/DX2                !
 ! D63   D(13,14,15,16)          0.5041         estimate D2E/DX2                !
 ! D64   D(14,15,16,17)        179.3918         estimate D2E/DX2                !
 ! D65   D(14,15,16,21)         -0.2841         estimate D2E/DX2                !
 ! D66   D(15,16,17,18)       -179.6096         estimate D2E/DX2                !
 ! D67   D(15,16,17,42)          0.2788         estimate D2E/DX2                !
 ! D68   D(21,16,17,18)          0.029          estimate D2E/DX2                !
 ! D69   D(21,16,17,42)        179.9174         estimate D2E/DX2                !
 ! D70   D(15,16,21,13)         -0.05           estimate D2E/DX2                !
 ! D71   D(15,16,21,20)        179.9419         estimate D2E/DX2                !
 ! D72   D(17,16,21,13)       -179.7618         estimate D2E/DX2                !
 ! D73   D(17,16,21,20)          0.2301         estimate D2E/DX2                !
 ! D74   D(16,17,18,19)         -0.179          estimate D2E/DX2                !
 ! D75   D(16,17,18,43)        179.9543         estimate D2E/DX2                !
 ! D76   D(42,17,18,19)        179.9347         estimate D2E/DX2                !
 ! D77   D(42,17,18,43)          0.068          estimate D2E/DX2                !
 ! D78   D(17,18,19,20)          0.0799         estimate D2E/DX2                !
 ! D79   D(17,18,19,44)       -179.6402         estimate D2E/DX2                !
 ! D80   D(43,18,19,20)        179.9479         estimate D2E/DX2                !
 ! D81   D(43,18,19,44)          0.2278         estimate D2E/DX2                !
 ! D82   D(18,19,20,21)          0.1688         estimate D2E/DX2                !
 ! D83   D(18,19,20,45)       -178.6838         estimate D2E/DX2                !
 ! D84   D(44,19,20,21)        179.8879         estimate D2E/DX2                !
 ! D85   D(44,19,20,45)          1.0352         estimate D2E/DX2                !
 ! D86   D(19,20,21,13)        179.6689         estimate D2E/DX2                !
 ! D87   D(19,20,21,16)         -0.3202         estimate D2E/DX2                !
 ! D88   D(45,20,21,13)         -1.475          estimate D2E/DX2                !
 ! D89   D(45,20,21,16)        178.5359         estimate D2E/DX2                !
 ! D90   D(9,22,23,24)         178.5019         estimate D2E/DX2                !
 ! D91   D(9,22,23,46)          -2.7499         estimate D2E/DX2                !
 ! D92   D(27,22,23,24)         -1.0814         estimate D2E/DX2                !
 ! D93   D(27,22,23,46)        177.6668         estimate D2E/DX2                !
 ! D94   D(9,22,27,26)        -178.8404         estimate D2E/DX2                !
 ! D95   D(9,22,27,49)           2.1966         estimate D2E/DX2                !
 ! D96   D(23,22,27,26)          0.737          estimate D2E/DX2                !
 ! D97   D(23,22,27,49)       -178.2259         estimate D2E/DX2                !
 ! D98   D(22,23,24,25)          0.6373         estimate D2E/DX2                !
 ! D99   D(22,23,24,47)        178.686          estimate D2E/DX2                !
 ! D100  D(46,23,24,25)       -178.1107         estimate D2E/DX2                !
 ! D101  D(46,23,24,47)         -0.062          estimate D2E/DX2                !
 ! D102  D(23,24,25,26)          0.1553         estimate D2E/DX2                !
 ! D103  D(23,24,25,28)        179.8127         estimate D2E/DX2                !
 ! D104  D(47,24,25,26)       -177.8829         estimate D2E/DX2                !
 ! D105  D(47,24,25,28)          1.7746         estimate D2E/DX2                !
 ! D106  D(24,25,26,27)         -0.5021         estimate D2E/DX2                !
 ! D107  D(24,25,26,48)       -179.3269         estimate D2E/DX2                !
 ! D108  D(28,25,26,27)        179.8405         estimate D2E/DX2                !
 ! D109  D(28,25,26,48)          1.0158         estimate D2E/DX2                !
 ! D110  D(24,25,28,29)         44.3243         estimate D2E/DX2                !
 ! D111  D(24,25,28,33)       -135.5872         estimate D2E/DX2                !
 ! D112  D(26,25,28,29)       -136.0278         estimate D2E/DX2                !
 ! D113  D(26,25,28,33)         44.0607         estimate D2E/DX2                !
 ! D114  D(25,26,27,22)          0.0576         estimate D2E/DX2                !
 ! D115  D(25,26,27,49)        179.0181         estimate D2E/DX2                !
 ! D116  D(48,26,27,22)        178.8893         estimate D2E/DX2                !
 ! D117  D(48,26,27,49)         -2.1502         estimate D2E/DX2                !
 ! D118  D(25,28,29,30)        179.9758         estimate D2E/DX2                !
 ! D119  D(25,28,29,50)          1.1175         estimate D2E/DX2                !
 ! D120  D(33,28,29,30)         -0.1094         estimate D2E/DX2                !
 ! D121  D(33,28,29,50)       -178.9677         estimate D2E/DX2                !
 ! D122  D(25,28,33,32)       -179.788          estimate D2E/DX2                !
 ! D123  D(25,28,33,53)          1.3228         estimate D2E/DX2                !
 ! D124  D(29,28,33,32)          0.2965         estimate D2E/DX2                !
 ! D125  D(29,28,33,53)       -178.5928         estimate D2E/DX2                !
 ! D126  D(28,29,30,31)         -0.1581         estimate D2E/DX2                !
 ! D127  D(28,29,30,51)       -179.6256         estimate D2E/DX2                !
 ! D128  D(50,29,30,31)        178.6989         estimate D2E/DX2                !
 ! D129  D(50,29,30,51)         -0.7687         estimate D2E/DX2                !
 ! D130  D(29,30,31,32)          0.2721         estimate D2E/DX2                !
 ! D131  D(29,30,31,52)       -179.7211         estimate D2E/DX2                !
 ! D132  D(51,30,31,32)        179.7426         estimate D2E/DX2                !
 ! D133  D(51,30,31,52)         -0.2506         estimate D2E/DX2                !
 ! D134  D(30,31,32,33)         -0.0976         estimate D2E/DX2                !
 ! D135  D(52,31,32,33)        179.8958         estimate D2E/DX2                !
 ! D136  D(31,32,33,28)         -0.1959         estimate D2E/DX2                !
 ! D137  D(31,32,33,53)        178.7408         estimate D2E/DX2                !
 --------------------------------------------------------------------------------
 Trust Radius=3.00D-01 FncErr=1.00D-07 GrdErr=1.00D-06
 Number of steps in this run=    297 maximum allowed number of steps=    318.
 GradGradGradGradGradGradGradGradGradGradGradGradGradGradGradGradGradGrad

 Leave Link  103 at Tue Sep  6 09:30:41 2022, MaxMem=  209715200 cpu:       0.1
 (Enter /opt/gaussian/l202.exe)
 Stoichiometry    C26H19ClFN5O
 Framework group  C1[X(C26H19ClFN5O)]
 Deg. of freedom   153
 Full point group                 C1      NOp   1
 Largest Abelian subgroup         C1      NOp   1
 Largest concise Abelian subgroup C1      NOp   1
                         Standard orientation:                         
 ---------------------------------------------------------------------
 Center     Atomic      Atomic             Coordinates (Angstroms)
 Number     Number       Type             X           Y           Z
 ---------------------------------------------------------------------
      1          9           0       -4.152441    4.492238   -1.049950
      2          6           0       -2.920431    4.004099   -0.702210
      3          6           0       -2.031321    4.857329   -0.090990
      4          6           0       -0.799801    4.334569    0.252020
      5          6           0       -0.461060    3.022320   -0.000410
      6          6           0       -1.385610    2.182469   -0.618840
      7          6           0       -2.633680    2.683139   -0.972430
      8          6           0       -1.036240    0.744419   -0.960150
      9          7           0       -0.397250   -0.014470    0.128400
     10          6           0       -1.098649   -0.543131    1.172060
     11          8           0       -0.560389   -1.148661    2.093770
     12          6           0       -2.615649   -0.406991    1.197300
     13          7           0       -3.255029   -1.353571    0.311700
     14          7           0       -3.993119   -0.918952   -0.751400
     15          7           0       -4.519789   -1.913262   -1.337840
     16          6           0       -4.157269   -3.071872   -0.671420
     17          6           0       -4.488158   -4.404802   -0.919640
     18          6           0       -3.972948   -5.346682   -0.064590
     19          6           0       -3.140338   -4.975571    1.016760
     20          6           0       -2.806028   -3.666691    1.269630
     21          6           0       -3.340999   -2.714581    0.395030
     22          6           0        1.019911   -0.249940    0.052080
     23          6           0        1.538801   -0.970900   -1.013640
     24          6           0        2.904271   -1.179519   -1.117630
     25          6           0        3.779441   -0.684169   -0.153080
     26          6           0        3.242540    0.024271    0.921090
     27          6           0        1.878870    0.240840    1.024610
     28          6           0        5.242161   -0.911209   -0.262290
     29          6           0        5.922671   -0.749798   -1.467380
     30          6           0        7.289251   -0.972768   -1.520210
     31          6           0        7.947461   -1.350348   -0.361540
     32          7           0        7.305871   -1.509318    0.794290
     33          6           0        5.994161   -1.299078    0.845310
     34         17           0        0.404539    5.412480    1.053550
     35          1           0       -2.293321    5.874789    0.105200
     36          1           0        0.507050    2.659900    0.273680
     37          1           0       -3.374550    2.063989   -1.437940
     38          1           0       -1.923080    0.233089   -1.296900
     39          1           0       -0.342560    0.742420   -1.787370
     40          1           0       -2.917299   -0.603151    2.214580
     41          1           0       -2.953850    0.575189    0.915860
     42          1           0       -5.119588   -4.665362   -1.744780
     43          1           0       -4.198407   -6.384192   -0.212380
     44          1           0       -2.754758   -5.744991    1.656850
     45          1           0       -2.158698   -3.390741    2.076840
     46          1           0        0.877571   -1.385760   -1.749800
     47          1           0        3.285521   -1.757379   -1.937010
     48          1           0        3.893810    0.426091    1.672360
     49          1           0        1.482850    0.773700    1.864930
     50          1           0        5.392941   -0.436299   -2.346070
     51          1           0        7.832091   -0.848358   -2.435650
     52          1           0        9.002581   -1.529607   -0.350930
     53          1           0        5.526691   -1.461759    1.794920
 ---------------------------------------------------------------------
 Rotational constants (GHZ):      0.1128598      0.0726956      0.0480489
 Leave Link  202 at Tue Sep  6 09:30:41 2022, MaxMem=  209715200 cpu:       0.0
 (Enter /opt/gaussian/l301.exe)
 Standard basis: CC-pVDZ (5D, 7F)
 Ernie: Thresh=  0.10000D-02 Tol=  0.10000D-05 Strict=F.
 Ernie:  76 primitive shells out of 871 were deleted.
 There are   575 symmetry adapted basis functions of A   symmetry.
 Integral buffers will be    131072 words long.
 Raffenetti 2 integral format.
 Two-electron integral symmetry is turned on.
   575 basis functions,  1293 primitive gaussians,   609 cartesian basis functions
   122 alpha electrons      122 beta electrons
       nuclear repulsion energy      3376.3273274531 Hartrees.
 IExCor=  402 DFT=T Ex+Corr=B3LYP ExCW=0 ScaHFX=  0.200000
 ScaDFX=  0.800000  0.720000  1.000000  0.810000 ScalE2=  1.000000  1.000000
 IRadAn=      0 IRanWt=     -1 IRanGd=            0 ICorTp=0
 NAtoms=   53 NActive=   53 NUniq=   53 SFac= 1.00D+00 NAtFMM=   60 NAOKFM=F Big=F
 Leave Link  301 at Tue Sep  6 09:30:41 2022, MaxMem=  209715200 cpu:       0.3
 (Enter /opt/gaussian/l302.exe)
 NPDir=0 NMtPBC=     1 NCelOv=     1 NCel=       1 NClECP=     1 NCelD=      1
         NCelK=      1 NCelE2=     1 NClLst=     1 CellRange=     0.0.
 One-electron integrals computed using PRISM.
 NBasis=   575 RedAO= T  NBF=   575
 NBsUse=   575 1.00D-06 NBFU=   575
 Precomputing XC quadrature grid using
 IXCGrd= 2 IRadAn=           0 IRanWt=          -1 IRanGd=           0 AccXCQ= 0.00D+00.
 NRdTot=    3414 NPtTot=      436104 NUsed=      460704 NTot=      460736
 NSgBfM=   587   587   587   587   587 NAtAll=    53    53.
 Leave Link  302 at Tue Sep  6 09:30:42 2022, MaxMem=  209715200 cpu:       9.3
 (Enter /opt/gaussian/l303.exe)
 DipDrv:  MaxL=1.
 Leave Link  303 at Tue Sep  6 09:30:42 2022, MaxMem=  209715200 cpu:       1.3
 (Enter /opt/gaussian/l401.exe)
 Harris functional with IExCor=  402 diagonalized for initial guess.
 ExpMin= 1.22D-01 ExpMax= 1.28D+05 ExpMxC= 1.24D+03 IAcc=2 IRadAn=         4 AccDes= 0.00D+00
 HarFok:  IExCor=  402 AccDes= 0.00D+00 IRadAn=         4 IDoV= 1
 ScaDFX=  1.000000  1.000000  1.000000  1.000000
 FoFCou: FMM=F IPFlag=           0 FMFlag=      100000 FMFlg1=           0
         NFxFlg=           0 DoJE=T BraDBF=F KetDBF=T FulRan=T
         Omega=  0.000000  0.000000  1.000000  0.000000  0.000000 ICntrl=     500 IOpCl=  0
         NMat0=    1 NMatS0=    1 NMatT0=    0 NMatD0=    1 NMtDS0=    0 NMtDT0=    0
         I1Cent=           4 NGrid=           0.
 Petite list used in FoFCou.
 Harris En= -1911.02399383524    
 Initial guess orbital symmetries:
       Occupied  (A) (A) (A) (A) (A) (A) (A) (A) (A) (A) (A) (A)
                 (A) (A) (A) (A) (A) (A) (A) (A) (A) (A) (A) (A)
                 (A) (A) (A) (A) (A) (A) (A) (A) (A) (A) (A) (A)
                 (A) (A) (A) (A) (A) (A) (A) (A) (A) (A) (A) (A)
                 (A) (A) (A) (A) (A) (A) (A) (A) (A) (A) (A) (A)
                 (A) (A) (A) (A) (A) (A) (A) (A) (A) (A) (A) (A)
                 (A) (A) (A) (A) (A) (A) (A) (A) (A) (A) (A) (A)
                 (A) (A) (A) (A) (A) (A) (A) (A) (A) (A) (A) (A)
                 (A) (A) (A) (A) (A) (A) (A) (A) (A) (A) (A) (A)
                 (A) (A) (A) (A) (A) (A) (A) (A) (A) (A) (A) (A)
                 (A) (A)
       Virtual   (A) (A) (A) (A) (A) (A) (A) (A) (A) (A) (A) (A)
                 (A) (A) (A) (A) (A) (A) (A) (A) (A) (A) (A) (A)
                 (A) (A) (A) (A) (A) (A) (A) (A) (A) (A) (A) (A)
                 (A) (A) (A) (A) (A) (A) (A) (A) (A) (A) (A) (A)
                 (A) (A) (A) (A) (A) (A) (A) (A) (A) (A) (A) (A)
                 (A) (A) (A) (A) (A) (A) (A) (A) (A) (A) (A) (A)
                 (A) (A) (A) (A) (A) (A) (A) (A) (A) (A) (A) (A)
                 (A) (A) (A) (A) (A) (A) (A) (A) (A) (A) (A) (A)
                 (A) (A) (A) (A) (A) (A) (A) (A) (A) (A) (A) (A)
                 (A) (A) (A) (A) (A) (A) (A) (A) (A) (A) (A) (A)
                 (A) (A) (A) (A) (A) (A) (A) (A) (A) (A) (A) (A)
                 (A) (A) (A) (A) (A) (A) (A) (A) (A) (A) (A) (A)
                 (A) (A) (A) (A) (A) (A) (A) (A) (A) (A) (A) (A)
                 (A) (A) (A) (A) (A) (A) (A) (A) (A) (A) (A) (A)
                 (A) (A) (A) (A) (A) (A) (A) (A) (A) (A) (A) (A)
                 (A) (A) (A) (A) (A) (A) (A) (A) (A) (A) (A) (A)
                 (A) (A) (A) (A) (A) (A) (A) (A) (A) (A) (A) (A)
                 (A) (A) (A) (A) (A) (A) (A) (A) (A) (A) (A) (A)
                 (A) (A) (A) (A) (A) (A) (A) (A) (A) (A) (A) (A)
                 (A) (A) (A) (A) (A) (A) (A) (A) (A) (A) (A) (A)
                 (A) (A) (A) (A) (A) (A) (A) (A) (A) (A) (A) (A)
                 (A) (A) (A) (A) (A) (A) (A) (A) (A) (A) (A) (A)
                 (A) (A) (A) (A) (A) (A) (A) (A) (A) (A) (A) (A)
                 (A) (A) (A) (A) (A) (A) (A) (A) (A) (A) (A) (A)
                 (A) (A) (A) (A) (A) (A) (A) (A) (A) (A) (A) (A)
                 (A) (A) (A) (A) (A) (A) (A) (A) (A) (A) (A) (A)
                 (A) (A) (A) (A) (A) (A) (A) (A) (A) (A) (A) (A)
                 (A) (A) (A) (A) (A) (A) (A) (A) (A) (A) (A) (A)
                 (A) (A) (A) (A) (A) (A) (A) (A) (A) (A) (A) (A)
                 (A) (A) (A) (A) (A) (A) (A) (A) (A) (A) (A) (A)
                 (A) (A) (A) (A) (A) (A) (A) (A) (A) (A) (A) (A)
                 (A) (A) (A) (A) (A) (A) (A) (A) (A) (A) (A) (A)
                 (A) (A) (A) (A) (A) (A) (A) (A) (A) (A) (A) (A)
                 (A) (A) (A) (A) (A) (A) (A) (A) (A) (A) (A) (A)
                 (A) (A) (A) (A) (A) (A) (A) (A) (A) (A) (A) (A)
                 (A) (A) (A) (A) (A) (A) (A) (A) (A) (A) (A) (A)
                 (A) (A) (A) (A) (A) (A) (A) (A) (A) (A) (A) (A)
                 (A) (A) (A) (A) (A) (A) (A) (A) (A)
 The electronic state of the initial guess is 1-A.
 Leave Link  401 at Tue Sep  6 09:30:46 2022, MaxMem=  209715200 cpu:      27.7
 (Enter /opt/gaussian/l502.exe)
 Closed shell SCF:
 Requested convergence on RMS density matrix=1.00D-08 within 128 cycles.
 Requested convergence on MAX density matrix=1.00D-06.
 Requested convergence on             energy=1.00D-06.
 No special actions if energy rises.
 Using DIIS extrapolation, IDIIS=  1040.
 Integral symmetry usage will be decided dynamically.
       460214 words used for storage of precomputed grid.
 IEnd=     1600473 IEndB=     1600473 NGot=   209715200 MDV=   208502858
 LenX=   208502858 LenY=   208131368
 Fock matrices will be formed incrementally for  20 cycles.
 Integral accuracy reduced to 1.0D-05 until final iterations.

 Cycle   1  Pass 0  IDiag  1:
 FoFCou: FMM=F IPFlag=           0 FMFlag=      100000 FMFlg1=           0
         NFxFlg=           0 DoJE=F BraDBF=F KetDBF=F FulRan=T
         Omega=  0.000000  0.000000  1.000000  0.000000  0.000000 ICntrl=       0 IOpCl=  0
         NMat0=    1 NMatS0=    1 NMatT0=    0 NMatD0=    1 NMtDS0=    0 NMtDT0=    0
         I1Cent=           0 NGrid=           0.
 Symmetry not used in FoFCou.
 E= -1910.68887284535    
 DIIS: error= 1.97D-02 at cycle   1 NSaved=   1.
 NSaved= 1 IEnMin= 1 EnMin= -1910.68887284535     IErMin= 1 ErrMin= 1.97D-02
 ErrMax= 1.97D-02 EMaxC= 1.00D-01 BMatC= 5.73D-01 BMatP= 5.73D-01
 IDIUse=3 WtCom= 8.03D-01 WtEn= 1.97D-01
 Coeff-Com:  0.100D+01
 Coeff-En:   0.100D+01
 Coeff:      0.100D+01
 Gap=     0.354 Goal=   None    Shift=    0.000
 GapD=    0.354 DampG=1.000 DampE=0.500 DampFc=0.5000 IDamp=-1.
 Damping current iteration by 5.00D-01
 RMSDP=3.72D-03 MaxDP=2.09D-01              OVMax= 3.16D-01

 Cycle   2  Pass 0  IDiag  1:
 RMSU=  1.30D-03    CP:  9.78D-01
 E= -1910.84936559916     Delta-E=       -0.160492753816 Rises=F Damp=T
 DIIS: error= 8.60D-03 at cycle   2 NSaved=   2.
 NSaved= 2 IEnMin= 2 EnMin= -1910.84936559916     IErMin= 2 ErrMin= 8.60D-03
 ErrMax= 8.60D-03 EMaxC= 1.00D-01 BMatC= 1.17D-01 BMatP= 5.73D-01
 IDIUse=3 WtCom= 9.14D-01 WtEn= 8.60D-02
 Coeff-Com:  0.233D+00 0.767D+00
 Coeff-En:   0.345D+00 0.655D+00
 Coeff:      0.243D+00 0.757D+00
 Gap=     0.257 Goal=   None    Shift=    0.000
 RMSDP=1.35D-03 MaxDP=7.80D-02 DE=-1.60D-01 OVMax= 3.23D-01

 Cycle   3  Pass 0  IDiag  1:
 RMSU=  9.23D-04    CP:  9.64D-01  8.65D-01
 E= -1911.17851354424     Delta-E=       -0.329147945080 Rises=F Damp=F
 DIIS: error= 1.18D-02 at cycle   3 NSaved=   3.
 NSaved= 3 IEnMin= 3 EnMin= -1911.17851354424     IErMin= 2 ErrMin= 8.60D-03
 ErrMax= 1.18D-02 EMaxC= 1.00D-01 BMatC= 1.34D-01 BMatP= 1.17D-01
 IDIUse=2 WtCom= 0.00D+00 WtEn= 1.00D+00
 Coeff-En:   0.000D+00 0.000D+00 0.100D+01
 Coeff:      0.000D+00 0.000D+00 0.100D+01
 Gap=     0.223 Goal=   None    Shift=    0.000
 RMSDP=2.11D-03 MaxDP=1.75D-01 DE=-3.29D-01 OVMax= 3.16D-01

 Cycle   4  Pass 0  IDiag  1:
 RMSU=  7.95D-04    CP:  9.68D-01  1.33D+00 -1.94D-01
 E= -1910.50995253181     Delta-E=        0.668561012433 Rises=F Damp=F
 DIIS: error= 2.87D-02 at cycle   4 NSaved=   4.
 NSaved= 4 IEnMin= 3 EnMin= -1911.17851354424     IErMin= 2 ErrMin= 8.60D-03
 ErrMax= 2.87D-02 EMaxC= 1.00D-01 BMatC= 9.09D-01 BMatP= 1.17D-01
 IDIUse=2 WtCom= 0.00D+00 WtEn= 1.00D+00
 Coeff-En:   0.000D+00 0.000D+00 0.808D+00 0.192D+00
 Coeff:      0.000D+00 0.000D+00 0.808D+00 0.192D+00
 Gap=     0.181 Goal=   None    Shift=    0.000
 RMSDP=1.16D-03 MaxDP=9.44D-02 DE= 6.69D-01 OVMax= 1.31D-01

 Cycle   5  Pass 0  IDiag  1:
 RMSU=  1.89D-04    CP:  9.67D-01  1.01D+00  4.04D-01  5.12D-01
 E= -1911.24191609509     Delta-E=       -0.731963563280 Rises=F Damp=F
 DIIS: error= 7.81D-03 at cycle   5 NSaved=   5.
 NSaved= 5 IEnMin= 5 EnMin= -1911.24191609509     IErMin= 5 ErrMin= 7.81D-03
 ErrMax= 7.81D-03 EMaxC= 1.00D-01 BMatC= 6.76D-02 BMatP= 1.17D-01
 IDIUse=3 WtCom= 9.22D-01 WtEn= 7.81D-02
 Coeff-Com:  0.390D-02 0.386D-01 0.353D+00-0.585D-01 0.663D+00
 Coeff-En:   0.000D+00 0.000D+00 0.370D+00 0.000D+00 0.630D+00
 Coeff:      0.359D-02 0.356D-01 0.354D+00-0.539D-01 0.661D+00
 Gap=     0.199 Goal=   None    Shift=    0.000
 RMSDP=4.36D-04 MaxDP=2.76D-02 DE=-7.32D-01 OVMax= 6.73D-02

 Cycle   6  Pass 0  IDiag  1:
 RMSU=  6.42D-05    CP:  9.66D-01  9.34D-01  6.51D-01  3.07D-01  6.75D-01
 E= -1911.30226741526     Delta-E=       -0.060351320170 Rises=F Damp=F
 DIIS: error= 9.18D-04 at cycle   6 NSaved=   6.
 NSaved= 6 IEnMin= 6 EnMin= -1911.30226741526     IErMin= 6 ErrMin= 9.18D-04
 ErrMax= 9.18D-04 EMaxC= 1.00D-01 BMatC= 1.10D-03 BMatP= 6.76D-02
 IDIUse=3 WtCom= 9.91D-01 WtEn= 9.18D-03
 Coeff-Com: -0.377D-02 0.221D-01 0.174D+00-0.619D-01 0.440D+00 0.429D+00
 Coeff-En:   0.000D+00 0.000D+00 0.000D+00 0.000D+00 0.000D+00 0.100D+01
 Coeff:     -0.373D-02 0.219D-01 0.173D+00-0.613D-01 0.436D+00 0.434D+00
 Gap=     0.191 Goal=   None    Shift=    0.000
 RMSDP=5.65D-05 MaxDP=4.44D-03 DE=-6.04D-02 OVMax= 1.12D-02

 Cycle   7  Pass 0  IDiag  1:
 RMSU=  1.85D-05    CP:  9.66D-01  9.39D-01  6.45D-01  3.07D-01  7.59D-01
                    CP:  5.25D-01
 E= -1911.30320808661     Delta-E=       -0.000940671353 Rises=F Damp=F
 DIIS: error= 3.13D-04 at cycle   7 NSaved=   7.
 NSaved= 7 IEnMin= 7 EnMin= -1911.30320808661     IErMin= 7 ErrMin= 3.13D-04
 ErrMax= 3.13D-04 EMaxC= 1.00D-01 BMatC= 7.06D-05 BMatP= 1.10D-03
 IDIUse=3 WtCom= 9.97D-01 WtEn= 3.13D-03
 Coeff-Com: -0.160D-02 0.775D-02 0.670D-01-0.291D-01 0.180D+00 0.228D+00
 Coeff-Com:  0.548D+00
 Coeff-En:   0.000D+00 0.000D+00 0.000D+00 0.000D+00 0.000D+00 0.000D+00
 Coeff-En:   0.100D+01
 Coeff:     -0.159D-02 0.773D-02 0.667D-01-0.290D-01 0.180D+00 0.227D+00
 Coeff:      0.549D+00
 Gap=     0.191 Goal=   None    Shift=    0.000
 RMSDP=1.87D-05 MaxDP=1.84D-03 DE=-9.41D-04 OVMax= 2.62D-03

 Cycle   8  Pass 0  IDiag  1:
 RMSU=  9.65D-06    CP:  9.66D-01  9.37D-01  6.47D-01  3.06D-01  7.63D-01
                    CP:  5.72D-01  5.73D-01
 E= -1911.30325614614     Delta-E=       -0.000048059529 Rises=F Damp=F
 DIIS: error= 1.14D-04 at cycle   8 NSaved=   8.
 NSaved= 8 IEnMin= 8 EnMin= -1911.30325614614     IErMin= 8 ErrMin= 1.14D-04
 ErrMax= 1.14D-04 EMaxC= 1.00D-01 BMatC= 1.95D-05 BMatP= 7.06D-05
 IDIUse=3 WtCom= 9.99D-01 WtEn= 1.14D-03
 Coeff-Com:  0.376D-03-0.168D-02 0.102D-01-0.437D-02 0.231D-01 0.530D-01
 Coeff-Com:  0.382D+00 0.538D+00
 Coeff-En:   0.000D+00 0.000D+00 0.000D+00 0.000D+00 0.000D+00 0.000D+00
 Coeff-En:   0.195D+00 0.805D+00
 Coeff:      0.376D-03-0.168D-02 0.102D-01-0.437D-02 0.231D-01 0.529D-01
 Coeff:      0.381D+00 0.538D+00
 Gap=     0.191 Goal=   None    Shift=    0.000
 RMSDP=8.59D-06 MaxDP=6.04D-04 DE=-4.81D-05 OVMax= 1.17D-03

 Initial convergence to 1.0D-05 achieved.  Increase integral accuracy.
 Cycle   9  Pass 1  IDiag  1:
 E= -1911.30317113184     Delta-E=        0.000085014306 Rises=F Damp=F
 DIIS: error= 2.10D-04 at cycle   1 NSaved=   1.
 NSaved= 1 IEnMin= 1 EnMin= -1911.30317113184     IErMin= 1 ErrMin= 2.10D-04
 ErrMax= 2.10D-04 EMaxC= 1.00D-01 BMatC= 1.67D-05 BMatP= 1.67D-05
 IDIUse=3 WtCom= 9.98D-01 WtEn= 2.10D-03
 Coeff-Com:  0.100D+01
 Coeff-En:   0.100D+01
 Coeff:      0.100D+01
 Gap=     0.191 Goal=   None    Shift=    0.000
 RMSDP=8.59D-06 MaxDP=6.04D-04 DE= 8.50D-05 OVMax= 8.77D-04

 Cycle  10  Pass 1  IDiag  1:
 RMSU=  1.17D-04    CP:  1.00D+00
 E= -1911.30318364624     Delta-E=       -0.000012514407 Rises=F Damp=F
 DIIS: error= 5.49D-05 at cycle   2 NSaved=   2.
 NSaved= 2 IEnMin= 2 EnMin= -1911.30318364624     IErMin= 2 ErrMin= 5.49D-05
 ErrMax= 5.49D-05 EMaxC= 1.00D-01 BMatC= 4.12D-06 BMatP= 1.67D-05
 IDIUse=1 WtCom= 1.00D+00 WtEn= 0.00D+00
 Coeff-Com:  0.245D+00 0.755D+00
 Coeff:      0.245D+00 0.755D+00
 Gap=     0.191 Goal=   None    Shift=    0.000
 RMSDP=8.31D-06 MaxDP=7.35D-04 DE=-1.25D-05 OVMax= 1.44D-03

 Cycle  11  Pass 1  IDiag  1:
 RMSU=  5.82D-06    CP:  1.00D+00  1.01D+00
 E= -1911.30317981462     Delta-E=        0.000003831620 Rises=F Damp=F
 DIIS: error= 8.56D-05 at cycle   3 NSaved=   3.
 NSaved= 3 IEnMin= 2 EnMin= -1911.30318364624     IErMin= 2 ErrMin= 5.49D-05
 ErrMax= 8.56D-05 EMaxC= 1.00D-01 BMatC= 8.09D-06 BMatP= 4.12D-06
 IDIUse=1 WtCom= 1.00D+00 WtEn= 0.00D+00
 Coeff-Com:  0.452D-02 0.583D+00 0.413D+00
 Coeff:      0.452D-02 0.583D+00 0.413D+00
 Gap=     0.191 Goal=   None    Shift=    0.000
 RMSDP=5.10D-06 MaxDP=4.59D-04 DE= 3.83D-06 OVMax= 9.42D-04

 Cycle  12  Pass 1  IDiag  1:
 RMSU=  9.05D-07    CP:  1.00D+00  1.01D+00  4.05D-01
 E= -1911.30318747899     Delta-E=       -0.000007664371 Rises=F Damp=F
 DIIS: error= 1.45D-05 at cycle   4 NSaved=   4.
 NSaved= 4 IEnMin= 4 EnMin= -1911.30318747899     IErMin= 4 ErrMin= 1.45D-05
 ErrMax= 1.45D-05 EMaxC= 1.00D-01 BMatC= 2.01D-07 BMatP= 4.12D-06
 IDIUse=1 WtCom= 1.00D+00 WtEn= 0.00D+00
 Coeff-Com: -0.351D-02 0.361D+00 0.269D+00 0.374D+00
 Coeff:     -0.351D-02 0.361D+00 0.269D+00 0.374D+00
 Gap=     0.191 Goal=   None    Shift=    0.000
 RMSDP=8.07D-07 MaxDP=7.69D-05 DE=-7.66D-06 OVMax= 9.89D-05

 Cycle  13  Pass 1  IDiag  1:
 RMSU=  2.35D-07    CP:  1.00D+00  1.01D+00  4.24D-01  4.40D-01
 E= -1911.30318765616     Delta-E=       -0.000000177166 Rises=F Damp=F
 DIIS: error= 1.90D-06 at cycle   5 NSaved=   5.
 NSaved= 5 IEnMin= 5 EnMin= -1911.30318765616     IErMin= 5 ErrMin= 1.90D-06
 ErrMax= 1.90D-06 EMaxC= 1.00D-01 BMatC= 3.44D-09 BMatP= 2.01D-07
 IDIUse=1 WtCom= 1.00D+00 WtEn= 0.00D+00
 Coeff-Com: -0.218D-02 0.196D+00 0.146D+00 0.220D+00 0.440D+00
 Coeff:     -0.218D-02 0.196D+00 0.146D+00 0.220D+00 0.440D+00
 Gap=     0.191 Goal=   None    Shift=    0.000
 RMSDP=1.19D-07 MaxDP=1.06D-05 DE=-1.77D-07 OVMax= 2.18D-05

 Cycle  14  Pass 1  IDiag  1:
 RMSU=  7.21D-08    CP:  1.00D+00  1.01D+00  4.24D-01  4.52D-01  8.22D-01
 E= -1911.30318765924     Delta-E=       -0.000000003080 Rises=F Damp=F
 DIIS: error= 5.00D-07 at cycle   6 NSaved=   6.
 NSaved= 6 IEnMin= 6 EnMin= -1911.30318765924     IErMin= 6 ErrMin= 5.00D-07
 ErrMax= 5.00D-07 EMaxC= 1.00D-01 BMatC= 2.49D-10 BMatP= 3.44D-09
 IDIUse=1 WtCom= 1.00D+00 WtEn= 0.00D+00
 Coeff-Com: -0.970D-03 0.838D-01 0.624D-01 0.959D-01 0.258D+00 0.501D+00
 Coeff:     -0.970D-03 0.838D-01 0.624D-01 0.959D-01 0.258D+00 0.501D+00
 Gap=     0.191 Goal=   None    Shift=    0.000
 RMSDP=3.78D-08 MaxDP=2.27D-06 DE=-3.08D-09 OVMax= 5.44D-06

 Cycle  15  Pass 1  IDiag  1:
 RMSU=  2.16D-08    CP:  1.00D+00  1.01D+00  4.23D-01  4.55D-01  8.41D-01
                    CP:  8.02D-01
 E= -1911.30318765950     Delta-E=       -0.000000000256 Rises=F Damp=F
 DIIS: error= 2.11D-07 at cycle   7 NSaved=   7.
 NSaved= 7 IEnMin= 7 EnMin= -1911.30318765950     IErMin= 7 ErrMin= 2.11D-07
 ErrMax= 2.11D-07 EMaxC= 1.00D-01 BMatC= 4.32D-11 BMatP= 2.49D-10
 IDIUse=1 WtCom= 1.00D+00 WtEn= 0.00D+00
 Coeff-Com: -0.231D-03 0.186D-01 0.139D-01 0.217D-01 0.877D-01 0.318D+00
 Coeff-Com:  0.540D+00
 Coeff:     -0.231D-03 0.186D-01 0.139D-01 0.217D-01 0.877D-01 0.318D+00
 Coeff:      0.540D+00
 Gap=     0.191 Goal=   None    Shift=    0.000
 RMSDP=1.40D-08 MaxDP=1.37D-06 DE=-2.56D-10 OVMax= 1.46D-06

 Cycle  16  Pass 1  IDiag  1:
 RMSU=  6.55D-09    CP:  1.00D+00  1.01D+00  4.23D-01  4.56D-01  8.47D-01
                    CP:  8.43D-01  7.03D-01
 E= -1911.30318765945     Delta-E=        0.000000000050 Rises=F Damp=F
 DIIS: error= 9.62D-08 at cycle   8 NSaved=   8.
 NSaved= 8 IEnMin= 7 EnMin= -1911.30318765950     IErMin= 8 ErrMin= 9.62D-08
 ErrMax= 9.62D-08 EMaxC= 1.00D-01 BMatC= 7.93D-12 BMatP= 4.32D-11
 IDIUse=1 WtCom= 1.00D+00 WtEn= 0.00D+00
 Coeff-Com: -0.674D-05-0.382D-03-0.274D-03-0.365D-03 0.199D-01 0.139D+00
 Coeff-Com:  0.355D+00 0.486D+00
 Coeff:     -0.674D-05-0.382D-03-0.274D-03-0.365D-03 0.199D-01 0.139D+00
 Coeff:      0.355D+00 0.486D+00
 Gap=     0.191 Goal=   None    Shift=    0.000
 RMSDP=5.51D-09 MaxDP=5.68D-07 DE= 5.00D-11 OVMax= 5.93D-07

 SCF Done:  E(RB3LYP) =  -1911.30318766     A.U. after   16 cycles
             Convg  =    0.5514D-08             -V/T =  2.0048
 KE= 1.902222550528D+03 PE=-1.122388756360D+04 EE= 4.034034497961D+03
 Leave Link  502 at Tue Sep  6 09:44:57 2022, MaxMem=  209715200 cpu:    6790.1
 (Enter /opt/gaussian/l601.exe)
 Copying SCF densities to generalized density rwf, IOpCl= 0 IROHF=0.

 **********************************************************************

            Population analysis using the SCF density.

 **********************************************************************

 Orbital symmetries:
       Occupied  (A) (A) (A) (A) (A) (A) (A) (A) (A) (A) (A) (A)
                 (A) (A) (A) (A) (A) (A) (A) (A) (A) (A) (A) (A)
                 (A) (A) (A) (A) (A) (A) (A) (A) (A) (A) (A) (A)
                 (A) (A) (A) (A) (A) (A) (A) (A) (A) (A) (A) (A)
                 (A) (A) (A) (A) (A) (A) (A) (A) (A) (A) (A) (A)
                 (A) (A) (A) (A) (A) (A) (A) (A) (A) (A) (A) (A)
                 (A) (A) (A) (A) (A) (A) (A) (A) (A) (A) (A) (A)
                 (A) (A) (A) (A) (A) (A) (A) (A) (A) (A) (A) (A)
                 (A) (A) (A) (A) (A) (A) (A) (A) (A) (A) (A) (A)
                 (A) (A) (A) (A) (A) (A) (A) (A) (A) (A) (A) (A)
                 (A) (A)
       Virtual   (A) (A) (A) (A) (A) (A) (A) (A) (A) (A) (A) (A)
                 (A) (A) (A) (A) (A) (A) (A) (A) (A) (A) (A) (A)
                 (A) (A) (A) (A) (A) (A) (A) (A) (A) (A) (A) (A)
                 (A) (A) (A) (A) (A) (A) (A) (A) (A) (A) (A) (A)
                 (A) (A) (A) (A) (A) (A) (A) (A) (A) (A) (A) (A)
                 (A) (A) (A) (A) (A) (A) (A) (A) (A) (A) (A) (A)
                 (A) (A) (A) (A) (A) (A) (A) (A) (A) (A) (A) (A)
                 (A) (A) (A) (A) (A) (A) (A) (A) (A) (A) (A) (A)
                 (A) (A) (A) (A) (A) (A) (A) (A) (A) (A) (A) (A)
                 (A) (A) (A) (A) (A) (A) (A) (A) (A) (A) (A) (A)
                 (A) (A) (A) (A) (A) (A) (A) (A) (A) (A) (A) (A)
                 (A) (A) (A) (A) (A) (A) (A) (A) (A) (A) (A) (A)
                 (A) (A) (A) (A) (A) (A) (A) (A) (A) (A) (A) (A)
                 (A) (A) (A) (A) (A) (A) (A) (A) (A) (A) (A) (A)
                 (A) (A) (A) (A) (A) (A) (A) (A) (A) (A) (A) (A)
                 (A) (A) (A) (A) (A) (A) (A) (A) (A) (A) (A) (A)
                 (A) (A) (A) (A) (A) (A) (A) (A) (A) (A) (A) (A)
                 (A) (A) (A) (A) (A) (A) (A) (A) (A) (A) (A) (A)
                 (A) (A) (A) (A) (A) (A) (A) (A) (A) (A) (A) (A)
                 (A) (A) (A) (A) (A) (A) (A) (A) (A) (A) (A) (A)
                 (A) (A) (A) (A) (A) (A) (A) (A) (A) (A) (A) (A)
                 (A) (A) (A) (A) (A) (A) (A) (A) (A) (A) (A) (A)
                 (A) (A) (A) (A) (A) (A) (A) (A) (A) (A) (A) (A)
                 (A) (A) (A) (A) (A) (A) (A) (A) (A) (A) (A) (A)
                 (A) (A) (A) (A) (A) (A) (A) (A) (A) (A) (A) (A)
                 (A) (A) (A) (A) (A) (A) (A) (A) (A) (A) (A) (A)
                 (A) (A) (A) (A) (A) (A) (A) (A) (A) (A) (A) (A)
                 (A) (A) (A) (A) (A) (A) (A) (A) (A) (A) (A) (A)
                 (A) (A) (A) (A) (A) (A) (A) (A) (A) (A) (A) (A)
                 (A) (A) (A) (A) (A) (A) (A) (A) (A) (A) (A) (A)
                 (A) (A) (A) (A) (A) (A) (A) (A) (A) (A) (A) (A)
                 (A) (A) (A) (A) (A) (A) (A) (A) (A) (A) (A) (A)
                 (A) (A) (A) (A) (A) (A) (A) (A) (A) (A) (A) (A)
                 (A) (A) (A) (A) (A) (A) (A) (A) (A) (A) (A) (A)
                 (A) (A) (A) (A) (A) (A) (A) (A) (A) (A) (A) (A)
                 (A) (A) (A) (A) (A) (A) (A) (A) (A) (A) (A) (A)
                 (A) (A) (A) (A) (A) (A) (A) (A) (A) (A) (A) (A)
                 (A) (A) (A) (A) (A) (A) (A) (A) (A)
 The electronic state is 1-A.
 Alpha  occ. eigenvalues -- -101.55432 -24.71734 -19.12469 -14.42300 -14.40363
 Alpha  occ. eigenvalues --  -14.38777 -14.35939 -14.32799 -10.30654 -10.29174
 Alpha  occ. eigenvalues --  -10.27162 -10.25423 -10.25099 -10.24439 -10.23864
 Alpha  occ. eigenvalues --  -10.23084 -10.22489 -10.22432 -10.21863 -10.21750
 Alpha  occ. eigenvalues --  -10.21464 -10.21399 -10.21241 -10.21222 -10.21150
 Alpha  occ. eigenvalues --  -10.20795 -10.20641 -10.20525 -10.20514 -10.20452
 Alpha  occ. eigenvalues --  -10.20356 -10.20346 -10.20254 -10.19906  -9.47173
 Alpha  occ. eigenvalues --   -7.23451  -7.22459  -7.22426  -1.22787  -1.11448
 Alpha  occ. eigenvalues --   -1.05835  -0.96889  -0.95204  -0.94000  -0.91208
 Alpha  occ. eigenvalues --   -0.88297  -0.87988  -0.85495  -0.82561  -0.80251
 Alpha  occ. eigenvalues --   -0.79404  -0.78851  -0.77985  -0.77266  -0.76328
 Alpha  occ. eigenvalues --   -0.75992  -0.74623  -0.72596  -0.66616  -0.66042
 Alpha  occ. eigenvalues --   -0.65079  -0.63908  -0.63822  -0.63179  -0.62464
 Alpha  occ. eigenvalues --   -0.61928  -0.60567  -0.58094  -0.55566  -0.54956
 Alpha  occ. eigenvalues --   -0.54401  -0.53940  -0.53010  -0.52085  -0.51902
 Alpha  occ. eigenvalues --   -0.51094  -0.50159  -0.50094  -0.48450  -0.48205
 Alpha  occ. eigenvalues --   -0.47828  -0.47368  -0.46458  -0.46214  -0.45905
 Alpha  occ. eigenvalues --   -0.45596  -0.45509  -0.45038  -0.44320  -0.44013
 Alpha  occ. eigenvalues --   -0.43307  -0.42685  -0.41991  -0.41234  -0.40965
 Alpha  occ. eigenvalues --   -0.40523  -0.40445  -0.39996  -0.39422  -0.38671
 Alpha  occ. eigenvalues --   -0.38481  -0.37926  -0.37204  -0.37081  -0.36790
 Alpha  occ. eigenvalues --   -0.36540  -0.34737  -0.34001  -0.32561  -0.32394
 Alpha  occ. eigenvalues --   -0.30815  -0.29034  -0.28289  -0.27760  -0.27583
 Alpha  occ. eigenvalues --   -0.27079  -0.26857  -0.26585  -0.26251  -0.25665
 Alpha  occ. eigenvalues --   -0.24529  -0.24211
 Alpha virt. eigenvalues --   -0.05093  -0.05047  -0.03921  -0.03136  -0.03050
 Alpha virt. eigenvalues --   -0.02546  -0.01272  -0.00087   0.00233   0.00927
 Alpha virt. eigenvalues --    0.02654   0.05655   0.06451   0.06731   0.07608
 Alpha virt. eigenvalues --    0.08006   0.09000   0.09131   0.09731   0.10225
 Alpha virt. eigenvalues --    0.10505   0.10794   0.11193   0.11504   0.12334
 Alpha virt. eigenvalues --    0.12681   0.13226   0.13480   0.13663   0.14627
 Alpha virt. eigenvalues --    0.14888   0.15172   0.15341   0.15763   0.16603
 Alpha virt. eigenvalues --    0.17080   0.17658   0.18983   0.20068   0.20787
 Alpha virt. eigenvalues --    0.22205   0.22616   0.22913   0.23334   0.24095
 Alpha virt. eigenvalues --    0.24525   0.25907   0.26041   0.27207   0.27795
 Alpha virt. eigenvalues --    0.28475   0.29161   0.29886   0.30150   0.31134
 Alpha virt. eigenvalues --    0.31670   0.32845   0.34110   0.34568   0.34796
 Alpha virt. eigenvalues --    0.35520   0.36266   0.36596   0.37395   0.37648
 Alpha virt. eigenvalues --    0.38280   0.38351   0.41441   0.42397   0.42578
 Alpha virt. eigenvalues --    0.42939   0.43801   0.44373   0.44621   0.45137
 Alpha virt. eigenvalues --    0.45342   0.45564   0.45742   0.46347   0.46503
 Alpha virt. eigenvalues --    0.46562   0.47181   0.47435   0.47606   0.48016
 Alpha virt. eigenvalues --    0.48362   0.48614   0.48737   0.49217   0.49405
 Alpha virt. eigenvalues --    0.49566   0.49974   0.49999   0.50487   0.50617
 Alpha virt. eigenvalues --    0.50661   0.51020   0.51817   0.51974   0.52114
 Alpha virt. eigenvalues --    0.52636   0.53188   0.53576   0.53757   0.54111
 Alpha virt. eigenvalues --    0.54976   0.55160   0.55458   0.55737   0.56129
 Alpha virt. eigenvalues --    0.56749   0.57378   0.57707   0.58331   0.58777
 Alpha virt. eigenvalues --    0.59484   0.59795   0.60169   0.60516   0.60893
 Alpha virt. eigenvalues --    0.61402   0.62082   0.62238   0.62974   0.63292
 Alpha virt. eigenvalues --    0.63818   0.64251   0.64577   0.64900   0.65286
 Alpha virt. eigenvalues --    0.65544   0.66074   0.66235   0.66873   0.67112
 Alpha virt. eigenvalues --    0.67503   0.67651   0.68113   0.68559   0.68929
 Alpha virt. eigenvalues --    0.69548   0.70128   0.70276   0.70891   0.71594
 Alpha virt. eigenvalues --    0.71705   0.72112   0.72934   0.73043   0.73596
 Alpha virt. eigenvalues --    0.74014   0.74897   0.75922   0.76803   0.78264
 Alpha virt. eigenvalues --    0.78508   0.79721   0.80246   0.80786   0.81722
 Alpha virt. eigenvalues --    0.83751   0.83889   0.84874   0.84986   0.85630
 Alpha virt. eigenvalues --    0.86201   0.86458   0.87088   0.87500   0.87981
 Alpha virt. eigenvalues --    0.88110   0.88386   0.88686   0.89279   0.89965
 Alpha virt. eigenvalues --    0.90738   0.91312   0.91519   0.91941   0.92818
 Alpha virt. eigenvalues --    0.93420   0.93659   0.93904   0.95036   0.95604
 Alpha virt. eigenvalues --    0.96382   0.96686   0.97887   0.98478   0.98541
 Alpha virt. eigenvalues --    0.98723   0.99132   0.99356   1.00226   1.00539
 Alpha virt. eigenvalues --    1.01188   1.01429   1.01523   1.01972   1.02380
 Alpha virt. eigenvalues --    1.02795   1.03413   1.04263   1.04633   1.05468
 Alpha virt. eigenvalues --    1.05601   1.06093   1.06278   1.06752   1.07012
 Alpha virt. eigenvalues --    1.07530   1.08470   1.09110   1.09997   1.10637
 Alpha virt. eigenvalues --    1.11626   1.12030   1.12372   1.13197   1.14680
 Alpha virt. eigenvalues --    1.14957   1.15307   1.16001   1.16722   1.18617
 Alpha virt. eigenvalues --    1.19020   1.19758   1.20073   1.20980   1.21579
 Alpha virt. eigenvalues --    1.23382   1.24144   1.24656   1.25713   1.26871
 Alpha virt. eigenvalues --    1.28108   1.29196   1.29814   1.30409   1.30840
 Alpha virt. eigenvalues --    1.31116   1.33084   1.33911   1.34278   1.36197
 Alpha virt. eigenvalues --    1.36435   1.38094   1.38748   1.40307   1.40941
 Alpha virt. eigenvalues --    1.42122   1.44150   1.45023   1.46610   1.47372
 Alpha virt. eigenvalues --    1.47560   1.48078   1.48425   1.48750   1.49022
 Alpha virt. eigenvalues --    1.49475   1.49601   1.49843   1.50827   1.51760
 Alpha virt. eigenvalues --    1.52407   1.52546   1.53014   1.53305   1.55074
 Alpha virt. eigenvalues --    1.55327   1.55798   1.56022   1.57014   1.57526
 Alpha virt. eigenvalues --    1.58274   1.58781   1.59262   1.59696   1.59787
 Alpha virt. eigenvalues --    1.60663   1.61201   1.61703   1.62135   1.62753
 Alpha virt. eigenvalues --    1.62992   1.63327   1.63441   1.64197   1.64500
 Alpha virt. eigenvalues --    1.65178   1.65406   1.65743   1.66130   1.66365
 Alpha virt. eigenvalues --    1.67396   1.67802   1.68373   1.69141   1.69707
 Alpha virt. eigenvalues --    1.69928   1.71194   1.71744   1.71858   1.72365
 Alpha virt. eigenvalues --    1.72996   1.73500   1.73841   1.74724   1.74857
 Alpha virt. eigenvalues --    1.75379   1.76099   1.76462   1.76966   1.77437
 Alpha virt. eigenvalues --    1.77630   1.77994   1.78522   1.78987   1.79942
 Alpha virt. eigenvalues --    1.80479   1.80964   1.81261   1.82141   1.83098
 Alpha virt. eigenvalues --    1.83455   1.83989   1.84373   1.85132   1.85511
 Alpha virt. eigenvalues --    1.85682   1.86289   1.86745   1.87371   1.88280
 Alpha virt. eigenvalues --    1.88527   1.88926   1.89158   1.90335   1.90499
 Alpha virt. eigenvalues --    1.91616   1.92498   1.93480   1.93620   1.94898
 Alpha virt. eigenvalues --    1.95600   1.96699   1.97168   1.98619   1.98697
 Alpha virt. eigenvalues --    1.99544   1.99916   2.01057   2.01421   2.02343
 Alpha virt. eigenvalues --    2.02524   2.03226   2.03858   2.04500   2.05094
 Alpha virt. eigenvalues --    2.05837   2.06899   2.07951   2.08177   2.10162
 Alpha virt. eigenvalues --    2.10604   2.12297   2.14202   2.14528   2.15136
 Alpha virt. eigenvalues --    2.16808   2.17167   2.18731   2.18899   2.19331
 Alpha virt. eigenvalues --    2.20094   2.20942   2.22276   2.23034   2.24116
 Alpha virt. eigenvalues --    2.25560   2.25970   2.28851   2.29991   2.31429
 Alpha virt. eigenvalues --    2.34074   2.34498   2.36181   2.38720   2.41509
 Alpha virt. eigenvalues --    2.42035   2.42546   2.43180   2.43549   2.44325
 Alpha virt. eigenvalues --    2.46448   2.46749   2.46828   2.47588   2.48454
 Alpha virt. eigenvalues --    2.49261   2.49974   2.50345   2.50851   2.51679
 Alpha virt. eigenvalues --    2.52834   2.53886   2.54494   2.55446   2.56225
 Alpha virt. eigenvalues --    2.57755   2.60948   2.63511   2.63929   2.64881
 Alpha virt. eigenvalues --    2.68610   2.68957   2.69891   2.70375   2.71249
 Alpha virt. eigenvalues --    2.73749   2.74161   2.75469   2.75905   2.76461
 Alpha virt. eigenvalues --    2.77212   2.77696   2.79274   2.81858   2.82844
 Alpha virt. eigenvalues --    2.83833   2.86746   2.88067   2.89979   2.94044
 Alpha virt. eigenvalues --    2.95626   2.98713   2.99472   3.01536   3.09164
 Alpha virt. eigenvalues --    3.11031   3.13410   3.27125   3.39780   3.45721
 Alpha virt. eigenvalues --    3.48526   3.56525   3.59312   3.59417   3.60293
 Alpha virt. eigenvalues --    3.74679   3.97050   4.19152
          Condensed to atoms (all electrons):
 Mulliken atomic charges:
              1
     1  F   -0.175910
     2  C    0.132322
     3  C    0.142664
     4  C   -0.154955
     5  C    0.168384
     6  C   -0.111482
     7  C    0.046864
     8  C    0.185803
     9  N   -0.274554
    10  C    0.115301
    11  O   -0.264805
    12  C    0.203401
    13  N   -0.250153
    14  N   -0.065642
    15  N   -0.173041
    16  C   -0.003789
    17  C    0.062978
    18  C    0.052071
    19  C    0.055719
    20  C    0.047714
    21  C    0.182034
    22  C    0.054795
    23  C    0.079847
    24  C    0.045601
    25  C    0.025412
    26  C    0.039472
    27  C    0.105519
    28  C   -0.063605
    29  C    0.097455
    30  C   -0.001369
    31  C    0.122277
    32  N   -0.171611
    33  C    0.121502
    34  Cl  -0.090635
    35  H   -0.009940
    36  H   -0.042937
    37  H   -0.012153
    38  H    0.028144
    39  H    0.044159
    40  H    0.039228
    41  H    0.044623
    42  H   -0.031142
    43  H   -0.034046
    44  H   -0.029813
    45  H   -0.019560
    46  H   -0.039503
    47  H   -0.043920
    48  H   -0.039563
    49  H   -0.033740
    50  H   -0.040386
    51  H   -0.034154
    52  H   -0.012721
    53  H   -0.018163
 Sum of Mulliken atomic charges =   0.00000
 Mulliken charges with hydrogens summed into heavy atoms:
              1
     1  F   -0.175910
     2  C    0.132322
     3  C    0.132724
     4  C   -0.154955
     5  C    0.125447
     6  C   -0.111482
     7  C    0.034710
     8  C    0.258107
     9  N   -0.274554
    10  C    0.115301
    11  O   -0.264805
    12  C    0.287252
    13  N   -0.250153
    14  N   -0.065642
    15  N   -0.173041
    16  C   -0.003789
    17  C    0.031837
    18  C    0.018026
    19  C    0.025906
    20  C    0.028154
    21  C    0.182034
    22  C    0.054795
    23  C    0.040344
    24  C    0.001680
    25  C    0.025412
    26  C   -0.000091
    27  C    0.071780
    28  C   -0.063605
    29  C    0.057069
    30  C   -0.035522
    31  C    0.109556
    32  N   -0.171611
    33  C    0.103338
    34  Cl  -0.090635
 Sum of Mulliken charges with hydrogens summed into heavy atoms =   0.00000
 Electronic spatial extent (au):  <R**2>=          20888.0454
 Charge=              0.0000 electrons
 Dipole moment (field-independent basis, Debye):
    X=              0.9360    Y=             -0.7681    Z=             -1.8322  Tot=              2.1962
 Quadrupole moment (field-independent basis, Debye-Ang):
   XX=           -214.0259   YY=           -197.5568   ZZ=           -199.3035
   XY=              8.0254   XZ=            -21.4998   YZ=              4.2040
 Traceless Quadrupole moment (field-independent basis, Debye-Ang):
   XX=            -10.3971   YY=              6.0719   ZZ=              4.3252
   XY=              8.0254   XZ=            -21.4998   YZ=              4.2040
 Octapole moment (field-independent basis, Debye-Ang**2):
  XXX=             41.3297  YYY=            -51.6065  ZZZ=             -8.2694  XYY=            -79.5756
  XXY=             13.3533  XXZ=            -63.3427  XZZ=             10.3908  YZZ=             12.9867
  YYZ=              2.6650  XYZ=             16.4708
 Hexadecapole moment (field-independent basis, Debye-Ang**3):
 XXXX=         -17239.1742 YYYY=          -9523.6123 ZZZZ=          -1375.4374 XXXY=            151.3374
 XXXZ=           -952.3642 YYYX=            229.1129 YYYZ=            -20.2340 ZZZX=            -31.2713
 ZZZY=              3.6045 XXYY=          -4509.0206 XXZZ=          -3007.3385 YYZZ=          -1911.9947
 XXYZ=            212.5888 YYXZ=             -2.8845 ZZXY=            -21.7486
 N-N= 3.376327327453D+03 E-N=-1.122388758761D+04  KE= 1.902222550528D+03
 No NMR shielding tensors so no spin-rotation constants.
 Leave Link  601 at Tue Sep  6 09:44:58 2022, MaxMem=  209715200 cpu:       4.4
 (Enter /opt/gaussian/l701.exe)
 Compute integral first derivatives.
 ... and contract with generalized density number  0.
 Leave Link  701 at Tue Sep  6 09:44:58 2022, MaxMem=  209715200 cpu:       3.7
 (Enter /opt/gaussian/l702.exe)
 L702 exits ... SP integral derivatives will be done elsewhere.
 Leave Link  702 at Tue Sep  6 09:44:58 2022, MaxMem=  209715200 cpu:       0.2
 (Enter /opt/gaussian/l703.exe)
 Compute integral first derivatives, UseDBF=F ICtDFT=           0.
 Integral derivatives from FoFDir, PRISM(SPDF).
 Calling FoFJK, ICntrl=      2127 FMM=F ISym2X=0 I1Cent= 0 IOpClX= 0 NMat=1 NMatS=1 NMatT=0.
 FoFCou: FMM=F IPFlag=           0 FMFlag=      100000 FMFlg1=         800
         NFxFlg=           0 DoJE=F BraDBF=F KetDBF=F FulRan=T
         Omega=  0.000000  0.000000  1.000000  0.000000  0.000000 ICntrl=    2127 IOpCl=  0
         NMat0=    1 NMatS0=    1 NMatT0=    0 NMatD0=    1 NMtDS0=    0 NMtDT0=    0
         I1Cent=           0 NGrid=           0.
 Symmetry not used in FoFCou.
 Leave Link  703 at Tue Sep  6 09:49:40 2022, MaxMem=  209715200 cpu:    2248.2
 (Enter /opt/gaussian/l716.exe)
 Dipole        = 3.68253266D-01-3.02191963D-01-7.20853976D-01
 ***** Axes restored to original set *****
 -------------------------------------------------------------------
 Center     Atomic                   Forces (Hartrees/Bohr)
 Number     Number              X              Y              Z
 -------------------------------------------------------------------
      1        9           0.013044055   -0.005093605    0.003710761
      2        6          -0.025328944    0.009042434   -0.007585965
      3        6           0.000968200    0.001007696    0.000596947
      4        6           0.018282640    0.016157466    0.012152171
      5        6          -0.000408370   -0.002808996   -0.000872463
      6        6           0.001688489   -0.005803039   -0.001331409
      7        6           0.002519461   -0.000748312    0.000698184
      8        6           0.001433116    0.004870382    0.011648559
      9        7           0.002403953    0.004266431   -0.009094457
     10        6           0.004647215   -0.007393379    0.017056019
     11        8           0.001369930   -0.000192585   -0.001836505
     12        6           0.004234972   -0.005334140   -0.008690323
     13        7          -0.001577338    0.001129877    0.001265688
     14        7           0.005711195    0.016291103    0.005274890
     15        7          -0.011398389   -0.014868215   -0.014277446
     16        6          -0.007144221    0.009263108   -0.011280206
     17        6           0.000752221    0.003088189    0.000572790
     18        6           0.004887492    0.002588764    0.006262850
     19        6          -0.004745268   -0.002293157   -0.005848053
     20        6          -0.001215966    0.004031192   -0.002127503
     21        6           0.007784053    0.001982009    0.010329975
     22        6          -0.008938951    0.001847927    0.001153431
     23        6           0.002503435    0.000631341    0.000608071
     24        6          -0.002125299    0.002428053    0.001628472
     25        6           0.010355767   -0.001459615   -0.001284173
     26        6          -0.003136008   -0.001440114   -0.001428083
     27        6           0.002133074   -0.002374564   -0.000463126
     28        6          -0.012728487    0.002729250   -0.000378257
     29        6           0.003058265   -0.002006154    0.002423915
     30        6          -0.002474006    0.000003879    0.000644020
     31        6          -0.015114452    0.001854594    0.003171184
     32        7           0.009048089   -0.005321959    0.015616702
     33        6           0.011004658    0.001639190   -0.011524856
     34       17          -0.011069672   -0.009932529   -0.007406670
     35        1          -0.003849653    0.014075238    0.002683941
     36        1           0.013074983   -0.004776206    0.003880308
     37        1          -0.009885776   -0.008306095   -0.006001405
     38        1          -0.011463705   -0.006214807   -0.004558351
     39        1           0.008655230   -0.000224247   -0.009977039
     40        1          -0.002909603   -0.002450803    0.012535325
     41        1          -0.005838753    0.012639084   -0.004669450
     42        1          -0.008496888   -0.003301913   -0.011163503
[...]
 000109,-0.00000467,0.00000177,0.00000310,0.00000208,0.00000019,-0.0000
 0217,0.00000084,-0.00000115,0.00000303,-0.00000059,-0.00000099,-0.0000
 0517,0.00000245,0.00000084,0.00002104,-0.00000665,0.00014088,0.0001696
 0,0.00035217,0.00045174,-0.00014868,0.00016095,-0.00019211,-0.00048125
 ,0.00008564,-0.00257644,-0.00086881,0.00043793,0.00068258,-0.00033562,
 -0.00039982,-0.00042017,0.00008531,-0.00016745,-0.01446336,0.00929931,
 -0.01599498,-0.10513897,0.08444838,-0.23760077,0.00242832,-0.00023829,
 0.00409588,0.00101858,0.00180878,0.00288098,0.00042804,-0.00120676,-0.
 00027833,0.00486071,0.00244029,-0.00251951,0.00000042,0.00000726,0.000
 00425,-0.00000021,0.00000049,-0.00000092,0.00000369,-0.00000754,-0.000
 00870,0.00000091,-0.00000027,-0.00000081,-0.00000132,0.00000518,-0.000
 00086,0.00000877,-0.00000012,0.00000759,-0.00000491,-0.00000263,-0.000
 00137,-0.00000084,-0.00000150,-0.00000210,-0.00000028,-0.00000016,-0.0
 0000101,-0.00000051,-0.00000204,-0.00000043,0.00000031,-0.00000154,0.0
 0000095,0.00000256,0.00000583,-0.00000393,0.00000645,-0.00002249,-0.00
 000984,-0.00005445,0.00045588,0.00044727,-0.00001642,0.00004853,0.0000
 8582,0.00001849,0.00001261,-0.00000562,0.11410360,-0.09429741,0.248987
 01,-0.00002026,0.00001178,-0.00000718,0.00001798,-0.00001303,0.0000075
 5,-0.00000386,0.00000798,-0.00000064,-0.00001051,-0.00001900,-0.000010
 73,0.00000954,0.00001204,0.00000638,-0.00000348,-0.00000760,-0.0000144
 5,0.00000074,0.00001498,0.00000233,0.00001057,-0.00002233,0.00004992,-
 0.00012310,-0.00000856,0.00002864,0.00004873,0.00002986,-0.00009510,-0
 .00002776,-0.00002647,0.00003557,0.00001207,0.00001357,0.00001383,-0.0
 0001898,-0.00000230,-0.00001382,0.00001086,-0.00000624,0.00002703,-0.0
 0000834,-0.00001674,-0.00001196,-0.00000231,0.00000303,-0.00000462,0.0
 0000139,0.00000016,0.00000152,-0.00000067,-0.00000063,-0.00000146,0.00
 000013,0.00000337,0.00000111,0.00000017,-0.00000467,0.00000385,-0.0000
 0031,0.00001676,-0.00000631,0.00008966,-0.00000402,-0.00000134,-0.0000
 3069,0.00000529,-0.00001700,-0.00001485,0.00008706,0.00005574,0.000188
 13,-0.00028536,0.00143741,-0.00044981,-0.00003645,-0.00012721,-0.00001
 810,0.00012463,0.00005954,-0.00474219,0.00248661,-0.00105503,-0.010529
 34,-0.00639676,0.02680753,-0.13520146,-0.02238709,0.12433377,0.0115098
 0,0.00217383,-0.01254648,0.00018806,0.00222513,-0.00322045,-0.00139537
 ,0.00041246,-0.00080855,0.00000674,0.00000990,0.00000483,-0.00000129,0
 .00000018,0.00000076,-0.00000082,-0.00001200,0.00000047,0.00000050,-0.
 00000159,0.00000123,-0.00000578,0.00000821,-0.00000392,0.00000395,-0.0
 0000250,0.00000795,-0.00000562,-0.00000139,-0.00000158,-0.00000434,-0.
 00000226,-0.00000063,-0.00000091,-0.00000035,-0.00000075,-0.00000054,-
 0.00000176,-0.00000009,0.00000061,-0.00000012,0.00000056,0.00000300,0.
 00000402,-0.00000318,-0.00002817,-0.00000281,-0.00000615,0.00000183,-0
 .00003079,-0.00000296,0.00001489,-0.00002609,0.00001412,-0.00004339,0.
 00001190,0.00000480,0.00105027,-0.00077311,-0.00049382,0.13900862,-0.0
 0000516,0.00000079,-0.00000180,0.00000568,0.00000058,0.00000209,-0.000
 00271,-0.00000367,-0.00000195,0.00000817,0.00000787,0.00000694,-0.0000
 0143,-0.00000497,-0.00000089,0.00000146,0.00000231,0.00000294,-0.00000
 172,-0.00000153,-0.00000047,0.00000151,0.00000500,-0.00000361,-0.00000
 929,-0.00001381,0.00000923,0.00000527,0.00000378,-0.00000547,-0.000002
 83,-0.00000432,0.00000148,0.00000120,0.00000359,0.00000250,-0.00000258
 ,-0.00000140,-0.00000287,0.00000128,-0.00000342,0.00000401,-0.00000092
 ,-0.00000196,-0.00000167,-0.00000040,0.00000001,-0.00000059,0.00000049
 ,0.00000083,-0.00000021,0.00000083,-0.00000052,0.00000008,0.00000031,-
 0.00000021,-0.00000025,0.00000063,-0.00000057,0.00000022,-0.00000031,0
 .00000336,-0.00000098,0.00002066,0.00001292,0.00000871,-0.00000670,0.0
 0001224,0.00001444,-0.00001074,-0.00009243,0.00000649,0.00007211,0.000
 42532,-0.00017232,-0.00000256,-0.00010085,0.00004309,-0.00004895,-0.00
 001430,-0.00003669,0.00253782,0.00727554,0.00193374,0.00301168,0.00371
 777,-0.00452882,-0.02236563,-0.04762202,0.04713677,-0.00738282,0.00023
 203,0.00651813,0.00173580,0.00628368,0.00412005,0.00085688,-0.00043230
 ,-0.00003517,-0.00000618,-0.00000517,-0.00000377,0.00000085,0.00000010
 ,-0.00000034,0.00000106,0.00000259,-0.00000126,-0.00000011,0.00000069,
 -0.00000055,0.00000052,-0.00000025,0.00000036,0.00000106,0.00000100,0.
 00000028,-0.00000031,-0.00000025,-0.00000048,0.00000077,0.00000028,-0.
 00000025,-0.00000061,0.00000015,-0.00000004,-0.00000065,-0.00000055,0.
 00000025,-0.00000020,-0.00000005,0.00000070,0.00000006,0.00000072,0.00
 000012,-0.00000027,0.00000328,-0.00000026,-0.00004819,0.00002064,0.000
 02031,-0.00001352,-0.00001297,-0.00001820,0.00000544,0.00000838,-0.000
 00211,-0.00096314,-0.00357133,-0.00143467,0.02339265,0.03802604,0.0000
 1812,-0.00001081,0.00000568,-0.00001712,0.00001294,-0.00000560,0.00000
 255,-0.00000705,-0.00000040,0.00001134,0.00001999,0.00001173,-0.000006
 64,-0.00001141,-0.00000668,0.00000185,0.00000764,0.00001035,-0.0000004
 2,-0.00001272,-0.00000319,-0.00000959,0.00001795,-0.00003172,0.0000826
 8,-0.00000323,-0.00002503,-0.00003919,-0.00002017,0.00006619,0.0000243
 0,0.00001697,-0.00002692,-0.00000860,-0.00000849,-0.00000802,0.0000143
 6,0.00000159,0.00000976,-0.00000646,0.00000465,-0.00001994,0.00000694,
 0.00001163,0.00000776,0.00000131,-0.00000223,0.00000351,-0.00000081,-0
 .00000033,-0.00000159,0.00000093,-0.00000028,0.00000046,0.00000056,-0.
 00000259,-0.00000098,0.00000058,0.00000327,-0.00000317,-0.00000021,-0.
 00001145,0.00000478,-0.00005996,0.00000113,0.00000475,0.00000379,0.000
 01056,-0.00001092,0.00005526,-0.00003641,-0.00001775,-0.00037380,0.000
 14261,0.00010233,-0.00001341,0.00000718,0.00003344,0.00000033,-0.00000
 682,0.00001244,-0.00032337,0.00169702,0.00272564,-0.00243839,0.0002616
 0,0.00336866,0.12442692,0.04684597,-0.25161483,0.01845180,0.00180032,-
 0.01424853,-0.00280551,0.00410493,-0.00388419,-0.00195282,0.00007899,0
 .00043883,-0.00000737,-0.00001035,-0.00000615,0.00000092,-0.00000008,-
 0.00000016,0.00000046,0.00000882,0.00000117,-0.00000117,0.00000129,-0.
 00000036,0.00000313,-0.00000599,0.00000284,-0.00000243,0.00000098,-0.0
 0000504,0.00000371,0.00000146,0.00000095,0.00000298,0.00000173,0.00000
 094,0.00000009,0.00000014,0.00000095,-0.00000006,0.00000145,0.00000040
 ,-0.00000110,-0.00000006,-0.00000010,-0.00000297,-0.00000266,0.0000028
 0,0.00001038,0.00000124,0.00000673,-0.00002768,-0.00000894,-0.00000852
 ,-0.00001029,0.00000880,0.00000470,0.00000443,0.00000009,-0.00000283,0
 .00006735,-0.00144710,0.00037854,-0.13476856,-0.05196169,0.26259847,-0
 .00002755,0.00001485,-0.00000872,0.00002671,-0.00001683,0.00000863,-0.
 00000507,0.00000687,-0.00000058,-0.00000973,-0.00002127,-0.00001095,0.
 00000811,0.00001170,0.00000843,-0.00000063,-0.00000838,-0.00000990,-0.
 00000104,0.00001517,0.00000385,0.00001233,-0.00002241,0.00003429,-0.00
 010469,-0.00000051,0.00003265,0.00005654,0.00002970,-0.00008096,-0.000
 03567,-0.00002412,0.00003397,0.00001168,0.00001298,0.00000997,-0.00002
 007,-0.00000308,-0.00001376,0.00000835,-0.00000853,0.00002776,-0.00000
 942,-0.00001578,-0.00001041,-0.00000188,0.00000282,-0.00000491,0.00000
 128,0.00000110,0.00000209,-0.00000077,0.00000002,-0.00000017,-0.000000
 97,0.00000350,0.00000077,-0.00000073,-0.00000451,0.00000423,0.00000033
 ,0.00001682,-0.00000666,0.00008659,0.00000435,0.00001913,0.00000717,-0
 .00002404,-0.00002210,-0.00011017,0.00003252,0.00001909,0.00004453,-0.
 00024525,-0.00020208,0.00001172,0.00000894,-0.00000371,-0.00002481,0.0
 0003324,-0.00003987,0.00027861,-0.00003120,-0.00015902,0.00072554,0.00
 176349,-0.00249830,-0.00945369,0.00166419,0.00311585,-0.31924269,0.049
 73643,-0.01402315,-0.01643812,-0.00107509,0.01010889,0.00202330,0.0007
 4312,0.00184659,0.00000546,0.00001035,0.00000569,-0.00000062,0.0000001
 9,-0.00000014,0.00000061,-0.00000977,-0.00000236,0.00000145,-0.0000012
 4,0.,-0.00000327,0.00000736,-0.00000361,0.00000427,-0.00000109,0.00000
 666,-0.00000458,-0.00000220,-0.00000137,-0.00000333,-0.00000204,-0.000
 00149,-0.00000023,-0.00000007,-0.00000130,-0.00000021,-0.00000220,-0.0
 0000056,0.00000140,-0.00000012,0.00000047,0.00000400,0.00000404,-0.000
 00385,-0.00001889,-0.00000461,-0.00000633,0.00002010,0.00002522,0.0000
 1351,0.00001322,-0.00004173,-0.00002218,-0.00000681,0.00000174,0.00000
 598,-0.00058768,-0.00001072,0.00017558,0.00039795,-0.00041172,-0.00047
 910,0.34278425,0.00000629,-0.00000471,0.00000168,-0.00000578,0.0000061
 5,-0.00000158,-0.00000002,-0.00000496,-0.00000125,0.00000936,0.0000144
 4,0.00000915,-0.00000278,-0.00000765,-0.00000368,0.00000103,0.00000483
 ,0.00000574,-0.00000136,-0.00000655,-0.00000192,-0.00000619,0.00001087
 ,-0.00001572,0.00004649,0.00000075,-0.00003315,-0.00000968,-0.00001609
 ,0.00004893,-0.00000008,0.00001151,-0.00001871,-0.00000364,-0.00000274
 ,-0.00000496,0.00000490,0.00000008,0.00000298,-0.00000215,0.00000044,-
 0.00000715,0.00000268,0.00000434,0.00000260,0.00000042,-0.00000090,0.0
 0000134,-0.00000018,0.00000020,-0.00000090,0.00000088,-0.00000027,0.00
 000024,0.00000037,-0.00000112,-0.00000074,0.00000074,0.00000122,-0.000
 00117,-0.00000037,-0.00000374,0.00000171,0.00001306,0.00004759,0.00017
 034,0.00010237,-0.00003014,-0.00019407,-0.00029350,0.00007323,0.000129
 21,-0.00054273,-0.00144518,-0.00050461,0.00032090,-0.00001647,-0.00007
 659,-0.00016151,0.00002472,-0.00010180,-0.00001121,-0.00055390,0.00032
 616,0.00138685,0.00564513,0.00358174,0.01037334,0.00456767,0.00033637,
 0.04985385,-0.05075317,0.00605116,-0.00835268,-0.00244545,-0.00118627,
 -0.00005360,0.00934001,0.00333194,-0.00000652,-0.00000756,-0.00000527,
 0.00000072,0.,0.,0.00000057,0.00000488,0.00000112,-0.00000075,0.000000
 81,-0.00000024,0.00000198,-0.00000295,0.00000083,-0.00000100,-0.000000
 06,-0.00000247,0.00000252,0.00000061,0.00000007,0.00000157,0.00000097,
 0.00000041,-0.00000026,0.00000016,0.00000041,-0.00000043,0.00000036,0.
 00000027,-0.00000061,0.00000003,0.00000040,-0.00000131,-0.00000087,0.0
 0000144,-0.00001779,-0.00000557,0.00000547,-0.00001973,-0.00000876,-0.
 00003581,0.00001927,-0.00002581,-0.00002969,0.00000579,-0.00001186,-0.
 00000013,0.00049248,-0.00037095,-0.00010850,-0.00066199,-0.00258837,-0
 .00100539,-0.05236455,0.03805273,0.00000346,-0.00000250,0.00000093,-0.
 00000292,0.00000307,-0.00000102,0.00000031,-0.00000261,-0.00000056,0.0
 0000449,0.00000680,0.00000429,-0.00000190,-0.00000400,-0.00000154,0.00
 000136,0.00000242,0.00000414,-0.00000076,-0.00000391,-0.00000093,-0.00
 000191,0.00000694,-0.00001319,0.00003050,-0.00000115,-0.00000821,-0.00
 001031,-0.00000631,0.00002524,0.00000519,0.00000559,-0.00000850,-0.000
 00277,-0.00000312,-0.00000308,0.00000377,0.00000029,0.00000238,-0.0000
 0195,0.00000105,-0.00000549,0.00000190,0.00000333,0.00000229,0.0000003
 9,-0.00000066,0.00000093,-0.00000007,0.00000009,-0.00000039,0.00000039
 ,-0.00000002,0.00000009,0.00000040,-0.00000111,-0.00000015,0.00000029,
 0.00000097,-0.00000118,-0.00000015,-0.00000320,0.00000132,0.00000177,0
 .00003406,0.00008428,0.00008759,-0.00000491,-0.00003876,-0.00006861,-0
 .00004312,-0.00001695,-0.00016422,-0.00051339,0.00015339,0.00010678,-0
 .00004592,-0.00004977,-0.00009350,0.00002374,-0.00000617,0.00054865,-0
 .00003949,-0.00077804,-0.00136732,0.00353622,-0.00373785,-0.02501978,0
 .00465981,0.00436286,-0.01429504,0.00648375,-0.05405541,0.03402527,-0.
 00552996,-0.00437569,0.00402555,0.00323683,-0.00230656,-0.00000316,-0.
 00000369,-0.00000235,0.00000034,-0.00000004,0.00000003,0.00000042,0.00
 000320,-0.00000032,-0.00000034,0.00000045,-0.00000018,0.00000155,-0.00
 000229,0.00000129,-0.00000015,0.00000057,-0.00000177,0.00000147,0.0000
 0037,0.00000024,0.00000137,0.00000060,0.00000023,-0.00000007,0.0000000
 9,0.00000025,-0.00000009,0.00000033,0.00000026,-0.00000040,0.00000005,
 0.00000010,-0.00000109,-0.00000085,0.00000110,0.00000253,-0.00000078,0
 .00000102,0.00001404,0.00003456,0.00002376,-0.00000458,0.00002806,0.00
 002149,0.00000054,-0.00000435,-0.00000115,-0.00134449,0.00014178,0.000
 04835,0.00032487,-0.00109917,0.00034965,0.00220459,-0.01087895,0.06027
 112,0.00001596,-0.00000977,0.00000436,-0.00001493,0.00001166,-0.000003
 93,0.00000180,-0.00000795,-0.00000170,0.00001401,0.00002280,0.00001363
 ,-0.00000594,-0.00001268,-0.00000667,0.00000266,0.00000900,0.00000861,
 -0.00000150,-0.00001279,-0.00000400,-0.00001129,0.00002183,-0.00002762
 ,0.00010226,0.00001410,-0.00004515,-0.00003975,-0.00002968,0.00008404,
 0.00002201,0.00002214,-0.00003075,-0.00001004,-0.00001320,-0.00000892,
 0.00001518,0.00000246,0.00000931,-0.00000593,0.00000779,-0.00002127,0.
 00000692,0.00001151,0.00000783,0.00000137,-0.00000178,0.00000353,-0.00
 000079,-0.00000124,-0.00000140,0.00000043,0.00000102,-0.00000035,0.000
 00150,-0.00000385,0.00000047,0.00000099,0.00000387,-0.00000366,-0.0000
 0085,-0.00001460,0.00000517,-0.00005541,0.00007435,0.00031734,0.000240
 05,-0.00005222,-0.00015170,-0.00019521,-0.00011666,-0.00009001,0.00100
 506,-0.00040110,-0.00056904,-0.00016516,0.00058495,0.00007163,-0.00045
 730,-0.00014633,-0.00007792,0.00868132,0.00425859,-0.01291101,-0.00129
 070,0.00213627,-0.00250492,-0.00069725,-0.00006412,0.00008406,-0.00375
 045,0.00211654,0.00091021,-0.02668317,-0.00564840,0.02866013,-0.101029
 76,-0.02580895,0.10199066,-0.00000916,-0.00001157,-0.00000798,0.000000
 79,-0.00000025,0.00000047,0.00000049,0.00001029,0.00000169,-0.00000142
 ,0.00000107,-0.00000005,0.00000351,-0.00000665,0.00000235,-0.00000066,
 0.00000082,-0.00000902,0.00000498,0.00000191,0.00000086,0.00000426,0.0
 0000187,0.00000138,-0.00000002,0.00000018,0.00000086,0.00000026,0.0000
 0152,0.00000073,-0.00000080,0.00000083,-0.00000034,-0.00000361,-0.0000
 0419,0.00000411,0.00001071,0.00000626,0.00000257,0.00000184,0.00001911
 ,0.00001238,-0.00052405,0.00071659,-0.00021987,0.00001375,0.00004646,-
 0.00002167,0.00050928,0.00018449,-0.00087780,0.00011608,-0.00037454,0.
 00015994,-0.00042217,-0.00012607,0.00098583,0.12459990,-0.00002533,0.0
 0001169,-0.00000898,0.00002388,-0.00001146,0.00000946,-0.00000703,0.00
 000154,-0.00000344,0.00000203,-0.00000449,0.00000024,0.00001009,0.0000
 0274,0.00000383,0.00000010,-0.00000280,-0.00000565,-0.00000366,0.00000
 963,0.00000141,-0.00000316,-0.00002052,0.00002879,-0.00007106,-0.00000
 489,-0.00003348,0.00006186,0.00003043,-0.00005181,-0.00004564,-0.00003
 899,0.00002356,0.00001162,0.00001813,0.00001196,-0.00001850,-0.0000052
 6,-0.00001402,0.00000797,-0.00001494,0.00002654,-0.00000785,-0.0000137
 4,-0.00000996,-0.00000222,0.00000091,-0.00000442,0.00000163,0.00000317
 ,0.00000103,0.00000109,-0.00000363,0.00000042,-0.00000049,0.00000303,-
 0.00000226,0.00000141,-0.00000536,0.00000258,0.00000003,0.00002291,-0.
 00000678,0.00005038,0.00009319,0.00030205,0.00022179,-0.00004997,-0.00
 027463,-0.00046254,0.00010682,-0.00031404,0.00035881,-0.00212905,-0.00
 080795,0.00080632,-0.00009727,0.00085453,-0.00028820,-0.00013303,-0.00
 045170,-0.00616671,0.00475427,0.00890109,0.00281577,0.00484944,0.00287
 397,-0.00009525,-0.00035278,-0.00041331,0.00307206,0.00941483,0.002569
 43,0.00233044,-0.00188364,-0.00821593,-0.02524707,-0.05718273,0.060074
 20,-0.00000333,0.00000160,-0.00000205,-0.00000018,0.00000023,0.0000003
 1,0.00000223,-0.00000696,0.00000163,0.00000033,-0.00000006,-0.00000023
 ,-0.00000427,0.00000878,-0.00000624,0.00000622,-0.00000181,0.00000477,
 -0.00000381,-0.00000112,-0.00000196,-0.00000228,-0.00000138,-0.0000009
 7,-0.00000073,-0.00000018,-0.00000058,-0.00000141,-0.00000192,-0.00000
 023,-0.00000102,-0.00000200,0.00000214,0.00000100,0.00000713,-0.000002
 22,-0.00000767,-0.00002225,-0.00000104,-0.00007518,-0.00007143,-0.0000
 4595,0.00066237,-0.00058693,-0.00032237,0.00003752,-0.00001299,0.00001
 444,-0.00042166,-0.00032416,0.00035650,-0.00030140,-0.00157425,-0.0004
 9669,0.00020237,0.00050206,-0.00001954,0.02257831,0.04471946,0.0000232
 3,-0.00001375,0.00000778,-0.00002191,0.00001669,-0.00000717,0.00000339
 ,-0.00000864,-0.00000042,0.00001292,0.00002282,0.00001416,-0.00000948,
 -0.00001262,-0.00000527,0.00000122,0.00000804,0.00000786,-0.00000037,-
 0.00001546,-0.00000231,-0.00000919,0.00004493,-0.00003209,0.00010333,0
 .00000340,0.00001105,-0.00006154,-0.00000816,0.00002106,0.00005448,0.0
 0000408,0.00000171,-0.00000934,-0.00001441,-0.00000701,0.00001825,0.00
 000077,0.00001321,-0.00001049,0.00000143,-0.00002616,0.00000928,0.0000
 1732,0.00001153,0.00000171,-0.00000404,0.00000447,-0.00000086,0.000001
 39,-0.00000235,0.00000216,-0.00000221,0.00000140,0.00000102,-0.0000048
 0,-0.00000276,0.00000198,0.00000420,-0.00000575,0.00000010,-0.00001064
 ,0.00000589,-0.00004538,0.00020749,0.00029659,0.00040721,-0.00010696,-
 0.00013516,-0.00082980,-0.00010847,-0.00031382,0.00199603,-0.00113813,
 0.00000076,0.00004776,-0.00070093,-0.00014202,-0.00039534,-0.00004252,
 0.00029264,0.01269370,0.00538142,-0.01600079,-0.00330678,0.00325247,-0
 .00200123,-0.00089760,0.00002553,0.00005873,-0.00122250,0.00258651,0.0
 0413431,0.00506734,-0.00400176,0.00441948,0.10115580,0.05901868,-0.262
 85470,-0.00000858,-0.00001253,-0.00000636,0.00000133,-0.00000014,-0.00
 000067,-0.00000043,0.00001374,-0.00000374,-0.00000077,0.00000221,-0.00
 000160,0.00000559,-0.00000853,0.00000532,-0.00000502,0.00000211,-0.000
 00945,0.00000276,0.00000218,0.00000115,0.00000574,0.00000205,0.0000011
 4,0.00000027,0.00000028,0.00000133,-0.00000051,0.00000195,0.00000067,-
 0.00000271,-0.00000117,0.00000100,-0.00000574,-0.00000178,0.00000510,-
 0.00001395,0.00001920,-0.00000519,0.00004627,0.00006099,0.00007386,0.0
 0037281,0.00034130,0.00058989,-0.00002104,-0.00002634,0.00000030,0.000
 66943,0.00005460,-0.00102886,-0.00000732,-0.00051636,-0.00022184,-0.00
 007112,0.00020901,0.00005418,-0.11574738,-0.06454640,0.27278016\\0.000
 00454,-0.00000397,-0.00000300,-0.00000693,0.00000315,-0.00000306,-0.00
 000226,-0.00000152,-0.00000413,0.00000227,0.00000023,-0.00000155,-0.00
 000251,0.00000240,-0.00000280,0.00000099,-0.00000385,-0.00000170,0.000
 00399,-0.00000282,-0.00000189,-0.00000289,0.00000483,0.00000044,-0.000
 00632,-0.00000415,-0.00000271,0.00000445,0.00000320,-0.00000127,-0.000
 00556,0.00000105,0.00000198,0.00000051,-0.00000416,-0.00000287,-0.0000
 0378,0.00000401,0.00000807,0.00000021,-0.00000484,-0.00000414,-0.00000
 160,0.00000135,-0.00000014,0.00000548,-0.00000577,0.00000264,0.0000000
 6,-0.00000100,-0.00000085,0.00000166,-0.00000011,0.00000230,-0.0000009
 3,0.00000011,-0.00000073,-0.00000162,0.00000110,0.00000317,0.00000230,
 -0.00000190,-0.00000563,0.00000634,-0.00000083,0.00000171,-0.00000043,
 0.00000056,-0.00000017,0.00000153,-0.00000039,0.00000049,-0.00000383,-
 0.00000084,0.00000141,-0.00000071,0.00000256,0.00000139,0.00000069,0.0
 0000252,0.00000031,0.00000219,0.00000043,0.00000230,0.00000012,0.00000
 078,0.00000039,0.00000223,-0.00000042,0.00000365,-0.00000042,0.0000026
 6,-0.00000018,0.00000075,0.00000030,0.00000415,-0.00000107,0.00000282,
 0.00000112,-0.00000344,-0.00000098,-0.00000398,0.00000044,-0.00000207,
 -0.00000358,-0.00000118,0.00000061,-0.00000138,-0.00000019,0.00000025,
 -0.00000181,0.00000132,-0.00000088,-0.00000174,0.00000100,-0.00000159,
 0.00000052,-0.00000080,0.00000132,-0.00000156,0.00000080,-0.00000101,-
 0.00000029,0.00000220,-0.00000065,0.00000173,0.00000140,0.00000087,0.0
 0000198,-0.00000045,0.00000152,0.00000028,-0.00000084,0.00000052,-0.00
 000138,0.00000068,0.00000040,0.00000248,0.00000149,0.00000036,0.000003
 45,-0.00000104,0.00000077,-0.00000132,-0.00000033,0.00000069,-0.000003
 00,0.00000062,-0.00000092,0.00000345,0.00000049,-0.00000020,0.00000479
 ,-0.00000120,0.00000159,0.00000241,-0.00000041,0.00000194,0.00000024\\
 \@


 WERE I TO AWAIT PERFECTION, MY BOOK WOULD NEVER BE FINISHED.
                                    -- HISTORY OF CHINESE WRITING

                                       TAI T'UNG, 13TH CENTURY
 Job cpu time:  0 days 23 hours 30 minutes 16.0 seconds.
 File lengths (MBytes):  RWF=   1984 Int=      0 D2E=      0 Chk=     27 Scr=      1
 Normal termination of Gaussian 09 at Tue Sep  6 15:53:53 2022.
