 Entering Gaussian System, Link 0=g09
 Input=Mol41.gjf
 Output=Mol41.log
 Initial command:
 /opt/gaussian/l1.exe /home/scr/lqcapf-6/Gau-481193.inp -scrdir=/home/scr/lqcapf-6/
 Entering Link 1 = /opt/gaussian/l1.exe PID=    481195.
  
 Copyright (c) 1988,1990,1992,1993,1995,1998,2003,2009,2011,
            Gaussian, Inc.  All Rights Reserved.
  
 This is part of the Gaussian(R) 09 program.  It is based on
 the Gaussian(R) 03 system (copyright 2003, Gaussian, Inc.),
 the Gaussian(R) 98 system (copyright 1998, Gaussian, Inc.),
 the Gaussian(R) 94 system (copyright 1995, Gaussian, Inc.),
 the Gaussian 92(TM) system (copyright 1992, Gaussian, Inc.),
 the Gaussian 90(TM) system (copyright 1990, Gaussian, Inc.),
 the Gaussian 88(TM) system (copyright 1988, Gaussian, Inc.),
 the Gaussian 86(TM) system (copyright 1986, Carnegie Mellon
 University), and the Gaussian 82(TM) system (copyright 1983,
 Carnegie Mellon University). Gaussian is a federally registered
 trademark of Gaussian, Inc.
  
 This software contains proprietary and confidential information,
 including trade secrets, belonging to Gaussian, Inc.
  
 This software is provided under written license and may be
 used, copied, transmitted, or stored only in accord with that
 written license.
  
 The following legend is applicable only to US Government
 contracts under FAR:
  
                    RESTRICTED RIGHTS LEGEND
  
 Use, reproduction and disclosure by the US Government is
 subject to restrictions as set forth in subparagraphs (a)
 and (c) of the Commercial Computer Software - Restricted
 Rights clause in FAR 52.227-19.
  
 Gaussian, Inc.
 340 Quinnipiac St., Bldg. 40, Wallingford CT 06492
  
  
 ---------------------------------------------------------------
 Warning -- This program may not be used in any manner that
 competes with the business of Gaussian, Inc. or will provide
 assistance to any competitor of Gaussian, Inc.  The licensee
 of this program is prohibited from giving any competitor of
 Gaussian, Inc. access to this program.  By using this program,
 the user acknowledges that Gaussian, Inc. is engaged in the
 business of creating and licensing software in the field of
 computational chemistry and represents and warrants to the
 licensee that it is not a competitor of Gaussian, Inc. and that
 it will not use this program in any manner prohibited above.
 ---------------------------------------------------------------
  

 Cite this work as:
 Gaussian 09, Revision C.01,
 M. J. Frisch, G. W. Trucks, H. B. Schlegel, G. E. Scuseria, 
 M. A. Robb, J. R. Cheeseman, G. Scalmani, V. Barone, B. Mennucci, 
 G. A. Petersson, H. Nakatsuji, M. Caricato, X. Li, H. P. Hratchian, 
 A. F. Izmaylov, J. Bloino, G. Zheng, J. L. Sonnenberg, M. Hada, 
 M. Ehara, K. Toyota, R. Fukuda, J. Hasegawa, M. Ishida, T. Nakajima, 
 Y. Honda, O. Kitao, H. Nakai, T. Vreven, J. A. Montgomery, Jr., 
 J. E. Peralta, F. Ogliaro, M. Bearpark, J. J. Heyd, E. Brothers, 
 K. N. Kudin, V. N. Staroverov, T. Keith, R. Kobayashi, J. Normand, 
 K. Raghavachari, A. Rendell, J. C. Burant, S. S. Iyengar, J. Tomasi, 
 M. Cossi, N. Rega, J. M. Millam, M. Klene, J. E. Knox, J. B. Cross, 
 V. Bakken, C. Adamo, J. Jaramillo, R. Gomperts, R. E. Stratmann, 
 O. Yazyev, A. J. Austin, R. Cammi, C. Pomelli, J. W. Ochterski, 
 R. L. Martin, K. Morokuma, V. G. Zakrzewski, G. A. Voth, 
 P. Salvador, J. J. Dannenberg, S. Dapprich, A. D. Daniels, 
 O. Farkas, J. B. Foresman, J. V. Ortiz, J. Cioslowski, 
 and D. J. Fox, Gaussian, Inc., Wallingford CT, 2010.
 
 ******************************************
 Gaussian 09:  EM64L-G09RevC.01 23-Sep-2011
                 9-Sep-2022 
 ******************************************
 %nprocshared=8
 Will use up to    8 processors via shared memory.
 %mem=1600MB
 -------------------------
 #p opt freq b3lyp/cc-pvdz
 -------------------------
 1/14=-1,18=20,19=15,26=3,38=1/1,3;
 2/9=110,12=2,17=6,18=5,40=1/2;
 3/5=16,11=2,16=1,25=1,30=1,71=1,74=-5/1,2,3;
 4//1;
 5/5=2,38=5/2;
 6/7=2,8=2,9=2,10=2,28=1/1;
 7//1,2,3,16;
 1/14=-1,18=20,19=15/3(2);
 2/9=110/2;
 99//99;
 2/9=110/2;
 3/5=16,11=2,16=1,25=1,30=1,71=1,74=-5/1,2,3;
 4/5=5,16=3/1;
 5/5=2,38=5/2;
 7//1,2,3,16;
 1/14=-1,18=20,19=15/3(-5);
 2/9=110/2;
 6/7=2,8=2,9=2,10=2,19=2,28=1/1;
 99/9=1/99;
 Leave Link    1 at Fri Sep  9 20:50:50 2022, MaxMem=  209715200 cpu:       0.2
 (Enter /opt/gaussian/l101.exe)
 ---------
 Mol41.log
 ---------
 Charge =  0 Multiplicity = 1
 Symbolic Z-Matrix:
 C                    -4.21044   1.12997   0.47334 
 C                    -5.28473   1.8923    0.03198 
 C                    -4.3704    0.12562   1.43202 
 C                    -6.57266   1.69392   0.52909 
 C                    -5.64111  -0.06042   1.92017 
 C                    -6.73686   0.71478   1.47724 
 N                    -3.14336   1.62351  -0.21559 
 N                    -4.81015   2.79237  -0.90809 
 N                    -3.56076   2.62215  -1.04466 
 C                    -1.75963   1.2532   -0.20299 
 C                    -1.50362  -0.06391  -0.91897 
 N                    -0.20709  -0.39101  -1.16372 
 O                    -2.43384  -0.79987  -1.23638 
 C                     0.08038  -1.64843  -1.88282 
 C                     1.82124  -4.31376   0.16664 
 C                     0.77298  -5.00587   0.73268 
 C                     1.61941  -3.23857  -0.67574 
 C                    -0.52239  -4.59876   0.43906 
 C                     0.32205  -2.82868  -0.96552 
 C                    -0.74891  -3.52109  -0.40214 
 Cl                    3.51979  -4.82992   0.53549 
 C                     2.56004   1.00213   0.89405 
 C                     3.12045   1.93932   0.02807 
 C                     1.46591   0.24359   0.51176 
 C                     2.5533    2.09834  -1.23655 
 C                     0.90581   0.41236  -0.74761 
 C                     1.45972   1.34174  -1.6199 
 C                     4.27993   2.74885   0.41121 
 C                     5.00887   2.74987   1.56217 
 N                     4.80795   3.69535  -0.45675 
 N                     5.98548   3.70528   1.38999 
 C                     5.81633   4.24438   0.15227 
 H                    -3.55233  -0.48582   1.75419 
 H                    -7.38987   2.28943   0.1752 
 H                    -5.81325  -0.82288   2.65509 
 H                    -7.70808   0.52415   1.88931 
 H                    -1.21346   2.05419  -0.67435 
 H                    -1.40759   1.17765   0.81856 
 H                    -0.75824  -1.84867  -2.52986 
 H                     0.95076  -1.47118  -2.49777 
 H                     0.95812  -5.83937   1.37864 
 H                     2.46062  -2.72824  -1.10018 
 H                    -1.35166  -5.12951   0.86453 
 H                    -1.7499   -3.20942  -0.62615 
 H                     2.97542   0.85385   1.8717 
 H                     1.05329  -0.4852    1.18176 
 H                     2.97794   2.817    -1.9063 
 H                     1.03079   1.46993  -2.59537 
 H                     4.93023   2.17883   2.45664 
 H                     6.68304   3.95194   2.0474 
 H                     6.44008   5.0121   -0.24071 
 
 NAtoms=     51 NQM=        0 NQMF=       0 NMMI=     51 NMMIF=      0
                NMic=       0 NMicF=      0.
                    Isotopes and Nuclear Properties:
 (Nuclear quadrupole moments (NQMom) in fm**2, nuclear magnetic moments (NMagM)
  in nuclear magnetons)

  Atom         1           2           3           4           5           6           7           8           9          10
 IAtWgt=          12          12          12          12          12          12          14          14          14          12
 AtmWgt=  12.0000000  12.0000000  12.0000000  12.0000000  12.0000000  12.0000000  14.0030740  14.0030740  14.0030740  12.0000000
 NucSpn=           0           0           0           0           0           0           2           2           2           0
 AtZEff=   0.0000000   0.0000000   0.0000000   0.0000000   0.0000000   0.0000000   0.0000000   0.0000000   0.0000000   0.0000000
 NQMom=    0.0000000   0.0000000   0.0000000   0.0000000   0.0000000   0.0000000   2.0440000   2.0440000   2.0440000   0.0000000
 NMagM=    0.0000000   0.0000000   0.0000000   0.0000000   0.0000000   0.0000000   0.4037610   0.4037610   0.4037610   0.0000000

  Atom        11          12          13          14          15          16          17          18          19          20
 IAtWgt=          12          14          16          12          12          12          12          12          12          12
 AtmWgt=  12.0000000  14.0030740  15.9949146  12.0000000  12.0000000  12.0000000  12.0000000  12.0000000  12.0000000  12.0000000
 NucSpn=           0           2           0           0           0           0           0           0           0           0
 AtZEff=   0.0000000   0.0000000   0.0000000   0.0000000   0.0000000   0.0000000   0.0000000   0.0000000   0.0000000   0.0000000
 NQMom=    0.0000000   2.0440000   0.0000000   0.0000000   0.0000000   0.0000000   0.0000000   0.0000000   0.0000000   0.0000000
 NMagM=    0.0000000   0.4037610   0.0000000   0.0000000   0.0000000   0.0000000   0.0000000   0.0000000   0.0000000   0.0000000

  Atom        21          22          23          24          25          26          27          28          29          30
 IAtWgt=          35          12          12          12          12          12          12          12          12          14
 AtmWgt=  34.9688527  12.0000000  12.0000000  12.0000000  12.0000000  12.0000000  12.0000000  12.0000000  12.0000000  14.0030740
 NucSpn=           3           0           0           0           0           0           0           0           0           2
 AtZEff=   0.0000000   0.0000000   0.0000000   0.0000000   0.0000000   0.0000000   0.0000000   0.0000000   0.0000000   0.0000000
 NQMom=   -8.1650000   0.0000000   0.0000000   0.0000000   0.0000000   0.0000000   0.0000000   0.0000000   0.0000000   2.0440000
 NMagM=    0.8218740   0.0000000   0.0000000   0.0000000   0.0000000   0.0000000   0.0000000   0.0000000   0.0000000   0.4037610

  Atom        31          32          33          34          35          36          37          38          39          40
 IAtWgt=          14          12           1           1           1           1           1           1           1           1
 AtmWgt=  14.0030740  12.0000000   1.0078250   1.0078250   1.0078250   1.0078250   1.0078250   1.0078250   1.0078250   1.0078250
 NucSpn=           2           0           1           1           1           1           1           1           1           1
 AtZEff=   0.0000000   0.0000000   0.0000000   0.0000000   0.0000000   0.0000000   0.0000000   0.0000000   0.0000000   0.0000000
 NQMom=    2.0440000   0.0000000   0.0000000   0.0000000   0.0000000   0.0000000   0.0000000   0.0000000   0.0000000   0.0000000
 NMagM=    0.4037610   0.0000000   2.7928460   2.7928460   2.7928460   2.7928460   2.7928460   2.7928460   2.7928460   2.7928460

  Atom        41          42          43          44          45          46          47          48          49          50
 IAtWgt=           1           1           1           1           1           1           1           1           1           1
 AtmWgt=   1.0078250   1.0078250   1.0078250   1.0078250   1.0078250   1.0078250   1.0078250   1.0078250   1.0078250   1.0078250
 NucSpn=           1           1           1           1           1           1           1           1           1           1
 AtZEff=   0.0000000   0.0000000   0.0000000   0.0000000   0.0000000   0.0000000   0.0000000   0.0000000   0.0000000   0.0000000
 NQMom=    0.0000000   0.0000000   0.0000000   0.0000000   0.0000000   0.0000000   0.0000000   0.0000000   0.0000000   0.0000000
 NMagM=    2.7928460   2.7928460   2.7928460   2.7928460   2.7928460   2.7928460   2.7928460   2.7928460   2.7928460   2.7928460

  Atom        51
 IAtWgt=           1
 AtmWgt=   1.0078250
 NucSpn=           1
 AtZEff=   0.0000000
 NQMom=    0.0000000
 NMagM=    2.7928460
 Leave Link  101 at Fri Sep  9 20:50:50 2022, MaxMem=  209715200 cpu:       0.9
 (Enter /opt/gaussian/l103.exe)

 GradGradGradGradGradGradGradGradGradGradGradGradGradGradGradGradGradGrad
 Berny optimization.
 Initialization pass.
                           ----------------------------
                           !    Initial Parameters    !
                           ! (Angstroms and Degrees)  !
 --------------------------                            --------------------------
 ! Name  Definition              Value          Derivative Info.                !
 --------------------------------------------------------------------------------
 ! R1    R(1,2)                  1.3893         estimate D2E/DX2                !
 ! R2    R(1,3)                  1.3976         estimate D2E/DX2                !
 ! R3    R(1,7)                  1.3627         estimate D2E/DX2                !
 ! R4    R(2,4)                  1.3947         estimate D2E/DX2                !
 ! R5    R(2,8)                  1.3853         estimate D2E/DX2                !
 ! R6    R(3,5)                  1.3739         estimate D2E/DX2                !
 ! R7    R(3,33)                 1.0709         estimate D2E/DX2                !
 ! R8    R(4,6)                  1.3728         estimate D2E/DX2                !
 ! R9    R(4,34)                 1.0713         estimate D2E/DX2                !
 ! R10   R(5,6)                  1.4134         estimate D2E/DX2                !
 ! R11   R(5,35)                 1.0729         estimate D2E/DX2                !
 ! R12   R(6,36)                 1.0721         estimate D2E/DX2                !
 ! R13   R(7,9)                  1.3634         estimate D2E/DX2                !
 ! R14   R(7,10)                 1.4325         estimate D2E/DX2                !
 ! R15   R(8,9)                  1.2683         estimate D2E/DX2                !
 ! R16   R(10,11)                1.5208         estimate D2E/DX2                !
 ! R17   R(10,37)                1.078          estimate D2E/DX2                !
 ! R18   R(10,38)                1.0831         estimate D2E/DX2                !
 ! R19   R(11,12)                1.3594         estimate D2E/DX2                !
 ! R20   R(11,13)                1.2279         estimate D2E/DX2                !
 ! R21   R(12,14)                1.4768         estimate D2E/DX2                !
 ! R22   R(12,26)                1.4343         estimate D2E/DX2                !
 ! R23   R(14,19)                1.5142         estimate D2E/DX2                !
 ! R24   R(14,39)                1.078          estimate D2E/DX2                !
 ! R25   R(14,40)                1.0803         estimate D2E/DX2                !
 ! R26   R(15,16)                1.3778         estimate D2E/DX2                !
 ! R27   R(15,17)                1.3807         estimate D2E/DX2                !
 ! R28   R(15,21)                1.8132         estimate D2E/DX2                !
 ! R29   R(16,18)                1.3892         estimate D2E/DX2                !
 ! R30   R(16,41)                1.0706         estimate D2E/DX2                !
 ! R31   R(17,19)                1.3911         estimate D2E/DX2                !
 ! R32   R(17,42)                1.0716         estimate D2E/DX2                !
 ! R33   R(18,20)                1.3857         estimate D2E/DX2                !
 ! R34   R(18,43)                1.0726         estimate D2E/DX2                !
 ! R35   R(19,20)                1.3942         estimate D2E/DX2                !
 ! R36   R(20,44)                1.0721         estimate D2E/DX2                !
 ! R37   R(22,23)                1.3937         estimate D2E/DX2                !
 ! R38   R(22,24)                1.3852         estimate D2E/DX2                !
 ! R39   R(22,45)                1.0725         estimate D2E/DX2                !
 ! R40   R(23,25)                1.3951         estimate D2E/DX2                !
 ! R41   R(23,28)                1.4651         estimate D2E/DX2                !
 ! R42   R(24,26)                1.3886         estimate D2E/DX2                !
 ! R43   R(24,46)                1.0725         estimate D2E/DX2                !
 ! R44   R(25,27)                1.384          estimate D2E/DX2                !
 ! R45   R(25,47)                1.0702         estimate D2E/DX2                !
 ! R46   R(26,27)                1.3898         estimate D2E/DX2                !
 ! R47   R(27,48)                1.0733         estimate D2E/DX2                !
 ! R48   R(28,29)                1.3624         estimate D2E/DX2                !
 ! R49   R(28,30)                1.3885         estimate D2E/DX2                !
 ! R50   R(29,31)                1.377          estimate D2E/DX2                !
 ! R51   R(29,49)                1.0641         estimate D2E/DX2                !
 ! R52   R(30,32)                1.2997         estimate D2E/DX2                !
 ! R53   R(31,32)                1.3606         estimate D2E/DX2                !
 ! R54   R(31,50)                0.9898         estimate D2E/DX2                !
 ! R55   R(32,51)                1.0644         estimate D2E/DX2                !
 ! A1    A(2,1,3)              121.5832         estimate D2E/DX2                !
 ! A2    A(2,1,7)              104.2517         estimate D2E/DX2                !
 ! A3    A(3,1,7)              134.1616         estimate D2E/DX2                !
 ! A4    A(1,2,4)              121.5197         estimate D2E/DX2                !
 ! A5    A(1,2,8)              107.8906         estimate D2E/DX2                !
 ! A6    A(4,2,8)              130.5894         estimate D2E/DX2                !
 ! A7    A(1,3,5)              116.5433         estimate D2E/DX2                !
 ! A8    A(1,3,33)             121.9519         estimate D2E/DX2                !
 ! A9    A(5,3,33)             121.4877         estimate D2E/DX2                !
 ! A10   A(2,4,6)              117.2621         estimate D2E/DX2                !
 ! A11   A(2,4,34)             120.5044         estimate D2E/DX2                !
 ! A12   A(6,4,34)             122.2335         estimate D2E/DX2                !
 ! A13   A(3,5,6)              122.1005         estimate D2E/DX2                !
 ! A14   A(3,5,35)             119.2096         estimate D2E/DX2                !
 ! A15   A(6,5,35)             118.6879         estimate D2E/DX2                !
 ! A16   A(4,6,5)              120.9893         estimate D2E/DX2                !
 ! A17   A(4,6,36)             120.0415         estimate D2E/DX2                !
 ! A18   A(5,6,36)             118.9682         estimate D2E/DX2                !
 ! A19   A(1,7,9)              109.4501         estimate D2E/DX2                !
 ! A20   A(1,7,10)             131.1746         estimate D2E/DX2                !
 ! A21   A(9,7,10)             119.3685         estimate D2E/DX2                !
 ! A22   A(2,8,9)              108.8651         estimate D2E/DX2                !
 ! A23   A(7,9,8)              109.5364         estimate D2E/DX2                !
 ! A24   A(7,10,11)            112.4791         estimate D2E/DX2                !
 ! A25   A(7,10,37)            107.0666         estimate D2E/DX2                !
 ! A26   A(7,10,38)            109.8941         estimate D2E/DX2                !
 ! A27   A(11,10,37)           110.6319         estimate D2E/DX2                !
 ! A28   A(11,10,38)           109.2014         estimate D2E/DX2                !
 ! A29   A(37,10,38)           107.4305         estimate D2E/DX2                !
 ! A30   A(10,11,12)           116.9818         estimate D2E/DX2                !
 ! A31   A(10,11,13)           120.8808         estimate D2E/DX2                !
 ! A32   A(12,11,13)           122.1266         estimate D2E/DX2                !
 ! A33   A(11,12,14)           118.5692         estimate D2E/DX2                !
 ! A34   A(11,12,26)           123.5768         estimate D2E/DX2                !
 ! A35   A(14,12,26)           117.85           estimate D2E/DX2                !
 ! A36   A(12,14,19)           113.563          estimate D2E/DX2                !
 ! A37   A(12,14,39)           107.3978         estimate D2E/DX2                !
 ! A38   A(12,14,40)           107.1159         estimate D2E/DX2                !
 ! A39   A(19,14,39)           110.0594         estimate D2E/DX2                !
 ! A40   A(19,14,40)           110.1286         estimate D2E/DX2                !
 ! A41   A(39,14,40)           108.3954         estimate D2E/DX2                !
 ! A42   A(16,15,17)           122.0471         estimate D2E/DX2                !
 ! A43   A(16,15,21)           119.0888         estimate D2E/DX2                !
 ! A44   A(17,15,21)           118.8641         estimate D2E/DX2                !
 ! A45   A(15,16,18)           118.3849         estimate D2E/DX2                !
 ! A46   A(15,16,41)           120.4896         estimate D2E/DX2                !
 ! A47   A(18,16,41)           121.1248         estimate D2E/DX2                !
 ! A48   A(15,17,19)           119.5297         estimate D2E/DX2                !
 ! A49   A(15,17,42)           119.8529         estimate D2E/DX2                !
 ! A50   A(19,17,42)           120.6175         estimate D2E/DX2                !
 ! A51   A(16,18,20)           120.572          estimate D2E/DX2                !
 ! A52   A(16,18,43)           119.4771         estimate D2E/DX2                !
 ! A53   A(20,18,43)           119.9499         estimate D2E/DX2                !
 ! A54   A(14,19,17)           120.3121         estimate D2E/DX2                !
 ! A55   A(14,19,20)           120.6172         estimate D2E/DX2                !
 ! A56   A(17,19,20)           119.0706         estimate D2E/DX2                !
 ! A57   A(18,20,19)           120.3948         estimate D2E/DX2                !
 ! A58   A(18,20,44)           120.3685         estimate D2E/DX2                !
 ! A59   A(19,20,44)           119.2366         estimate D2E/DX2                !
 ! A60   A(23,22,24)           120.9568         estimate D2E/DX2                !
 ! A61   A(23,22,45)           120.2407         estimate D2E/DX2                !
 ! A62   A(24,22,45)           118.802          estimate D2E/DX2                !
 ! A63   A(22,23,25)           118.4535         estimate D2E/DX2                !
 ! A64   A(22,23,28)           121.8232         estimate D2E/DX2                !
 ! A65   A(25,23,28)           119.7232         estimate D2E/DX2                !
 ! A66   A(22,24,26)           120.1562         estimate D2E/DX2                !
 ! A67   A(22,24,46)           120.2382         estimate D2E/DX2                !
 ! A68   A(26,24,46)           119.6019         estimate D2E/DX2                !
 ! A69   A(23,25,27)           120.6653         estimate D2E/DX2                !
 ! A70   A(23,25,47)           118.8508         estimate D2E/DX2                !
 ! A71   A(27,25,47)           120.4839         estimate D2E/DX2                !
 ! A72   A(12,26,24)           120.5323         estimate D2E/DX2                !
 ! A73   A(12,26,27)           120.1153         estimate D2E/DX2                !
 ! A74   A(24,26,27)           119.3244         estimate D2E/DX2                !
 ! A75   A(25,27,26)           120.4426         estimate D2E/DX2                !
 ! A76   A(25,27,48)           120.1487         estimate D2E/DX2                !
 ! A77   A(26,27,48)           119.4087         estimate D2E/DX2                !
 ! A78   A(23,28,29)           130.1493         estimate D2E/DX2                !
 ! A79   A(23,28,30)           120.9387         estimate D2E/DX2                !
 ! A80   A(29,28,30)           108.9119         estimate D2E/DX2                !
 ! A81   A(28,29,31)           105.9233         estimate D2E/DX2                !
 ! A82   A(28,29,49)           132.0817         estimate D2E/DX2                !
 ! A83   A(31,29,49)           121.9946         estimate D2E/DX2                !
 ! A84   A(28,30,32)           106.8629         estimate D2E/DX2                !
 ! A85   A(29,31,32)           107.4867         estimate D2E/DX2                !
 ! A86   A(29,31,50)           126.1354         estimate D2E/DX2                !
 ! A87   A(32,31,50)           126.3778         estimate D2E/DX2                !
 ! A88   A(30,32,31)           110.8151         estimate D2E/DX2                !
 ! A89   A(30,32,51)           125.8995         estimate D2E/DX2                !
 ! A90   A(31,32,51)           123.2854         estimate D2E/DX2                !
 ! D1    D(3,1,2,4)              0.2424         estimate D2E/DX2                !
 ! D2    D(3,1,2,8)           -179.949          estimate D2E/DX2                !
 ! D3    D(7,1,2,4)           -179.1638         estimate D2E/DX2                !
 ! D4    D(7,1,2,8)              0.6448         estimate D2E/DX2                !
 ! D5    D(2,1,3,5)             -0.4535         estimate D2E/DX2                !
 ! D6    D(2,1,3,33)           178.0647         estimate D2E/DX2                !
 ! D7    D(7,1,3,5)            178.7442         estimate D2E/DX2                !
 ! D8    D(7,1,3,33)            -2.7376         estimate D2E/DX2                !
 ! D9    D(2,1,7,9)             -0.7982         estimate D2E/DX2                !
 ! D10   D(2,1,7,10)          -179.8194         estimate D2E/DX2                !
 ! D11   D(3,1,7,9)            179.9069         estimate D2E/DX2                !
 ! D12   D(3,1,7,10)             0.8858         estimate D2E/DX2                !
 ! D13   D(1,2,4,6)              0.1608         estimate D2E/DX2                !
 ! D14   D(1,2,4,34)          -179.8317         estimate D2E/DX2                !
 ! D15   D(8,2,4,6)           -179.5994         estimate D2E/DX2                !
 ! D16   D(8,2,4,34)             0.4082         estimate D2E/DX2                !
 ! D17   D(1,2,8,9)             -0.2611         estimate D2E/DX2                !
 ! D18   D(4,2,8,9)            179.5241         estimate D2E/DX2                !
 ! D19   D(1,3,5,6)              0.2805         estimate D2E/DX2                !
 ! D20   D(1,3,5,35)           179.7533         estimate D2E/DX2                !
 ! D21   D(33,3,5,6)          -178.2451         estimate D2E/DX2                !
 ! D22   D(33,3,5,35)            1.2276         estimate D2E/DX2                !
 ! D23   D(2,4,6,5)             -0.3329         estimate D2E/DX2                !
 ! D24   D(2,4,6,36)          -179.9617         estimate D2E/DX2                !
 ! D25   D(34,4,6,5)           179.6593         estimate D2E/DX2                !
 ! D26   D(34,4,6,36)            0.0305         estimate D2E/DX2                !
 ! D27   D(3,5,6,4)              0.1134         estimate D2E/DX2                !
 ! D28   D(3,5,6,36)           179.7461         estimate D2E/DX2                !
 ! D29   D(35,5,6,4)          -179.3621         estimate D2E/DX2                !
 ! D30   D(35,5,6,36)            0.2707         estimate D2E/DX2                !
 ! D31   D(1,7,9,8)              0.6802         estimate D2E/DX2                !
 ! D32   D(10,7,9,8)           179.8348         estimate D2E/DX2                !
 ! D33   D(1,7,10,11)           73.6703         estimate D2E/DX2                !
 ! D34   D(1,7,10,37)         -164.5984         estimate D2E/DX2                !
 ! D35   D(1,7,10,38)          -48.2179         estimate D2E/DX2                !
 ! D36   D(9,7,10,11)         -105.2706         estimate D2E/DX2                !
 ! D37   D(9,7,10,37)           16.4607         estimate D2E/DX2                !
 ! D38   D(9,7,10,38)          132.8412         estimate D2E/DX2                !
 ! D39   D(2,8,9,7)             -0.2469         estimate D2E/DX2                !
 ! D40   D(7,10,11,12)         169.055          estimate D2E/DX2                !
 ! D41   D(7,10,11,13)         -12.1139         estimate D2E/DX2                !
 ! D42   D(37,10,11,12)         49.3734         estimate D2E/DX2                !
 ! D43   D(37,10,11,13)       -131.7954         estimate D2E/DX2                !
 ! D44   D(38,10,11,12)        -68.6646         estimate D2E/DX2                !
 ! D45   D(38,10,11,13)        110.1666         estimate D2E/DX2                !
 ! D46   D(10,11,12,14)       -178.7059         estimate D2E/DX2                !
 ! D47   D(10,11,12,26)          2.0417         estimate D2E/DX2                !
 ! D48   D(13,11,12,14)          2.4786         estimate D2E/DX2                !
 ! D49   D(13,11,12,26)       -176.7738         estimate D2E/DX2                !
 ! D50   D(11,12,14,19)        -92.8151         estimate D2E/DX2                !
 ! D51   D(11,12,14,39)         29.1085         estimate D2E/DX2                !
 ! D52   D(11,12,14,40)        145.3732         estimate D2E/DX2                !
 ! D53   D(26,12,14,19)         86.4805         estimate D2E/DX2                !
 ! D54   D(26,12,14,39)       -151.596          estimate D2E/DX2                !
 ! D55   D(26,12,14,40)        -35.3313         estimate D2E/DX2                !
 ! D56   D(11,12,26,24)         87.5801         estimate D2E/DX2                !
 ! D57   D(11,12,26,27)        -94.3562         estimate D2E/DX2                !
 ! D58   D(14,12,26,24)        -91.6773         estimate D2E/DX2                !
 ! D59   D(14,12,26,27)         86.3864         estimate D2E/DX2                !
 ! D60   D(12,14,19,17)        -99.3997         estimate D2E/DX2                !
 ! D61   D(12,14,19,20)         80.7335         estimate D2E/DX2                !
 ! D62   D(39,14,19,17)        140.1682         estimate D2E/DX2                !
 ! D63   D(39,14,19,20)        -39.6986         estimate D2E/DX2                !
 ! D64   D(40,14,19,17)         20.7199         estimate D2E/DX2                !
 ! D65   D(40,14,19,20)       -159.1469         estimate D2E/DX2                !
 ! D66   D(17,15,16,18)         -0.0266         estimate D2E/DX2                !
 ! D67   D(17,15,16,41)        179.6837         estimate D2E/DX2                !
 ! D68   D(21,15,16,18)       -179.9357         estimate D2E/DX2                !
 ! D69   D(21,15,16,41)         -0.2254         estimate D2E/DX2                !
 ! D70   D(16,15,17,19)          0.2496         estimate D2E/DX2                !
 ! D71   D(16,15,17,42)       -179.7244         estimate D2E/DX2                !
 ! D72   D(21,15,17,19)       -179.8412         estimate D2E/DX2                !
 ! D73   D(21,15,17,42)          0.1848         estimate D2E/DX2                !
 ! D74   D(15,16,18,20)         -0.0729         estimate D2E/DX2                !
 ! D75   D(15,16,18,43)        179.56           estimate D2E/DX2                !
 ! D76   D(41,16,18,20)       -179.7812         estimate D2E/DX2                !
 ! D77   D(41,16,18,43)         -0.1484         estimate D2E/DX2                !
 ! D78   D(15,17,19,14)        179.7634         estimate D2E/DX2                !
 ! D79   D(15,17,19,20)         -0.3677         estimate D2E/DX2                !
 ! D80   D(42,17,19,14)         -0.2627         estimate D2E/DX2                !
 ! D81   D(42,17,19,20)        179.6062         estimate D2E/DX2                !
 ! D82   D(16,18,20,19)         -0.0521         estimate D2E/DX2                !
 ! D83   D(16,18,20,44)       -179.9712         estimate D2E/DX2                !
 ! D84   D(43,18,20,19)       -179.6832         estimate D2E/DX2                !
 ! D85   D(43,18,20,44)          0.3977         estimate D2E/DX2                !
 ! D86   D(14,19,20,18)       -179.8585         estimate D2E/DX2                !
 ! D87   D(14,19,20,44)          0.0616         estimate D2E/DX2                !
 ! D88   D(17,19,20,18)          0.273          estimate D2E/DX2                !
 ! D89   D(17,19,20,44)       -179.8069         estimate D2E/DX2                !
 ! D90   D(24,22,23,25)          0.0372         estimate D2E/DX2                !
 ! D91   D(24,22,23,28)       -179.8167         estimate D2E/DX2                !
 ! D92   D(45,22,23,25)        179.7741         estimate D2E/DX2                !
 ! D93   D(45,22,23,28)         -0.0797         estimate D2E/DX2                !
 ! D94   D(23,22,24,26)         -0.249          estimate D2E/DX2                !
 ! D95   D(23,22,24,46)        179.0447         estimate D2E/DX2                !
 ! D96   D(45,22,24,26)       -179.9897         estimate D2E/DX2                !
 ! D97   D(45,22,24,46)         -0.696          estimate D2E/DX2                !
 ! D98   D(22,23,25,27)         -0.0063         estimate D2E/DX2                !
 ! D99   D(22,23,25,47)        179.9355         estimate D2E/DX2                !
 ! D100  D(28,23,25,27)        179.8507         estimate D2E/DX2                !
 ! D101  D(28,23,25,47)         -0.2075         estimate D2E/DX2                !
 ! D102  D(22,23,28,29)          1.363          estimate D2E/DX2                !
 ! D103  D(22,23,28,30)       -178.7679         estimate D2E/DX2                !
 ! D104  D(25,23,28,29)       -178.489          estimate D2E/DX2                !
 ! D105  D(25,23,28,30)          1.3801         estimate D2E/DX2                !
 ! D106  D(22,24,26,12)        178.5038         estimate D2E/DX2                !
 ! D107  D(22,24,26,27)          0.4249         estimate D2E/DX2                !
 ! D108  D(46,24,26,12)         -0.7944         estimate D2E/DX2                !
 ! D109  D(46,24,26,27)       -178.8733         estimate D2E/DX2                !
 ! D110  D(23,25,27,26)          0.1876         estimate D2E/DX2                !
 ! D111  D(23,25,27,48)       -179.9163         estimate D2E/DX2                !
 ! D112  D(47,25,27,26)       -179.7532         estimate D2E/DX2                !
 ! D113  D(47,25,27,48)          0.1428         estimate D2E/DX2                !
 ! D114  D(12,26,27,25)       -178.4826         estimate D2E/DX2                !
 ! D115  D(12,26,27,48)          1.6206         estimate D2E/DX2                !
 ! D116  D(24,26,27,25)         -0.3955         estimate D2E/DX2                !
 ! D117  D(24,26,27,48)        179.7077         estimate D2E/DX2                !
 ! D118  D(23,28,29,31)        179.921          estimate D2E/DX2                !
 ! D119  D(23,28,29,49)          0.1222         estimate D2E/DX2                !
 ! D120  D(30,28,29,31)          0.0397         estimate D2E/DX2                !
 ! D121  D(30,28,29,49)       -179.7592         estimate D2E/DX2                !
 ! D122  D(23,28,30,32)       -179.9324         estimate D2E/DX2                !
 ! D123  D(29,28,30,32)         -0.0382         estimate D2E/DX2                !
 ! D124  D(28,29,31,32)         -0.0268         estimate D2E/DX2                !
 ! D125  D(28,29,31,50)       -179.9291         estimate D2E/DX2                !
 ! D126  D(49,29,31,32)        179.7972         estimate D2E/DX2                !
 ! D127  D(49,29,31,50)         -0.1052         estimate D2E/DX2                !
 ! D128  D(28,30,32,31)          0.021          estimate D2E/DX2                !
 ! D129  D(28,30,32,51)       -179.9664         estimate D2E/DX2                !
 ! D130  D(29,31,32,30)          0.0035         estimate D2E/DX2                !
 ! D131  D(29,31,32,51)        179.9913         estimate D2E/DX2                !
 ! D132  D(50,31,32,30)        179.9055         estimate D2E/DX2                !
 ! D133  D(50,31,32,51)         -0.1067         estimate D2E/DX2                !
 --------------------------------------------------------------------------------
 Trust Radius=3.00D-01 FncErr=1.00D-07 GrdErr=1.00D-06
 Number of steps in this run=    288 maximum allowed number of steps=    306.
 GradGradGradGradGradGradGradGradGradGradGradGradGradGradGradGradGradGrad

 Leave Link  103 at Fri Sep  9 20:50:50 2022, MaxMem=  209715200 cpu:       0.1
 (Enter /opt/gaussian/l202.exe)
 Stoichiometry    C24H19ClN6O
 Framework group  C1[X(C24H19ClN6O)]
 Deg. of freedom   147
 Full point group                 C1      NOp   1
 Largest Abelian subgroup         C1      NOp   1
 Largest concise Abelian subgroup C1      NOp   1
                         Standard orientation:                         
 ---------------------------------------------------------------------
 Center     Atomic      Atomic             Coordinates (Angstroms)
 Number     Number       Type             X           Y           Z
 ---------------------------------------------------------------------
      1          6           0        4.210440   -1.129971    0.473340
      2          6           0        5.284730   -1.892302    0.031980
      3          6           0        4.370401   -0.125621    1.432020
      4          6           0        6.572660   -1.693922    0.529090
      5          6           0        5.641111    0.060418    1.920170
      6          6           0        6.736860   -0.714782    1.477240
      7          7           0        3.143360   -1.623511   -0.215590
      8          7           0        4.810150   -2.792372   -0.908090
      9          7           0        3.560760   -2.622151   -1.044660
     10          6           0        1.759630   -1.253201   -0.202990
     11          6           0        1.503621    0.063910   -0.918970
     12          7           0        0.207091    0.391010   -1.163720
     13          8           0        2.433841    0.799869   -1.236380
     14          6           0       -0.080379    1.648430   -1.882820
     15          6           0       -1.821238    4.313761    0.166640
     16          6           0       -0.772978    5.005870    0.732680
     17          6           0       -1.619408    3.238571   -0.675740
     18          6           0        0.522392    4.598760    0.439060
     19          6           0       -0.322048    2.828680   -0.965520
     20          6           0        0.748912    3.521090   -0.402140
     21         17           0       -3.519788    4.829921    0.535490
     22          6           0       -2.560040   -1.002129    0.894050
     23          6           0       -3.120450   -1.939319    0.028070
     24          6           0       -1.465910   -0.243589    0.511760
     25          6           0       -2.553300   -2.098339   -1.236550
     26          6           0       -0.905810   -0.412360   -0.747610
     27          6           0       -1.459720   -1.341739   -1.619900
     28          6           0       -4.279930   -2.748849    0.411210
     29          6           0       -5.008870   -2.749868    1.562170
     30          7           0       -4.807951   -3.695348   -0.456750
     31          7           0       -5.985481   -3.705278    1.389990
     32          6           0       -5.816331   -4.244378    0.152270
     33          1           0        3.552331    0.485819    1.754190
     34          1           0        7.389870   -2.289432    0.175200
     35          1           0        5.813251    0.822878    2.655090
     36          1           0        7.708080   -0.524153    1.889310
     37          1           0        1.213460   -2.054190   -0.674350
     38          1           0        1.407590   -1.177650    0.818560
     39          1           0        0.758241    1.848670   -2.529860
     40          1           0       -0.950759    1.471180   -2.497770
     41          1           0       -0.958117    5.839370    1.378640
     42          1           0       -2.460619    2.728241   -1.100180
     43          1           0        1.351662    5.129510    0.864530
     44          1           0        1.749902    3.209419   -0.626150
     45          1           0       -2.975420   -0.853849    1.871700
     46          1           0       -1.053289    0.485200    1.181760
     47          1           0       -2.977940   -2.816999   -1.906300
     48          1           0       -1.030790   -1.469930   -2.595370
     49          1           0       -4.930230   -2.178828    2.456640
     50          1           0       -6.683041   -3.951938    2.047400
     51          1           0       -6.440081   -5.012098   -0.240710
 ---------------------------------------------------------------------
 Rotational constants (GHZ):      0.1300068      0.0790211      0.0538779
 Leave Link  202 at Fri Sep  9 20:50:50 2022, MaxMem=  209715200 cpu:       0.0
 (Enter /opt/gaussian/l301.exe)
 Standard basis: CC-pVDZ (5D, 7F)
 Ernie: Thresh=  0.10000D-02 Tol=  0.10000D-05 Strict=F.
 Ernie:  72 primitive shells out of 827 were deleted.
 There are   547 symmetry adapted basis functions of A   symmetry.
 Integral buffers will be    131072 words long.
 Raffenetti 2 integral format.
 Two-electron integral symmetry is turned on.
   547 basis functions,  1227 primitive gaussians,   579 cartesian basis functions
   115 alpha electrons      115 beta electrons
       nuclear repulsion energy      3061.6272995867 Hartrees.
 IExCor=  402 DFT=T Ex+Corr=B3LYP ExCW=0 ScaHFX=  0.200000
 ScaDFX=  0.800000  0.720000  1.000000  0.810000 ScalE2=  1.000000  1.000000
 IRadAn=      0 IRanWt=     -1 IRanGd=            0 ICorTp=0
 NAtoms=   51 NActive=   51 NUniq=   51 SFac= 1.00D+00 NAtFMM=   60 NAOKFM=F Big=F
 Leave Link  301 at Fri Sep  9 20:50:50 2022, MaxMem=  209715200 cpu:       0.3
 (Enter /opt/gaussian/l302.exe)
 NPDir=0 NMtPBC=     1 NCelOv=     1 NCel=       1 NClECP=     1 NCelD=      1
         NCelK=      1 NCelE2=     1 NClLst=     1 CellRange=     0.0.
 One-electron integrals computed using PRISM.
 NBasis=   547 RedAO= T  NBF=   547
 NBsUse=   547 1.00D-06 NBFU=   547
 Precomputing XC quadrature grid using
 IXCGrd= 2 IRadAn=           0 IRanWt=          -1 IRanGd=           0 AccXCQ= 0.00D+00.
 NRdTot=    3284 NPtTot=      419428 NUsed=      443092 NTot=      443124
 NSgBfM=   555   556   557   558   558 NAtAll=    51    51.
 Leave Link  302 at Fri Sep  9 20:50:51 2022, MaxMem=  209715200 cpu:       8.7
 (Enter /opt/gaussian/l303.exe)
 DipDrv:  MaxL=1.
 Leave Link  303 at Fri Sep  9 20:50:51 2022, MaxMem=  209715200 cpu:       1.2
 (Enter /opt/gaussian/l401.exe)
 Harris functional with IExCor=  402 diagonalized for initial guess.
 ExpMin= 1.22D-01 ExpMax= 1.28D+05 ExpMxC= 1.24D+03 IAcc=2 IRadAn=         4 AccDes= 0.00D+00
 HarFok:  IExCor=  402 AccDes= 0.00D+00 IRadAn=         4 IDoV= 1
 ScaDFX=  1.000000  1.000000  1.000000  1.000000
 FoFCou: FMM=F IPFlag=           0 FMFlag=      100000 FMFlg1=           0
         NFxFlg=           0 DoJE=T BraDBF=F KetDBF=T FulRan=T
         Omega=  0.000000  0.000000  1.000000  0.000000  0.000000 ICntrl=     500 IOpCl=  0
         NMat0=    1 NMatS0=    1 NMatT0=    0 NMatD0=    1 NMtDS0=    0 NMtDT0=    0
         I1Cent=           4 NGrid=           0.
 Petite list used in FoFCou.
 Harris En= -1789.74131110650    
 Initial guess orbital symmetries:
       Occupied  (A) (A) (A) (A) (A) (A) (A) (A) (A) (A) (A) (A)
                 (A) (A) (A) (A) (A) (A) (A) (A) (A) (A) (A) (A)
                 (A) (A) (A) (A) (A) (A) (A) (A) (A) (A) (A) (A)
                 (A) (A) (A) (A) (A) (A) (A) (A) (A) (A) (A) (A)
                 (A) (A) (A) (A) (A) (A) (A) (A) (A) (A) (A) (A)
                 (A) (A) (A) (A) (A) (A) (A) (A) (A) (A) (A) (A)
                 (A) (A) (A) (A) (A) (A) (A) (A) (A) (A) (A) (A)
                 (A) (A) (A) (A) (A) (A) (A) (A) (A) (A) (A) (A)
                 (A) (A) (A) (A) (A) (A) (A) (A) (A) (A) (A) (A)
                 (A) (A) (A) (A) (A) (A) (A)
       Virtual   (A) (A) (A) (A) (A) (A) (A) (A) (A) (A) (A) (A)
                 (A) (A) (A) (A) (A) (A) (A) (A) (A) (A) (A) (A)
                 (A) (A) (A) (A) (A) (A) (A) (A) (A) (A) (A) (A)
                 (A) (A) (A) (A) (A) (A) (A) (A) (A) (A) (A) (A)
                 (A) (A) (A) (A) (A) (A) (A) (A) (A) (A) (A) (A)
                 (A) (A) (A) (A) (A) (A) (A) (A) (A) (A) (A) (A)
                 (A) (A) (A) (A) (A) (A) (A) (A) (A) (A) (A) (A)
                 (A) (A) (A) (A) (A) (A) (A) (A) (A) (A) (A) (A)
                 (A) (A) (A) (A) (A) (A) (A) (A) (A) (A) (A) (A)
                 (A) (A) (A) (A) (A) (A) (A) (A) (A) (A) (A) (A)
                 (A) (A) (A) (A) (A) (A) (A) (A) (A) (A) (A) (A)
                 (A) (A) (A) (A) (A) (A) (A) (A) (A) (A) (A) (A)
                 (A) (A) (A) (A) (A) (A) (A) (A) (A) (A) (A) (A)
                 (A) (A) (A) (A) (A) (A) (A) (A) (A) (A) (A) (A)
                 (A) (A) (A) (A) (A) (A) (A) (A) (A) (A) (A) (A)
                 (A) (A) (A) (A) (A) (A) (A) (A) (A) (A) (A) (A)
                 (A) (A) (A) (A) (A) (A) (A) (A) (A) (A) (A) (A)
                 (A) (A) (A) (A) (A) (A) (A) (A) (A) (A) (A) (A)
                 (A) (A) (A) (A) (A) (A) (A) (A) (A) (A) (A) (A)
                 (A) (A) (A) (A) (A) (A) (A) (A) (A) (A) (A) (A)
                 (A) (A) (A) (A) (A) (A) (A) (A) (A) (A) (A) (A)
                 (A) (A) (A) (A) (A) (A) (A) (A) (A) (A) (A) (A)
                 (A) (A) (A) (A) (A) (A) (A) (A) (A) (A) (A) (A)
                 (A) (A) (A) (A) (A) (A) (A) (A) (A) (A) (A) (A)
                 (A) (A) (A) (A) (A) (A) (A) (A) (A) (A) (A) (A)
                 (A) (A) (A) (A) (A) (A) (A) (A) (A) (A) (A) (A)
                 (A) (A) (A) (A) (A) (A) (A) (A) (A) (A) (A) (A)
                 (A) (A) (A) (A) (A) (A) (A) (A) (A) (A) (A) (A)
                 (A) (A) (A) (A) (A) (A) (A) (A) (A) (A) (A) (A)
                 (A) (A) (A) (A) (A) (A) (A) (A) (A) (A) (A) (A)
                 (A) (A) (A) (A) (A) (A) (A) (A) (A) (A) (A) (A)
                 (A) (A) (A) (A) (A) (A) (A) (A) (A) (A) (A) (A)
                 (A) (A) (A) (A) (A) (A) (A) (A) (A) (A) (A) (A)
                 (A) (A) (A) (A) (A) (A) (A) (A) (A) (A) (A) (A)
                 (A) (A) (A) (A) (A) (A) (A) (A) (A) (A) (A) (A)
                 (A) (A) (A) (A) (A) (A) (A) (A) (A) (A) (A) (A)
 The electronic state of the initial guess is 1-A.
 Leave Link  401 at Fri Sep  9 20:50:54 2022, MaxMem=  209715200 cpu:      26.1
 (Enter /opt/gaussian/l502.exe)
 Closed shell SCF:
 Requested convergence on RMS density matrix=1.00D-08 within 128 cycles.
 Requested convergence on MAX density matrix=1.00D-06.
 Requested convergence on             energy=1.00D-06.
 No special actions if energy rises.
 Using DIIS extrapolation, IDIIS=  1040.
 Integral symmetry usage will be decided dynamically.
       442620 words used for storage of precomputed grid.
 IEnd=     1475495 IEndB=     1475495 NGot=   209715200 MDV=   208592166
 LenX=   208592166 LenY=   208256346
 Fock matrices will be formed incrementally for  20 cycles.
 Integral accuracy reduced to 1.0D-05 until final iterations.

 Cycle   1  Pass 0  IDiag  1:
 FoFCou: FMM=F IPFlag=           0 FMFlag=      100000 FMFlg1=           0
         NFxFlg=           0 DoJE=F BraDBF=F KetDBF=F FulRan=T
         Omega=  0.000000  0.000000  1.000000  0.000000  0.000000 ICntrl=       0 IOpCl=  0
         NMat0=    1 NMatS0=    1 NMatT0=    0 NMatD0=    1 NMtDS0=    0 NMtDT0=    0
         I1Cent=           0 NGrid=           0.
 Symmetry not used in FoFCou.
 E= -1789.40050484380    
 DIIS: error= 2.15D-02 at cycle   1 NSaved=   1.
 NSaved= 1 IEnMin= 1 EnMin= -1789.40050484380     IErMin= 1 ErrMin= 2.15D-02
 ErrMax= 2.15D-02 EMaxC= 1.00D-01 BMatC= 5.57D-01 BMatP= 5.57D-01
 IDIUse=3 WtCom= 7.85D-01 WtEn= 2.15D-01
 Coeff-Com:  0.100D+01
 Coeff-En:   0.100D+01
 Coeff:      0.100D+01
 Gap=     0.355 Goal=   None    Shift=    0.000
 GapD=    0.355 DampG=1.000 DampE=0.500 DampFc=0.5000 IDamp=-1.
 Damping current iteration by 5.00D-01
 RMSDP=4.14D-03 MaxDP=2.10D-01              OVMax= 2.95D-01

 Cycle   2  Pass 0  IDiag  1:
 RMSU=  1.44D-03    CP:  9.78D-01
 E= -1789.56625146782     Delta-E=       -0.165746624015 Rises=F Damp=T
 DIIS: error= 1.04D-02 at cycle   2 NSaved=   2.
 NSaved= 2 IEnMin= 2 EnMin= -1789.56625146782     IErMin= 2 ErrMin= 1.04D-02
 ErrMax= 1.04D-02 EMaxC= 1.00D-01 BMatC= 1.06D-01 BMatP= 5.57D-01
 IDIUse=3 WtCom= 8.96D-01 WtEn= 1.04D-01
 Coeff-Com:  0.227D+00 0.773D+00
 Coeff-En:   0.337D+00 0.663D+00
 Coeff:      0.238D+00 0.762D+00
 Gap=     0.247 Goal=   None    Shift=    0.000
 RMSDP=1.44D-03 MaxDP=7.31D-02 DE=-1.66D-01 OVMax= 3.14D-01

 Cycle   3  Pass 0  IDiag  1:
 RMSU=  9.65D-04    CP:  9.60D-01  8.13D-01
 E= -1789.90605920507     Delta-E=       -0.339807737247 Rises=F Damp=F
 DIIS: error= 1.03D-02 at cycle   3 NSaved=   3.
 NSaved= 3 IEnMin= 3 EnMin= -1789.90605920507     IErMin= 3 ErrMin= 1.03D-02
 ErrMax= 1.03D-02 EMaxC= 1.00D-01 BMatC= 1.10D-01 BMatP= 1.06D-01
 IDIUse=3 WtCom= 8.97D-01 WtEn= 1.03D-01
 Coeff-Com:  0.561D-01 0.494D+00 0.449D+00
 Coeff-En:   0.000D+00 0.000D+00 0.100D+01
 Coeff:      0.503D-01 0.444D+00 0.506D+00
 Gap=     0.186 Goal=   None    Shift=    0.000
 RMSDP=8.33D-04 MaxDP=6.30D-02 DE=-3.40D-01 OVMax= 1.18D-01

 Cycle   4  Pass 0  IDiag  1:
 RMSU=  4.09D-04    CP:  9.65D-01  9.07D-01  5.86D-01
 E= -1789.98966964171     Delta-E=       -0.083610436646 Rises=F Damp=F
 DIIS: error= 3.70D-03 at cycle   4 NSaved=   4.
 NSaved= 4 IEnMin= 4 EnMin= -1789.98966964171     IErMin= 4 ErrMin= 3.70D-03
 ErrMax= 3.70D-03 EMaxC= 1.00D-01 BMatC= 2.08D-02 BMatP= 1.06D-01
 IDIUse=3 WtCom= 9.63D-01 WtEn= 3.70D-02
 Coeff-Com:  0.120D-01 0.139D+00 0.320D+00 0.529D+00
 Coeff-En:   0.000D+00 0.000D+00 0.192D+00 0.808D+00
 Coeff:      0.115D-01 0.134D+00 0.315D+00 0.539D+00
 Gap=     0.186 Goal=   None    Shift=    0.000
 RMSDP=3.27D-04 MaxDP=2.09D-02 DE=-8.36D-02 OVMax= 4.08D-02

 Cycle   5  Pass 0  IDiag  1:
 RMSU=  1.27D-04    CP:  9.63D-01  8.75D-01  6.93D-01  6.19D-01
 E= -1790.00706957232     Delta-E=       -0.017399930610 Rises=F Damp=F
 DIIS: error= 1.39D-03 at cycle   5 NSaved=   5.
 NSaved= 5 IEnMin= 5 EnMin= -1790.00706957232     IErMin= 5 ErrMin= 1.39D-03
 ErrMax= 1.39D-03 EMaxC= 1.00D-01 BMatC= 1.70D-03 BMatP= 2.08D-02
 IDIUse=3 WtCom= 9.86D-01 WtEn= 1.39D-02
 Coeff-Com:  0.111D-02 0.289D-01 0.140D+00 0.331D+00 0.498D+00
 Coeff-En:   0.000D+00 0.000D+00 0.000D+00 0.369D-01 0.963D+00
 Coeff:      0.109D-02 0.285D-01 0.138D+00 0.327D+00 0.505D+00
 Gap=     0.185 Goal=   None    Shift=    0.000
 RMSDP=1.06D-04 MaxDP=3.86D-03 DE=-1.74D-02 OVMax= 1.32D-02

 Cycle   6  Pass 0  IDiag  1:
 RMSU=  3.89D-05    CP:  9.63D-01  8.78D-01  6.97D-01  6.79D-01  5.38D-01
 E= -1790.00867862843     Delta-E=       -0.001609056105 Rises=F Damp=F
 DIIS: error= 5.58D-04 at cycle   6 NSaved=   6.
 NSaved= 6 IEnMin= 6 EnMin= -1790.00867862843     IErMin= 6 ErrMin= 5.58D-04
 ErrMax= 5.58D-04 EMaxC= 1.00D-01 BMatC= 1.92D-04 BMatP= 1.70D-03
 IDIUse=3 WtCom= 9.94D-01 WtEn= 5.58D-03
 Coeff-Com: -0.569D-03-0.343D-03 0.412D-01 0.122D+00 0.304D+00 0.534D+00
 Coeff-En:   0.000D+00 0.000D+00 0.000D+00 0.000D+00 0.861D-01 0.914D+00
 Coeff:     -0.565D-03-0.341D-03 0.410D-01 0.121D+00 0.302D+00 0.536D+00
 Gap=     0.184 Goal=   None    Shift=    0.000
 RMSDP=3.22D-05 MaxDP=1.54D-03 DE=-1.61D-03 OVMax= 3.99D-03

 Cycle   7  Pass 0  IDiag  1:
 RMSU=  1.34D-05    CP:  9.63D-01  8.79D-01  6.98D-01  6.75D-01  5.96D-01
                    CP:  5.73D-01
 E= -1790.00886885915     Delta-E=       -0.000190230726 Rises=F Damp=F
 DIIS: error= 1.84D-04 at cycle   7 NSaved=   7.
 NSaved= 7 IEnMin= 7 EnMin= -1790.00886885915     IErMin= 7 ErrMin= 1.84D-04
 ErrMax= 1.84D-04 EMaxC= 1.00D-01 BMatC= 1.88D-05 BMatP= 1.92D-04
 IDIUse=3 WtCom= 9.98D-01 WtEn= 1.84D-03
 Coeff-Com: -0.325D-03-0.305D-02 0.107D-01 0.388D-01 0.129D+00 0.314D+00
 Coeff-Com:  0.510D+00
 Coeff-En:   0.000D+00 0.000D+00 0.000D+00 0.000D+00 0.000D+00 0.785D-02
 Coeff-En:   0.992D+00
 Coeff:     -0.325D-03-0.304D-02 0.107D-01 0.388D-01 0.129D+00 0.314D+00
 Coeff:      0.511D+00
 Gap=     0.185 Goal=   None    Shift=    0.000
 RMSDP=9.45D-06 MaxDP=6.74D-04 DE=-1.90D-04 OVMax= 7.96D-04

 Initial convergence to 1.0D-05 achieved.  Increase integral accuracy.
 Cycle   8  Pass 1  IDiag  1:
 E= -1790.00879055255     Delta-E=        0.000078306599 Rises=F Damp=F
 DIIS: error= 2.45D-04 at cycle   1 NSaved=   1.
 NSaved= 1 IEnMin= 1 EnMin= -1790.00879055255     IErMin= 1 ErrMin= 2.45D-04
 ErrMax= 2.45D-04 EMaxC= 1.00D-01 BMatC= 1.56D-05 BMatP= 1.56D-05
 IDIUse=3 WtCom= 9.98D-01 WtEn= 2.45D-03
 Coeff-Com:  0.100D+01
 Coeff-En:   0.100D+01
 Coeff:      0.100D+01
 Gap=     0.185 Goal=   None    Shift=    0.000
 RMSDP=9.45D-06 MaxDP=6.74D-04 DE= 7.83D-05 OVMax= 8.93D-04

 Cycle   9  Pass 1  IDiag  1:
 RMSU=  1.14D-04    CP:  1.00D+00
 E= -1790.00879718220     Delta-E=       -0.000006629649 Rises=F Damp=F
 DIIS: error= 1.02D-04 at cycle   2 NSaved=   2.
 NSaved= 2 IEnMin= 2 EnMin= -1790.00879718220     IErMin= 2 ErrMin= 1.02D-04
 ErrMax= 1.02D-04 EMaxC= 1.00D-01 BMatC= 9.07D-06 BMatP= 1.56D-05
 IDIUse=3 WtCom= 9.99D-01 WtEn= 1.02D-03
 Coeff-Com:  0.400D+00 0.600D+00
 Coeff-En:   0.213D+00 0.787D+00
 Coeff:      0.400D+00 0.600D+00
 Gap=     0.185 Goal=   None    Shift=    0.000
 RMSDP=1.07D-05 MaxDP=7.30D-04 DE=-6.63D-06 OVMax= 1.17D-03

 Cycle  10  Pass 1  IDiag  1:
 RMSU=  7.56D-06    CP:  1.00D+00  1.00D+00
 E= -1790.00879734055     Delta-E=       -0.000000158345 Rises=F Damp=F
 DIIS: error= 9.88D-05 at cycle   3 NSaved=   3.
 NSaved= 3 IEnMin= 3 EnMin= -1790.00879734055     IErMin= 3 ErrMin= 9.88D-05
 ErrMax= 9.88D-05 EMaxC= 1.00D-01 BMatC= 8.91D-06 BMatP= 9.07D-06
 IDIUse=1 WtCom= 1.00D+00 WtEn= 0.00D+00
 Coeff-Com:  0.444D-02 0.497D+00 0.499D+00
 Coeff:      0.444D-02 0.497D+00 0.499D+00
 Gap=     0.185 Goal=   None    Shift=    0.000
 RMSDP=5.48D-06 MaxDP=3.58D-04 DE=-1.58D-07 OVMax= 6.33D-04

 Cycle  11  Pass 1  IDiag  1:
 RMSU=  9.79D-07    CP:  1.00D+00  1.01D+00  5.14D-01
 E= -1790.00880508043     Delta-E=       -0.000007739883 Rises=F Damp=F
 DIIS: error= 1.35D-05 at cycle   4 NSaved=   4.
 NSaved= 4 IEnMin= 4 EnMin= -1790.00880508043     IErMin= 4 ErrMin= 1.35D-05
 ErrMax= 1.35D-05 EMaxC= 1.00D-01 BMatC= 1.98D-07 BMatP= 8.91D-06
 IDIUse=1 WtCom= 1.00D+00 WtEn= 0.00D+00
 Coeff-Com: -0.353D-02 0.313D+00 0.325D+00 0.366D+00
 Coeff:     -0.353D-02 0.313D+00 0.325D+00 0.366D+00
 Gap=     0.185 Goal=   None    Shift=    0.000
 RMSDP=8.40D-07 MaxDP=4.94D-05 DE=-7.74D-06 OVMax= 1.12D-04

 Cycle  12  Pass 1  IDiag  1:
 RMSU=  2.31D-07    CP:  1.00D+00  1.01D+00  5.16D-01  4.42D-01
 E= -1790.00880527813     Delta-E=       -0.000000197703 Rises=F Damp=F
 DIIS: error= 1.50D-06 at cycle   5 NSaved=   5.
 NSaved= 5 IEnMin= 5 EnMin= -1790.00880527813     IErMin= 5 ErrMin= 1.50D-06
 ErrMax= 1.50D-06 EMaxC= 1.00D-01 BMatC= 2.38D-09 BMatP= 1.98D-07
 IDIUse=1 WtCom= 1.00D+00 WtEn= 0.00D+00
 Coeff-Com: -0.205D-02 0.154D+00 0.161D+00 0.196D+00 0.490D+00
 Coeff:     -0.205D-02 0.154D+00 0.161D+00 0.196D+00 0.490D+00
 Gap=     0.185 Goal=   None    Shift=    0.000
 RMSDP=1.25D-07 MaxDP=9.05D-06 DE=-1.98D-07 OVMax= 1.38D-05

 Cycle  13  Pass 1  IDiag  1:
 RMSU=  7.33D-08    CP:  1.00D+00  1.01D+00  5.16D-01  4.55D-01  7.94D-01
 E= -1790.00880528041     Delta-E=       -0.000000002279 Rises=F Damp=F
 DIIS: error= 5.74D-07 at cycle   6 NSaved=   6.
 NSaved= 6 IEnMin= 6 EnMin= -1790.00880528041     IErMin= 6 ErrMin= 5.74D-07
 ErrMax= 5.74D-07 EMaxC= 1.00D-01 BMatC= 2.57D-10 BMatP= 2.38D-09
 IDIUse=1 WtCom= 1.00D+00 WtEn= 0.00D+00
 Coeff-Com: -0.854D-03 0.600D-01 0.628D-01 0.796D-01 0.287D+00 0.511D+00
 Coeff:     -0.854D-03 0.600D-01 0.628D-01 0.796D-01 0.287D+00 0.511D+00
 Gap=     0.185 Goal=   None    Shift=    0.000
 RMSDP=3.78D-08 MaxDP=1.53D-06 DE=-2.28D-09 OVMax= 3.68D-06

 Cycle  14  Pass 1  IDiag  1:
 RMSU=  2.02D-08    CP:  1.00D+00  1.01D+00  5.16D-01  4.53D-01  8.31D-01
                    CP:  7.96D-01
 E= -1790.00880528067     Delta-E=       -0.000000000256 Rises=F Damp=F
 DIIS: error= 3.03D-07 at cycle   7 NSaved=   7.
 NSaved= 7 IEnMin= 7 EnMin= -1790.00880528067     IErMin= 7 ErrMin= 3.03D-07
 ErrMax= 3.03D-07 EMaxC= 1.00D-01 BMatC= 3.37D-11 BMatP= 2.57D-10
 IDIUse=1 WtCom= 1.00D+00 WtEn= 0.00D+00
 Coeff-Com: -0.210D-03 0.132D-01 0.138D-01 0.189D-01 0.100D+00 0.305D+00
 Coeff-Com:  0.550D+00
 Coeff:     -0.210D-03 0.132D-01 0.138D-01 0.189D-01 0.100D+00 0.305D+00
 Coeff:      0.550D+00
 Gap=     0.185 Goal=   None    Shift=    0.000
 RMSDP=1.49D-08 MaxDP=8.31D-07 DE=-2.56D-10 OVMax= 1.49D-06

 Cycle  15  Pass 1  IDiag  1:
 RMSU=  7.49D-09    CP:  1.00D+00  1.01D+00  5.16D-01  4.54D-01  8.35D-01
                    CP:  8.24D-01  6.58D-01
 E= -1790.00880528065     Delta-E=        0.000000000022 Rises=F Damp=F
 DIIS: error= 1.03D-07 at cycle   8 NSaved=   8.
 NSaved= 8 IEnMin= 7 EnMin= -1790.00880528067     IErMin= 8 ErrMin= 1.03D-07
 ErrMax= 1.03D-07 EMaxC= 1.00D-01 BMatC= 8.08D-12 BMatP= 3.37D-11
 IDIUse=1 WtCom= 1.00D+00 WtEn= 0.00D+00
 Coeff-Com:  0.385D-05-0.131D-02-0.135D-02-0.672D-03 0.176D-01 0.116D+00
 Coeff-Com:  0.369D+00 0.501D+00
 Coeff:      0.385D-05-0.131D-02-0.135D-02-0.672D-03 0.176D-01 0.116D+00
 Coeff:      0.369D+00 0.501D+00
 Gap=     0.185 Goal=   None    Shift=    0.000
 RMSDP=6.44D-09 MaxDP=3.81D-07 DE= 2.18D-11 OVMax= 8.85D-07

 SCF Done:  E(RB3LYP) =  -1790.00880528     A.U. after   15 cycles
             Convg  =    0.6443D-08             -V/T =  2.0047
 KE= 1.781556279066D+03 PE=-1.030918197039D+04 EE= 3.675989586459D+03
 Leave Link  502 at Fri Sep  9 21:04:09 2022, MaxMem=  209715200 cpu:    5881.6
 (Enter /opt/gaussian/l601.exe)
 Copying SCF densities to generalized density rwf, IOpCl= 0 IROHF=0.

 **********************************************************************

            Population analysis using the SCF density.

 **********************************************************************

 Orbital symmetries:
       Occupied  (A) (A) (A) (A) (A) (A) (A) (A) (A) (A) (A) (A)
                 (A) (A) (A) (A) (A) (A) (A) (A) (A) (A) (A) (A)
                 (A) (A) (A) (A) (A) (A) (A) (A) (A) (A) (A) (A)
                 (A) (A) (A) (A) (A) (A) (A) (A) (A) (A) (A) (A)
                 (A) (A) (A) (A) (A) (A) (A) (A) (A) (A) (A) (A)
                 (A) (A) (A) (A) (A) (A) (A) (A) (A) (A) (A) (A)
                 (A) (A) (A) (A) (A) (A) (A) (A) (A) (A) (A) (A)
                 (A) (A) (A) (A) (A) (A) (A) (A) (A) (A) (A) (A)
                 (A) (A) (A) (A) (A) (A) (A) (A) (A) (A) (A) (A)
                 (A) (A) (A) (A) (A) (A) (A)
       Virtual   (A) (A) (A) (A) (A) (A) (A) (A) (A) (A) (A) (A)
                 (A) (A) (A) (A) (A) (A) (A) (A) (A) (A) (A) (A)
                 (A) (A) (A) (A) (A) (A) (A) (A) (A) (A) (A) (A)
                 (A) (A) (A) (A) (A) (A) (A) (A) (A) (A) (A) (A)
                 (A) (A) (A) (A) (A) (A) (A) (A) (A) (A) (A) (A)
                 (A) (A) (A) (A) (A) (A) (A) (A) (A) (A) (A) (A)
                 (A) (A) (A) (A) (A) (A) (A) (A) (A) (A) (A) (A)
                 (A) (A) (A) (A) (A) (A) (A) (A) (A) (A) (A) (A)
                 (A) (A) (A) (A) (A) (A) (A) (A) (A) (A) (A) (A)
                 (A) (A) (A) (A) (A) (A) (A) (A) (A) (A) (A) (A)
                 (A) (A) (A) (A) (A) (A) (A) (A) (A) (A) (A) (A)
                 (A) (A) (A) (A) (A) (A) (A) (A) (A) (A) (A) (A)
                 (A) (A) (A) (A) (A) (A) (A) (A) (A) (A) (A) (A)
                 (A) (A) (A) (A) (A) (A) (A) (A) (A) (A) (A) (A)
                 (A) (A) (A) (A) (A) (A) (A) (A) (A) (A) (A) (A)
                 (A) (A) (A) (A) (A) (A) (A) (A) (A) (A) (A) (A)
                 (A) (A) (A) (A) (A) (A) (A) (A) (A) (A) (A) (A)
                 (A) (A) (A) (A) (A) (A) (A) (A) (A) (A) (A) (A)
                 (A) (A) (A) (A) (A) (A) (A) (A) (A) (A) (A) (A)
                 (A) (A) (A) (A) (A) (A) (A) (A) (A) (A) (A) (A)
                 (A) (A) (A) (A) (A) (A) (A) (A) (A) (A) (A) (A)
                 (A) (A) (A) (A) (A) (A) (A) (A) (A) (A) (A) (A)
                 (A) (A) (A) (A) (A) (A) (A) (A) (A) (A) (A) (A)
                 (A) (A) (A) (A) (A) (A) (A) (A) (A) (A) (A) (A)
                 (A) (A) (A) (A) (A) (A) (A) (A) (A) (A) (A) (A)
                 (A) (A) (A) (A) (A) (A) (A) (A) (A) (A) (A) (A)
                 (A) (A) (A) (A) (A) (A) (A) (A) (A) (A) (A) (A)
                 (A) (A) (A) (A) (A) (A) (A) (A) (A) (A) (A) (A)
                 (A) (A) (A) (A) (A) (A) (A) (A) (A) (A) (A) (A)
                 (A) (A) (A) (A) (A) (A) (A) (A) (A) (A) (A) (A)
                 (A) (A) (A) (A) (A) (A) (A) (A) (A) (A) (A) (A)
                 (A) (A) (A) (A) (A) (A) (A) (A) (A) (A) (A) (A)
                 (A) (A) (A) (A) (A) (A) (A) (A) (A) (A) (A) (A)
                 (A) (A) (A) (A) (A) (A) (A) (A) (A) (A) (A) (A)
                 (A) (A) (A) (A) (A) (A) (A) (A) (A) (A) (A) (A)
                 (A) (A) (A) (A) (A) (A) (A) (A) (A) (A) (A) (A)
 The electronic state is 1-A.
 Alpha  occ. eigenvalues -- -101.54223 -19.11594 -14.40362 -14.40271 -14.38226
 Alpha  occ. eigenvalues --  -14.37384 -14.33975 -14.32089 -10.29670 -10.25407
 Alpha  occ. eigenvalues --  -10.25375 -10.24533 -10.23751 -10.23325 -10.23066
 Alpha  occ. eigenvalues --  -10.22254 -10.21862 -10.21217 -10.20993 -10.20473
 Alpha  occ. eigenvalues --  -10.20419 -10.20402 -10.20319 -10.20261 -10.20245
 Alpha  occ. eigenvalues --  -10.20146 -10.19591 -10.19463 -10.19423 -10.19129
 Alpha  occ. eigenvalues --  -10.18946 -10.18551  -9.45959  -7.22225  -7.21250
 Alpha  occ. eigenvalues --   -7.21224  -1.09612  -1.04921  -1.03720  -0.95893
 Alpha  occ. eigenvalues --   -0.92276  -0.89567  -0.89383  -0.87075  -0.86570
 Alpha  occ. eigenvalues --   -0.83870  -0.79723  -0.78836  -0.77565  -0.76846
 Alpha  occ. eigenvalues --   -0.76604  -0.75046  -0.74718  -0.74114  -0.70441
 Alpha  occ. eigenvalues --   -0.66020  -0.64605  -0.64327  -0.62473  -0.62229
 Alpha  occ. eigenvalues --   -0.62050  -0.61119  -0.59558  -0.58889  -0.57962
 Alpha  occ. eigenvalues --   -0.56976  -0.54446  -0.52826  -0.52522  -0.52125
 Alpha  occ. eigenvalues --   -0.50183  -0.49193  -0.48563  -0.48252  -0.47170
 Alpha  occ. eigenvalues --   -0.46619  -0.46358  -0.45949  -0.45437  -0.45364
 Alpha  occ. eigenvalues --   -0.45330  -0.44638  -0.44233  -0.43958  -0.43444
 Alpha  occ. eigenvalues --   -0.43250  -0.42983  -0.41156  -0.40632  -0.39868
 Alpha  occ. eigenvalues --   -0.39175  -0.38565  -0.37750  -0.37471  -0.36466
 Alpha  occ. eigenvalues --   -0.36360  -0.36166  -0.35957  -0.35481  -0.33159
 Alpha  occ. eigenvalues --   -0.32764  -0.31624  -0.31261  -0.30626  -0.28428
 Alpha  occ. eigenvalues --   -0.28369  -0.27595  -0.27163  -0.26493  -0.25925
 Alpha  occ. eigenvalues --   -0.25574  -0.25320  -0.24676  -0.23258  -0.22707
 Alpha virt. eigenvalues --   -0.04247  -0.03323  -0.02689  -0.02372  -0.01765
 Alpha virt. eigenvalues --    0.00769   0.01409   0.01577   0.01915   0.03760
 Alpha virt. eigenvalues --    0.04365   0.04855   0.06194   0.06815   0.07427
 Alpha virt. eigenvalues --    0.08099   0.08513   0.09227   0.09434   0.10223
 Alpha virt. eigenvalues --    0.10887   0.11960   0.12229   0.12812   0.13337
 Alpha virt. eigenvalues --    0.13622   0.13717   0.14817   0.15096   0.15693
 Alpha virt. eigenvalues --    0.15907   0.16519   0.16840   0.17229   0.18886
 Alpha virt. eigenvalues --    0.20435   0.20634   0.20896   0.21145   0.22266
 Alpha virt. eigenvalues --    0.23699   0.25193   0.25287   0.25550   0.25750
 Alpha virt. eigenvalues --    0.26279   0.27807   0.28172   0.28449   0.28914
 Alpha virt. eigenvalues --    0.30611   0.30930   0.31279   0.31511   0.32442
 Alpha virt. eigenvalues --    0.33083   0.34358   0.35800   0.36679   0.37613
 Alpha virt. eigenvalues --    0.38251   0.38566   0.38954   0.40243   0.41235
 Alpha virt. eigenvalues --    0.41970   0.42857   0.43444   0.43824   0.44639
 Alpha virt. eigenvalues --    0.45005   0.45588   0.45906   0.46081   0.46597
 Alpha virt. eigenvalues --    0.47005   0.47081   0.47383   0.47574   0.47952
 Alpha virt. eigenvalues --    0.48299   0.48629   0.48954   0.49209   0.49523
 Alpha virt. eigenvalues --    0.50141   0.50357   0.50560   0.50602   0.51019
 Alpha virt. eigenvalues --    0.51307   0.51606   0.51847   0.52370   0.52531
 Alpha virt. eigenvalues --    0.52722   0.53203   0.53459   0.54084   0.55074
 Alpha virt. eigenvalues --    0.55241   0.55893   0.55937   0.56212   0.56777
 Alpha virt. eigenvalues --    0.56945   0.57396   0.57744   0.58325   0.58792
 Alpha virt. eigenvalues --    0.59543   0.60064   0.60267   0.60989   0.61738
 Alpha virt. eigenvalues --    0.61938   0.63003   0.63646   0.63839   0.64544
 Alpha virt. eigenvalues --    0.65129   0.65522   0.65806   0.65898   0.66171
 Alpha virt. eigenvalues --    0.66485   0.67153   0.67611   0.67933   0.68200
 Alpha virt. eigenvalues --    0.68392   0.68939   0.69676   0.70182   0.70461
 Alpha virt. eigenvalues --    0.71072   0.71780   0.72520   0.72766   0.73116
 Alpha virt. eigenvalues --    0.73462   0.73794   0.74212   0.74471   0.75335
 Alpha virt. eigenvalues --    0.76257   0.76869   0.77507   0.78298   0.78930
 Alpha virt. eigenvalues --    0.79712   0.80624   0.82268   0.83539   0.83596
 Alpha virt. eigenvalues --    0.83964   0.84673   0.85017   0.85676   0.86233
 Alpha virt. eigenvalues --    0.86435   0.86988   0.87410   0.88405   0.88697
 Alpha virt. eigenvalues --    0.89194   0.89724   0.89893   0.90435   0.90830
 Alpha virt. eigenvalues --    0.91087   0.92008   0.92690   0.92855   0.93199
 Alpha virt. eigenvalues --    0.93787   0.94127   0.95528   0.95851   0.96671
 Alpha virt. eigenvalues --    0.97620   0.98640   0.98986   0.99722   0.99980
 Alpha virt. eigenvalues --    1.00508   1.00859   1.01328   1.01487   1.01906
 Alpha virt. eigenvalues --    1.02535   1.03132   1.03497   1.04328   1.04678
 Alpha virt. eigenvalues --    1.05193   1.05634   1.05838   1.06136   1.06459
 Alpha virt. eigenvalues --    1.06862   1.07307   1.09054   1.09058   1.09362
 Alpha virt. eigenvalues --    1.10473   1.10931   1.12120   1.13299   1.13782
 Alpha virt. eigenvalues --    1.15028   1.15959   1.17060   1.18283   1.19393
 Alpha virt. eigenvalues --    1.19878   1.20233   1.20291   1.21951   1.22527
 Alpha virt. eigenvalues --    1.23963   1.24865   1.24988   1.26394   1.27294
 Alpha virt. eigenvalues --    1.28889   1.30023   1.30412   1.31511   1.32292
 Alpha virt. eigenvalues --    1.33369   1.33789   1.35839   1.38256   1.39587
 Alpha virt. eigenvalues --    1.40776   1.41032   1.42046   1.42640   1.43590
 Alpha virt. eigenvalues --    1.43923   1.44162   1.44754   1.46553   1.47437
 Alpha virt. eigenvalues --    1.47855   1.48807   1.48935   1.49390   1.50406
 Alpha virt. eigenvalues --    1.50879   1.51180   1.51815   1.52988   1.53299
 Alpha virt. eigenvalues --    1.53733   1.55513   1.56271   1.56689   1.57320
 Alpha virt. eigenvalues --    1.57467   1.58462   1.59137   1.59830   1.60090
 Alpha virt. eigenvalues --    1.60953   1.61098   1.62036   1.62738   1.62958
 Alpha virt. eigenvalues --    1.63334   1.63497   1.63770   1.64265   1.64319
 Alpha virt. eigenvalues --    1.65289   1.65613   1.66050   1.66388   1.66743
 Alpha virt. eigenvalues --    1.67757   1.68216   1.68417   1.69201   1.69949
 Alpha virt. eigenvalues --    1.70151   1.70591   1.71346   1.72167   1.72694
 Alpha virt. eigenvalues --    1.73156   1.73401   1.74059   1.74435   1.74671
 Alpha virt. eigenvalues --    1.75806   1.76059   1.76358   1.77515   1.77881
 Alpha virt. eigenvalues --    1.78551   1.78753   1.78864   1.79741   1.79786
 Alpha virt. eigenvalues --    1.80907   1.81822   1.82159   1.82867   1.83623
 Alpha virt. eigenvalues --    1.84225   1.84405   1.84863   1.85633   1.86186
 Alpha virt. eigenvalues --    1.86488   1.87291   1.87604   1.88198   1.88874
 Alpha virt. eigenvalues --    1.89116   1.89224   1.89980   1.90582   1.91896
 Alpha virt. eigenvalues --    1.92535   1.93347   1.94655   1.94872   1.95971
 Alpha virt. eigenvalues --    1.96969   1.98186   1.98295   1.98961   1.99315
 Alpha virt. eigenvalues --    2.00278   2.01137   2.01440   2.02475   2.03124
 Alpha virt. eigenvalues --    2.04390   2.05318   2.05720   2.06024   2.07164
 Alpha virt. eigenvalues --    2.07691   2.09822   2.10213   2.11752   2.13296
 Alpha virt. eigenvalues --    2.13696   2.15140   2.15691   2.16781   2.17511
 Alpha virt. eigenvalues --    2.18516   2.19394   2.20376   2.20650   2.21737
 Alpha virt. eigenvalues --    2.22043   2.22649   2.24245   2.26100   2.28262
 Alpha virt. eigenvalues --    2.29300   2.31561   2.32838   2.34769   2.35013
 Alpha virt. eigenvalues --    2.36255   2.36830   2.38537   2.41332   2.42766
 Alpha virt. eigenvalues --    2.42893   2.43451   2.43655   2.44395   2.44718
 Alpha virt. eigenvalues --    2.44998   2.45251   2.47491   2.47710   2.48418
 Alpha virt. eigenvalues --    2.51538   2.52518   2.53177   2.54784   2.55268
 Alpha virt. eigenvalues --    2.55741   2.57398   2.58289   2.60055   2.61101
 Alpha virt. eigenvalues --    2.62605   2.64515   2.65464   2.66149   2.69262
 Alpha virt. eigenvalues --    2.69695   2.71539   2.72266   2.73434   2.74654
 Alpha virt. eigenvalues --    2.75127   2.75956   2.77499   2.78117   2.79358
 Alpha virt. eigenvalues --    2.80154   2.80300   2.80522   2.82435   2.82612
 Alpha virt. eigenvalues --    2.86534   2.90278   2.94555   2.97721   2.98236
 Alpha virt. eigenvalues --    3.00856   3.06130   3.08131   3.10759   3.13091
 Alpha virt. eigenvalues --    3.16439   3.40615   3.42571   3.46230   3.50145
 Alpha virt. eigenvalues --    3.59439   3.60950
          Condensed to atoms (all electrons):
 Mulliken atomic charges:
              1
     1  C    0.212149
     2  C   -0.003842
     3  C    0.047841
     4  C    0.063159
     5  C    0.050297
     6  C    0.048583
     7  N   -0.232082
     8  N   -0.181815
     9  N   -0.056055
    10  C    0.186192
    11  C    0.118006
    12  N   -0.237315
    13  O   -0.274742
    14  C    0.220868
    15  C   -0.157531
    16  C    0.138919
    17  C    0.151597
    18  C    0.055832
    19  C   -0.101126
    20  C    0.051316
    21  Cl  -0.114332
    22  C    0.008397
    23  C    0.016051
    24  C    0.107426
    25  C    0.072594
    26  C   -0.044279
    27  C    0.110115
    28  C    0.096808
    29  C    0.013623
    30  N   -0.217512
    31  N   -0.028830
    32  C    0.151430
    33  H   -0.044864
    34  H   -0.035243
    35  H   -0.038798
    36  H   -0.039950
    37  H    0.050042
    38  H    0.041725
    39  H    0.034884
    40  H    0.002617
    41  H   -0.030670
    42  H   -0.039336
    43  H   -0.027363
    44  H   -0.027420
    45  H   -0.055201
    46  H   -0.045058
    47  H   -0.039118
    48  H   -0.044172
    49  H   -0.012343
    50  H    0.081377
    51  H   -0.002851
 Sum of Mulliken atomic charges =   0.00000
 Mulliken charges with hydrogens summed into heavy atoms:
              1
     1  C    0.212149
     2  C   -0.003842
     3  C    0.002977
     4  C    0.027916
     5  C    0.011499
     6  C    0.008633
     7  N   -0.232082
     8  N   -0.181815
     9  N   -0.056055
    10  C    0.277959
    11  C    0.118006
    12  N   -0.237315
    13  O   -0.274742
    14  C    0.258369
    15  C   -0.157531
    16  C    0.108249
    17  C    0.112260
    18  C    0.028469
    19  C   -0.101126
    20  C    0.023896
    21  Cl  -0.114332
    22  C   -0.046804
    23  C    0.016051
    24  C    0.062368
    25  C    0.033476
    26  C   -0.044279
    27  C    0.065943
    28  C    0.096808
    29  C    0.001280
    30  N   -0.217512
    31  N    0.052547
    32  C    0.148579
 Sum of Mulliken charges with hydrogens summed into heavy atoms =   0.00000
 Electronic spatial extent (au):  <R**2>=          18811.3446
 Charge=              0.0000 electrons
 Dipole moment (field-independent basis, Debye):
    X=             -6.5205    Y=             -0.3490    Z=              5.0355  Tot=              8.2459
 Quadrupole moment (field-independent basis, Debye-Ang):
   XX=           -168.6278   YY=           -193.1699   ZZ=           -181.0060
   XY=             39.5855   XZ=             -3.0361   YZ=            -10.0712
 Traceless Quadrupole moment (field-independent basis, Debye-Ang):
   XX=             12.3068   YY=            -12.2353   ZZ=             -0.0714
   XY=             39.5855   XZ=             -3.0361   YZ=            -10.0712
 Octapole moment (field-independent basis, Debye-Ang**2):
  XXX=           -262.1524  YYY=             -9.6845  ZZZ=              4.6654  XYY=           -101.7440
  XXY=           -151.4723  XXZ=            174.5781  XZZ=            -54.7324  YZZ=             -2.0236
  YYZ=             64.3315  XYZ=             55.6702
 Hexadecapole moment (field-independent basis, Debye-Ang**3):
 XXXX=         -12831.9634 YYYY=          -8705.2225 ZZZZ=          -1350.8725 XXXY=           1501.0034
 XXXZ=           -426.0940 YYYX=            860.7393 YYYZ=            -37.4802 ZZZX=           -133.2007
 ZZZY=            -32.8095 XXYY=          -3540.9546 XXZZ=          -2607.8972 YYZZ=          -1669.5393
 XXYZ=           -455.6254 YYXZ=           -151.4862 ZZXY=            178.5779
 N-N= 3.061627299587D+03 E-N=-1.030918198155D+04  KE= 1.781556279066D+03
 No NMR shielding tensors so no spin-rotation constants.
 Leave Link  601 at Fri Sep  9 21:04:09 2022, MaxMem=  209715200 cpu:       4.0
 (Enter /opt/gaussian/l701.exe)
 Compute integral first derivatives.
 ... and contract with generalized density number  0.
 Leave Link  701 at Fri Sep  9 21:04:10 2022, MaxMem=  209715200 cpu:       3.5
 (Enter /opt/gaussian/l702.exe)
 L702 exits ... SP integral derivatives will be done elsewhere.
 Leave Link  702 at Fri Sep  9 21:04:10 2022, MaxMem=  209715200 cpu:       0.2
 (Enter /opt/gaussian/l703.exe)
 Compute integral first derivatives, UseDBF=F ICtDFT=           0.
 Integral derivatives from FoFDir, PRISM(SPDF).
 Calling FoFJK, ICntrl=      2127 FMM=F ISym2X=0 I1Cent= 0 IOpClX= 0 NMat=1 NMatS=1 NMatT=0.
 FoFCou: FMM=F IPFlag=           0 FMFlag=      100000 FMFlg1=         800
         NFxFlg=           0 DoJE=F BraDBF=F KetDBF=F FulRan=T
         Omega=  0.000000  0.000000  1.000000  0.000000  0.000000 ICntrl=    2127 IOpCl=  0
         NMat0=    1 NMatS0=    1 NMatT0=    0 NMatD0=    1 NMtDS0=    0 NMtDT0=    0
         I1Cent=           0 NGrid=           0.
 Symmetry not used in FoFCou.
 Leave Link  703 at Fri Sep  9 21:08:43 2022, MaxMem=  209715200 cpu:    2011.2
 (Enter /opt/gaussian/l716.exe)
 Dipole        =-2.56537409D+00-1.37303056D-01 1.98111686D+00
 ***** Axes restored to original set *****
 -------------------------------------------------------------------
 Center     Atomic                   Forces (Hartrees/Bohr)
 Number     Number              X              Y              Z
 -------------------------------------------------------------------
      1        6           0.009205762   -0.008406895    0.004977197
      2        6          -0.000981460    0.012004598   -0.010827340
      3        6           0.001920434    0.003336470   -0.003456178
      4        6           0.002866215    0.000438901   -0.000968277
      5        6          -0.006373606    0.004036034   -0.001848058
      6        6           0.006527705   -0.004252593    0.002411751
      7        7           0.000510179   -0.000131231   -0.000188983
      8        7          -0.021835585    0.006581698   -0.000986335
      9        7           0.017343839    0.001430560   -0.004791215
     10        6          -0.004892708   -0.003294654   -0.001840590
     11        6          -0.012937900   -0.011412414   -0.003363141
     12        7           0.008880997   -0.000538746   -0.002020456
     13        8           0.000525331    0.001657345    0.000549181
     14        6           0.000920674    0.000145943    0.011984509
     15        6           0.026505532   -0.007479137    0.005370356
     16        6          -0.002952835   -0.000570368    0.000639683
     17        6          -0.000843660    0.001266772   -0.000506909
     18        6           0.003743435    0.002609979   -0.002045137
     19        6          -0.001992852    0.004854288   -0.004787792
     20        6           0.001829295   -0.000866643    0.000603089
     21       17          -0.015823774    0.004802628   -0.003498099
     22        6          -0.002475693   -0.000806307   -0.002312469
     23        6           0.007277812    0.004944021    0.002610527
     24        6           0.002618754    0.001975791   -0.000118435
     25        6          -0.003124945   -0.003136110    0.001139993
     26        6          -0.007141143   -0.004101088   -0.002741335
     27        6           0.002345782    0.000798853    0.001900786
     28        6          -0.003515434    0.006169921   -0.016614712
     29        6           0.009749194    0.006234901    0.004439504
     30        7          -0.014477933   -0.004535483   -0.014805656
     31        7          -0.009348223   -0.005911602   -0.004093495
     32        6          -0.005150701   -0.009167583    0.008251041
     33        1           0.010996525   -0.008113260    0.004354278
     34        1          -0.010857711    0.008135934   -0.004877158
     35        1          -0.002155974   -0.010132556    0.009734551
     36        1          -0.013003796   -0.002578238    0.005524271
     37        1           0.006403436    0.010882675   -0.005388211
     38        1           0.004586840   -0.000608374    0.012172622
     39        1          -0.011538269   -0.001792847   -0.006986867
     40        1           0.010600912    0.002271535   -0.006660655
     41        1           0.002636684   -0.011124654    0.008635950
     42        1           0.011104468    0.006623492   -0.005732058
     43        1          -0.010926246   -0.007164464    0.005714479
     44        1          -0.012971858    0.004657438   -0.003057757
     45        1           0.005569467   -0.001855116    0.012849836
     46        1          -0.005608211   -0.009142691    0.008548699
     47        1           0.006226895    0.009954399   -0.008659510
     48        1          -0.005696928    0.001618411   -0.012471436
     49        1          -0.000155767   -0.007999528    0.014070996
     50        1           0.014956067    0.004860939    0.014891294
     51        1           0.010930976    0.012829058   -0.005726324
 -------------------------------------------------------------------
 Cartesian Forces:  Max     0.026505532 RMS     0.007597002
 Leave Link  716 at Fri Sep  9 21:08:43 2022, MaxMem=  209715200 cpu:       0.2
 (Enter /opt/gaussian/l103.exe)

 GradGradGradGradGradGradGradGradGradGradGradGradGradGradGradGradGradGrad
 Berny optimization.
 Internal  Forces:  Max     0.021836538 RMS     0.005702451
 Search for a local minimum.
 Step number   1 out of a maximum of  288
 All quantities printed in internal units (Hartrees-Bohrs-Radians)
 RMS Force = .57025D-02 SwitMx=.10000D-02 MixMth= 1
 Mixed Optimization -- RFO/linear search
 Second derivative matrix not updated -- first step.
 ITU=  0
     Eigenvalues ---    0.00490   0.00578   0.00676   0.01198   0.01228
     Eigenvalues ---    0.01239   0.01262   0.01312   0.01540   0.01686
     Eigenvalues ---    0.01861   0.01875   0.01941   0.02059   0.02093
     Eigenvalues ---    0.02100   0.02117   0.02165   0.02179   0.02182
     Eigenvalues ---    0.02196   0.02202   0.02219   0.02221   0.02225
     Eigenvalues ---    0.02229   0.02229   0.02237   0.02246   0.02251
     Eigenvalues ---    0.02255   0.02261   0.02265   0.02269   0.02273
     Eigenvalues ---    0.02288   0.02308   0.02311   0.02319   0.02337
     Eigenvalues ---    0.02345   0.02364   0.02399   0.02535   0.04860
     Eigenvalues ---    0.05099   0.06431   0.06578   0.10061   0.10083
     Eigenvalues ---    0.13304   0.13332   0.15994   0.15999   0.15999
     Eigenvalues ---    0.16000   0.16000   0.16000   0.16000   0.16000
     Eigenvalues ---    0.16000   0.16000   0.16000   0.16000   0.16000
     Eigenvalues ---    0.16000   0.16000   0.22000   0.22000   0.22000
     Eigenvalues ---    0.22002   0.22066   0.22193   0.22592   0.22967
     Eigenvalues ---    0.23480   0.23505   0.23997   0.24015   0.24534
     Eigenvalues ---    0.24985   0.24996   0.24996   0.24998   0.24998
     Eigenvalues ---    0.24999   0.24999   0.25000   0.25000   0.25000
     Eigenvalues ---    0.25000   0.25000   0.25107   0.30286   0.30931
     Eigenvalues ---    0.34942   0.35617   0.35953   0.36238   0.36240
[...]
 0000348,0.00001806,0.00002767,-0.00001912,0.00001213,0.00000596,-0.000
 01685,0.00002445,-0.00001256,0.00000890,-0.00001127,-0.00004924,0.0000
 5788,-0.00001256,0.00000243,-0.00003836,0.00004554,0.00003646,-0.00001
 050,0.00000922,0.00052894,-0.00018374,0.00050451,-0.00217548,0.0007374
 0,0.00258388,0.00163656,0.00427710,-0.00000449,-0.00140310,0.00238713,
 -0.00338272,-0.01165385,-0.00058519,-0.01402978,-0.10595352,0.03473346
 ,-0.28655549,0.00008536,0.00029522,-0.00036012,0.00005524,-0.00006325,
 0.00004332,-0.00003683,-0.00002454,0.00003254,-0.00013375,-0.00010671,
 -0.00003557,-0.00003495,0.00000257,-0.00004737,0.00000244,-0.00000260,
 -0.00001009,-0.00000383,0.00000221,-0.00000090,-0.00000445,-0.00000466
 ,0.00000325,-0.00000482,-0.00000267,0.00000262,0.00010624,-0.00016676,
 -0.00022754,-0.00008390,-0.00002726,0.00007973,0.00002817,0.00003556,0
 .00001364,-0.00006347,0.00012819,-0.00003525,0.00000117,-0.00000298,0.
 00000009,0.00000176,-0.00000203,-0.00002440,-0.00000116,-0.00000568,0.
 00000258,0.00000359,0.00001829,-0.00000737,0.00014972,-0.00026010,-0.0
 0019793,-0.00056958,0.00010955,-0.00075488,0.00112085,-0.00136695,0.00
 011621,0.11728947,-0.03822756,0.30093924,-0.00001084,-0.00001018,0.000
 00837,0.00000069,-0.00000399,0.00000158,0.00000322,0.00000450,-0.00000
 012,-0.00000188,0.00000163,-0.00000010,-0.00000279,0.00000013,0.000002
 61,0.00000106,-0.00000002,0.00000078,0.00001698,-0.00000950,0.00000986
 ,0.00001857,-0.00000413,-0.00000052,-0.00000602,0.00002467,-0.00000889
 ,-0.00002597,0.00001250,-0.00001139,-0.00004334,-0.00002679,0.00001654
 ,0.00009202,-0.00001999,0.00002174,0.00003966,0.00004083,0.00000702,0.
 00000260,-0.00003588,-0.00002595,0.00004968,-0.00002034,0.00000847,-0.
 00001100,0.00000516,-0.00000131,-0.00000277,0.00001381,-0.00000531,-0.
 00000095,-0.00000206,0.00000477,0.00000128,0.00000033,0.00000672,-0.00
 000725,0.00000712,0.00000054,-0.00003221,0.00001021,-0.00000439,-0.000
 36728,0.00001334,-0.00039287,-0.00031303,0.00085663,0.00076665,-0.0001
 1804,0.00007917,0.00031020,-0.00012697,-0.00002576,-0.00010050,-0.0000
 6778,-0.00001382,-0.00001261,0.00008817,-0.00004376,0.00002971,0.00776
 028,0.01050842,-0.00530434,-0.04536228,-0.02533390,0.00856578,0.001957
 45,-0.00100262,-0.00614912,-0.00110951,-0.01020299,0.02450411,-0.00391
 532,-0.00453037,-0.00262950,-0.00000107,-0.00000422,-0.00000101,0.0000
 0061,-0.00000123,-0.00000014,-0.00000034,0.00000029,-0.00000138,0.0000
 0174,-0.00000007,-0.00000114,-0.00000630,0.00000299,-0.00000738,-0.000
 00443,-0.00000781,0.00000674,0.00000382,0.00000249,-0.00000198,-0.0000
 0189,-0.00000009,-0.00000129,0.00000110,-0.00000029,-0.00000173,0.0000
 0579,-0.00000443,-0.00000040,-0.00000124,-0.00000094,-0.00000148,-0.00
 000200,-0.00000507,-0.00000078,-0.00041260,-0.00098424,-0.00037180,-0.
 00001613,-0.00000702,-0.00001661,0.00004006,0.00005712,0.00010053,0.00
 000403,-0.00001287,-0.00000175,0.04080055,0.00000014,-0.00000046,0.000
 00440,-0.00000032,-0.00000119,0.00000248,-0.00000235,0.00000262,-0.000
 00353,0.00000214,-0.00000009,-0.00000137,-0.00000168,-0.00000054,-0.00
 000105,0.00000067,-0.00000241,0.00000015,0.00000301,-0.00000678,-0.000
 00104,0.00000753,-0.00000321,-0.00000218,-0.00000712,0.00000212,-0.000
 00682,-0.00000382,-0.00000428,0.00000011,-0.00005033,0.00003236,-0.000
 00746,-0.00001741,0.00001846,0.00001842,0.00001335,-0.00002031,-0.0000
 0079,0.00000508,0.00002029,0.00001695,-0.00004417,0.00001486,-0.000003
 78,0.00001106,-0.00000577,0.00000485,0.00000529,-0.00000617,0.00000860
 ,-0.00000219,0.00000180,-0.00000068,-0.00000530,0.00000617,-0.00000688
 ,0.00000446,-0.00000334,0.00000119,0.00003365,-0.00000410,0.00000757,-
 0.00024143,-0.00029269,-0.00013391,0.00081340,-0.00098414,-0.00007898,
 0.00020811,-0.00017569,-0.00008387,0.00003878,0.00001013,-0.00001439,-
 0.00000307,-0.00001736,-0.00003155,-0.00006366,0.00002418,0.00007633,0
 .00317624,0.00306741,-0.00306688,-0.02904712,-0.11437197,0.13638849,-0
 .00290938,0.00419493,-0.00030009,0.00258396,-0.00994243,0.01780940,-0.
 00444220,-0.00077304,-0.00074811,0.00000044,0.00000126,0.00000239,0.00
 000058,0.00000053,0.00000072,-0.00000048,0.00000034,0.00000107,0.00000
 019,0.00000037,0.00000063,0.00000255,0.00000321,0.00000610,0.00000147,
 0.00000805,-0.00000013,-0.00000104,0.00000056,0.00000267,-0.00000030,-
 0.00000261,-0.00000238,-0.00000207,-0.00000209,-0.00000058,-0.00000360
 ,0.00000033,-0.00000892,0.00000199,0.00000042,-0.00000068,0.00000111,0
 .00000253,-0.00000053,-0.00099440,0.00008800,-0.00025656,-0.00000611,-
 0.00000229,-0.00000529,0.00004523,-0.00004375,-0.00000251,-0.00000564,
 0.00000959,0.00000612,0.03045528,0.11879507,-0.00001343,-0.00001139,0.
 00001668,0.00000164,-0.00000561,0.00000396,0.00000100,0.00000477,-0.00
 000493,-0.00000034,0.00000092,-0.00000119,-0.00000402,-0.00000083,0.00
 000008,0.00000227,-0.00000190,-0.00000002,0.00002195,-0.00001536,0.000
 00552,0.00002598,-0.00000680,-0.00000251,-0.00001211,0.00002645,-0.000
 01814,-0.00003037,0.00000190,-0.00000427,-0.00013225,0.00002264,0.0000
 1660,0.00007321,0.00001570,0.00005533,0.00007236,0.00002080,0.00000316
 ,0.00002484,-0.00001878,0.00000139,-0.00000683,-0.00000067,0.00000312,
 0.00000299,-0.00000130,0.00000042,-0.00000027,0.00000194,0.00000662,-0
 .00000100,-0.00000101,0.00000103,-0.00000367,0.00000450,0.00000091,-0.
 00000030,0.00000285,-0.00000066,0.00000855,0.00000414,0.00000094,0.000
 06318,0.00031513,-0.00060213,0.00080641,-0.00003542,-0.00025860,0.0000
 8305,-0.00029142,0.00031149,-0.00021568,-0.00012749,-0.00015422,-0.000
 01006,-0.00003033,0.00001038,0.00005389,0.00008961,0.00002840,0.009537
 13,0.00991593,-0.00439367,0.01602520,0.14291755,-0.28083162,-0.0023303
 8,0.00303761,-0.00363656,-0.00124752,-0.00473645,0.00399256,-0.0027869
 5,-0.00088379,-0.00038847,-0.00000069,-0.00000111,0.00000387,0.0000012
 6,-0.00000036,0.00000054,0.00000013,0.00000126,0.,0.00000177,0.0000004
 9,-0.00000017,-0.00000319,0.00000857,-0.00000361,-0.00000203,-0.000000
 67,0.00000730,0.00000191,0.00001046,0.00000247,-0.00000127,-0.00000316
 ,-0.00000766,-0.00000129,0.00000037,-0.00000080,0.00000091,-0.00000408
 ,-0.00001039,0.00000248,0.00000137,-0.00000137,-0.00000028,-0.00000223
 ,-0.00000005,-0.00029768,-0.00021155,0.00073946,-0.00001265,-0.0000030
 5,-0.00001788,0.00012954,0.00002118,0.00009788,-0.00001319,-0.00000520
 ,0.00000340,-0.02017519,-0.15039443,0.28476998,-0.00001911,-0.00001523
 ,0.00001697,0.00000324,-0.00000659,0.00000174,0.00000426,0.00000377,-0
 .00000135,-0.00000510,0.00000152,0.00000070,-0.00000229,-0.00000007,0.
 00000164,0.00000179,0.00000174,-0.00000038,0.00003005,-0.00001301,0.00
 000851,0.00002668,-0.00000416,0.00000015,-0.00000432,0.00003580,-0.000
 01654,-0.00004476,0.00000515,-0.00000126,-0.00010994,-0.00000475,0.000
 01165,0.00007366,0.00000848,0.00000109,0.00008269,0.00005234,0.0000133
 5,0.00003629,-0.00005545,-0.00000981,0.00005158,-0.00002032,0.00000991
 ,-0.00001206,0.00000663,-0.00000317,-0.00000679,0.00001320,-0.00000438
 ,-0.00000034,-0.00000320,0.00000490,0.00000293,-0.00000534,0.00001244,
 -0.00000708,0.00001013,-0.00000332,-0.00003200,0.00001376,-0.00000535,
 0.00006577,0.00012853,-0.00004219,0.00061702,-0.00053339,-0.00117273,-
 0.00002343,0.00000391,0.00008005,-0.00016680,-0.00011130,0.00007019,0.
 00001242,0.00002809,-0.00005863,-0.00021552,0.00012748,-0.00000238,-0.
 00152048,-0.00392812,0.00030343,-0.00801752,0.00567709,-0.01318947,0.0
 0417957,-0.00247469,0.00007786,-0.22921955,-0.10151974,-0.19161863,-0.
 00083200,0.00490649,0.00368702,-0.00000163,-0.00000383,0.00000126,0.00
 000082,-0.00000193,-0.00000010,0.00000022,0.00000136,-0.00000201,0.000
 00285,0.00000024,-0.00000169,-0.00000790,0.00000488,-0.00001114,-0.000
 00259,-0.00000891,0.00000951,0.00000403,0.00001670,0.00000171,-0.00000
 176,-0.00000329,-0.00000792,0.00000052,0.00000047,-0.00000226,0.000007
 19,-0.00000729,-0.00000355,0.00000030,0.00000050,-0.00000233,-0.000002
 24,-0.00000741,0.00000020,0.00003844,-0.00005608,0.00000816,0.00000620
 ,0.00000215,-0.00000894,0.00004365,-0.00012549,-0.00005161,-0.00000266
 ,-0.00002132,0.00000472,-0.00004096,0.00084801,0.00067236,0.23557619,-
 0.00000383,-0.00000453,0.00000837,-0.00000009,-0.00000296,0.00000332,-
 0.00000077,0.00000415,-0.00000372,0.00000155,0.00000090,-0.00000187,-0
 .00000334,-0.00000007,-0.00000034,0.00000118,-0.00000308,0.00000076,0.
 00001009,-0.00001147,0.00000334,0.00001611,-0.00000512,-0.00000318,-0.
 00001209,0.00001237,-0.00001116,-0.00001391,0.00000220,-0.00000530,-0.
 00005963,0.00001652,0.00001753,0.00001669,0.00000640,0.00000854,0.0000
 2682,-0.00000656,-0.00000452,-0.00000102,0.00001964,0.00000196,-0.0000
 4203,0.00001574,-0.00000511,0.00001137,-0.00000435,0.00000298,0.000003
 96,-0.00000770,0.00000761,-0.00000175,0.00000121,-0.00000065,-0.000003
 39,0.00000505,-0.00000368,0.00000433,-0.00000183,0.00000069,0.00003046
 ,-0.00000611,0.00000521,0.00005157,0.00003367,-0.00008062,-0.00073857,
 0.00148762,-0.00049040,0.00006010,-0.00003398,0.00002235,-0.00022166,-
 0.00030962,0.00005817,0.00000325,0.00001433,-0.00002909,0.00012176,-0.
 00014291,-0.00021094,-0.00532827,-0.00275551,0.00178355,-0.00498464,-0
 .00164341,-0.01968011,-0.00090935,0.00288840,0.00658149,-0.10100198,-0
 .06738784,-0.05224382,0.01530102,0.00458943,0.00060865,0.00000046,-0.0
 0000017,0.00000217,0.00000108,0.00000020,0.00000074,-0.00000066,0.0000
 0029,0.00000074,0.00000079,0.00000052,0.00000020,-0.00000039,0.0000041
 2,0.00000167,0.00000187,0.00000118,0.00000154,-0.00000083,-0.00000062,
 0.00000093,-0.00000003,-0.00000196,-0.00000249,-0.00000214,-0.00000139
 ,-0.00000029,-0.00000360,0.00000067,-0.00000487,0.00000206,0.00000056,
 -0.00000092,0.00000074,0.00000158,-0.00000030,-0.00002963,0.00004420,0
 .00005073,-0.00000902,0.00000050,-0.00000081,-0.00016168,0.00008260,-0
 .00001526,-0.00003104,-0.00000963,0.00000156,0.00111929,-0.00044600,0.
 00003341,0.09650993,0.06446491,-0.00002659,-0.00001975,0.00003091,0.00
 000485,-0.00000949,0.00000597,0.00000292,0.00000570,-0.00000775,-0.000
 00314,0.00000078,-0.00000113,-0.00000532,-0.00000142,-0.00000085,0.000
 00396,-0.00000120,-0.00000175,0.00004297,-0.00002245,0.00000759,0.0000
 4254,-0.00001045,-0.00000440,-0.00001530,0.00004523,-0.00003286,-0.000
 06145,0.00000070,-0.00000175,-0.00022815,0.00003502,0.00005677,0.00009
 285,0.00002743,0.00000297,0.00013845,0.00004950,-0.00000107,0.00005784
 ,-0.00005003,-0.00000317,0.00003287,-0.00001417,0.00000732,-0.00000668
 ,0.00000512,-0.00000489,-0.00000890,0.00000773,0.00000029,0.00000052,-
 0.00000464,0.00000283,0.00000291,-0.00000714,0.00001351,-0.00000577,0.
 00001102,-0.00000656,-0.00001821,0.00001118,-0.00000632,0.00010746,0.0
 0004411,0.00003512,-0.00075677,-0.00011569,0.00079030,-0.00002358,-0.0
 0006711,0.00002575,0.00028995,0.00025474,-0.00008279,0.00003064,0.0000
 2444,-0.00005825,-0.00000696,-0.00021429,0.00005531,0.00311141,0.00423
 489,-0.00024616,0.00833075,-0.00084337,0.00937640,-0.00306662,0.003826
 63,-0.00615312,-0.19278336,-0.05320007,-0.23800578,-0.01721983,-0.0177
 2911,-0.00321733,-0.00000142,-0.00000169,0.00000708,0.00000200,-0.0000
 0073,0.00000120,0.00000095,0.00000279,-0.00000042,0.00000335,0.0000010
 8,-0.00000030,-0.00000886,0.00001537,-0.00000738,0.00000003,-0.0000057
 5,0.00001169,0.00000162,0.00002664,0.00000523,0.00000093,-0.00000709,-
 0.00001405,-0.00000066,0.00000267,-0.00000105,0.00000664,-0.00000739,-
 0.00000532,0.00000282,0.00000314,-0.00000216,-0.00000177,-0.00000648,0
 .00000186,-0.00004233,0.00000466,0.00001138,0.00001697,0.00001948,-0.0
 0000483,0.00002621,0.00004332,0.00016646,0.00002378,0.00001879,0.00002
 271,0.00017302,-0.00040024,-0.00028583,0.20089929,0.06397828,0.2374859
 1,0.00000902,0.00000887,-0.00001309,-0.00000134,0.00000436,-0.00000353
 ,-0.00000088,-0.00000430,0.00000391,-0.00000086,-0.00000109,0.00000154
 ,0.00000396,0.00000025,-0.00000018,-0.00000199,0.00000250,-0.00000064,
 -0.00001696,0.00001236,-0.00000510,-0.00002205,0.00000607,0.00000297,0
 .00001331,-0.00002010,0.00001485,0.00002444,-0.00000161,0.00000433,0.0
 0010280,-0.00002011,-0.00001754,-0.00004470,-0.00002122,-0.00000641,-0
 .00005662,-0.00001454,-0.00000192,-0.00002003,0.00001747,0.00000178,-0
 .00000672,0.00000373,-0.00000261,0.00000088,-0.00000142,0.00000121,0.0
 0000097,-0.00000289,-0.00000155,0.00000024,0.00000138,-0.00000130,0.00
 000004,0.00000043,-0.00000281,0.00000273,-0.00000359,0.00000087,0.0000
 0281,-0.00000298,0.00000106,-0.00034347,-0.00003111,-0.00024991,0.0004
 5329,-0.00097186,0.00081380,-0.00013402,0.00001472,0.00013960,0.000022
 79,0.00001589,-0.00000548,0.00003646,0.00002015,0.00004131,-0.00001576
 ,0.00003781,0.00000685,0.00037569,-0.00411998,-0.00422087,0.00085594,-
 0.00045754,-0.00242238,-0.01402744,-0.01266400,0.00980712,0.00560385,0
 .00788248,-0.00305381,-0.14931188,-0.13875949,0.06118239,0.00000016,0.
 00000107,-0.00000268,-0.00000116,-0.00000002,-0.00000036,0.00000013,-0
 .00000048,-0.00000021,-0.00000094,-0.00000033,0.00000002,0.00000402,-0
 .00000783,0.00000175,0.00000012,0.00000053,-0.00000559,-0.00000089,-0.
 00000898,-0.00000187,0.00000031,0.00000332,0.00000530,0.00000044,-0.00
 000035,0.00000064,-0.00000223,0.00000292,0.00000316,-0.00000091,-0.000
 00098,0.00000105,0.00000055,0.00000196,-0.00000026,0.00004590,-0.00004
 622,-0.00000720,-0.00002396,-0.00003472,-0.00001496,0.00004686,-0.0000
 1906,0.00002563,-0.00001189,-0.00001163,-0.00001151,0.00112277,-0.0004
 0849,-0.00031144,-0.00056954,0.00026887,0.00084118,0.15588574,0.000006
 71,0.00000491,-0.00000577,-0.00000138,0.00000210,-0.00000054,-0.000001
 39,-0.00000114,0.00000059,0.00000165,-0.00000036,-0.00000033,0.0000006
 1,0.00000014,-0.00000044,-0.00000068,-0.00000076,0.00000035,-0.0000099
 1,0.00000385,-0.00000257,-0.00000861,0.00000149,-0.00000010,0.00000088
 ,-0.00001140,0.00000557,0.00001511,-0.00000174,0.00000086,0.00004555,0
 .00000093,-0.00000942,-0.00004622,0.00000335,0.00000545,-0.00003351,-0
 .00002180,-0.00000438,-0.00001180,0.00002573,0.00001044,-0.00002417,0.
 00000950,-0.00000471,0.00000597,-0.00000322,0.00000150,0.00000143,-0.0
 0000715,0.00000326,0.00000006,0.00000143,-0.00000197,-0.00000143,0.000
 00285,-0.00000602,0.00000371,-0.00000395,0.00000095,0.00001604,-0.0000
 0568,0.00000228,-0.00005325,-0.00011988,-0.00017153,-0.00041179,0.0003
 7485,0.00072536,0.00006724,-0.00015334,-0.00003916,-0.00001874,0.00000
 554,-0.00002809,0.00002989,0.00000116,0.00003714,0.00004155,-0.0000187
 4,-0.00001293,-0.00401843,0.00403753,-0.00018273,0.00034395,0.00225548
 ,0.00159965,-0.00393576,-0.00902235,0.00090533,-0.00374761,-0.00510738
 ,0.00033245,-0.13711617,-0.18957452,0.08786375,0.00000062,0.00000123,-
 0.00000067,-0.00000021,0.00000057,0.00000003,-0.00000018,-0.00000048,0
 .00000063,-0.00000084,-0.00000005,0.00000046,0.00000320,-0.00000243,0.
 00000257,0.00000120,0.00000186,-0.00000365,-0.00000170,-0.00000529,-0.
 00000005,0.00000089,0.00000150,0.00000265,-0.00000037,-0.00000021,0.00
 000090,-0.00000373,0.00000322,0.00000127,0.00000028,-0.00000012,0.0000
 0076,0.00000098,0.00000321,-0.00000013,-0.00004038,0.00005928,0.000021
 57,-0.00002780,0.00000117,0.00000302,-0.00001038,0.00002874,0.00003199
 ,-0.00001188,0.00000020,-0.00000399,-0.00090154,0.00080714,0.00033484,
 0.00052258,-0.00091214,0.00003929,0.14932975,0.19733512,0.00000283,0.0
 0000329,-0.00000300,-0.00000036,0.00000130,-0.00000031,-0.00000073,-0.
 00000101,0.00000038,0.00000016,-0.00000045,0.00000005,0.00000085,-0.00
 000010,-0.00000047,-0.00000055,0.00000015,-0.00000044,-0.00000475,0.00
 000235,-0.00000171,-0.00000573,0.00000084,-0.00000035,0.00000248,-0.00
 000698,0.00000226,0.00000747,-0.00000101,0.00000084,0.00002385,0.00000
 067,-0.00000350,-0.00002314,0.00000201,0.00000022,-0.00001755,-0.00001
 092,-0.00000362,-0.00000700,0.00001111,0.00000695,-0.00000887,0.000003
 48,-0.00000188,0.00000202,-0.00000125,0.00000070,-0.00000033,-0.000002
 92,0.00000093,0.00000012,0.00000052,-0.00000085,-0.00000014,0.00000016
 ,-0.00000305,0.00000160,-0.00000145,-0.00000009,0.00000606,-0.00000194
 ,0.00000079,-0.00022246,-0.00014169,-0.00026125,-0.00029828,-0.0002489
 7,0.00106988,0.00004996,-0.00011916,0.00009334,0.00006936,0.00003365,0
 .00006110,0.00002075,0.00002446,-0.00001634,-0.00000896,-0.00002612,-0
 .00002275,-0.00442765,-0.00036189,0.00041155,-0.00403512,0.00018850,-0
 .00474028,-0.00774389,-0.01446355,0.01032652,0.02037314,0.02083325,-0.
 00766073,0.05782894,0.08491265,-0.09457344,0.00000024,0.00000074,-0.00
 000015,-0.00000017,0.00000029,0.00000027,-0.00000001,-0.00000003,0.000
 00032,-0.00000026,0.00000008,0.00000030,0.00000181,-0.00000178,0.00000
 251,0.00000106,0.00000126,-0.00000213,-0.00000140,-0.00000289,0.000000
 23,0.00000105,0.00000091,0.00000191,-0.00000012,-0.00000006,0.00000036
 ,-0.00000136,0.00000153,0.00000102,0.00000013,0.,0.00000037,0.00000047
 ,0.00000137,0.00000015,-0.00001989,0.00000557,0.00005482,-0.00003167,-
 0.00001165,-0.00000444,0.00000719,0.00001537,0.00003337,-0.00001159,-0
 .00000395,-0.00000377,0.00068524,0.00120701,0.00054119,0.00032231,-0.0
 0038702,0.00003268,-0.06253712,-0.09145573,0.09465952\\-0.00000512,-0.
 00000199,-0.00000055,0.00000250,-0.00000207,0.00000156,-0.00000123,0.0
 0000082,-0.00000150,0.00000027,0.00000017,-0.00000044,-0.00000007,0.00
 000313,-0.00000344,0.00000247,0.00000166,-0.00000333,0.00000068,0.0000
 0784,-0.00000344,-0.00000572,0.00000521,-0.00000334,0.00000666,-0.0000
 0605,0.00000197,0.00000014,-0.00000253,-0.00000115,-0.00000048,-0.0000
 0205,-0.00000292,-0.00000099,0.00000063,-0.00000114,0.00000159,0.00000
 268,0.00000052,-0.00000003,-0.00000089,0.00000172,-0.00000257,0.000000
 01,-0.00000020,0.00000115,-0.00000184,0.00000099,0.00000384,-0.0000007
 2,0.00000042,-0.00000053,0.00000272,-0.00000285,-0.00000342,-0.0000001
 7,0.00000011,0.00000146,-0.00000285,0.00000089,-0.00000303,-0.00000010
 ,0.00000026,-0.00000184,-0.00000114,-0.00000110,0.00000220,0.00000103,
 0.00000103,-0.00000007,-0.00000029,-0.00000082,-0.00000130,-0.00000199
 ,0.00000162,0.00000316,0.00000280,0.00000145,0.00000096,-0.00000070,0.
 00000208,-0.00000179,-0.00000583,0.00000491,-0.00000080,-0.00000047,0.
 00000059,0.00000243,0.00000183,0.00000258,-0.00000168,-0.00000130,-0.0
 0000070,0.00000094,-0.00000109,0.00000045,0.00000027,0.00000067,-0.000
 00156,0.00000016,0.00000198,-0.00000245,-0.00000157,0.00000044,-0.0000
 0139,-0.00000100,0.00000061,-0.00000169,0.00000144,0.00000170,0.000000
 30,0.00000084,0.00000104,0.00000139,-0.00000138,-0.00000008,-0.0000015
 2,0.00000180,0.00000071,0.00000013,-0.00000129,0.00000057,-0.00000120,
 -0.00000050,-0.00000095,0.00000088,-0.00000241,0.00000004,-0.00000098,
 -0.00000056,0.00000109,-0.00000117,0.00000023,-0.00000083,0.00000183,-
 0.00000078,-0.00000042,0.00000072,0.00000164,0.00000003,0.00000129,0.0
 0000069,0.00000004,0.00000021,-0.00000050,-0.00000144,0.00000226,0.000
 00089,-0.00000118,0.00000355,0.00000223,-0.00000049,0.00000317\\\@


          EVOLUTION
 IN THE BEGINNING GOD MADE MAN.
 HE WORKED THE DIRT WITH HIS HANDS.
 THEN GOD DECIDED TO GIVE MAN SCIENCE,
 MAN SHOULD BE USEFUL (LIKE AN APPLIANCE.)
 BUT SOON MAN'S KNOWLEDGE GREW TOO GREAT,
 TO THE HEADING SCIENCE HE COULDN'T RELATE
 SO GOD SAID "LETS HAVE DIFFERENT FIELDS,
 WE'LL DIVIDE THEM UP, SEE WHAT IT YIELDS."
 ENTER PHYSICS, CHEMISTRY, BIO
 THEY SPRANG UP AROUND THE NILE.
 BUT CHEMISTRY SURPASSED THE REST
 FAR AND AWAY IT WAS THE BEST.
 EXPERIMENT WAS GOD'S DECREE
 EXPERIMENT DID CHEMISTS WITH LOTS OF GLEE
 BUT SOON THEIR TESTS BEGAN TO BOG,
 THEY FOUND THEMSELVES DEEP IN A FOG.
 "GIVE US SOME HELP" THEY CRIED TO GOD.
 GOD LOOKED AROUND, THEN GAVE THE NOD.
 ENTER EINSTEIN, HEISENBERG, BOHR,
 REACTION PATHS WERE CLEAR ONCE MORE.
 WITH THEORISTS GOD SEND DIRECTION
 AND THEN HE STOPPED, HE'D MADE PERFECTION.
          -- THOMAS A. HOLME, 1981
 Job cpu time:  0 days 22 hours 56 minutes 49.7 seconds.
 File lengths (MBytes):  RWF=   1726 Int=      0 D2E=      0 Chk=     24 Scr=      1
 Normal termination of Gaussian 09 at Sat Sep 10 04:15:15 2022.
