 Entering Gaussian System, Link 0=g09
 Input=Mol40.gjf
 Output=Mol40.log
 Initial command:
 /opt/gaussian/l1.exe /home/scr/lqcapf-6/Gau-445045.inp -scrdir=/home/scr/lqcapf-6/
 Entering Link 1 = /opt/gaussian/l1.exe PID=    445047.
  
 Copyright (c) 1988,1990,1992,1993,1995,1998,2003,2009,2011,
            Gaussian, Inc.  All Rights Reserved.
  
 This is part of the Gaussian(R) 09 program.  It is based on
 the Gaussian(R) 03 system (copyright 2003, Gaussian, Inc.),
 the Gaussian(R) 98 system (copyright 1998, Gaussian, Inc.),
 the Gaussian(R) 94 system (copyright 1995, Gaussian, Inc.),
 the Gaussian 92(TM) system (copyright 1992, Gaussian, Inc.),
 the Gaussian 90(TM) system (copyright 1990, Gaussian, Inc.),
 the Gaussian 88(TM) system (copyright 1988, Gaussian, Inc.),
 the Gaussian 86(TM) system (copyright 1986, Carnegie Mellon
 University), and the Gaussian 82(TM) system (copyright 1983,
 Carnegie Mellon University). Gaussian is a federally registered
 trademark of Gaussian, Inc.
  
 This software contains proprietary and confidential information,
 including trade secrets, belonging to Gaussian, Inc.
  
 This software is provided under written license and may be
 used, copied, transmitted, or stored only in accord with that
 written license.
  
 The following legend is applicable only to US Government
 contracts under FAR:
  
                    RESTRICTED RIGHTS LEGEND
  
 Use, reproduction and disclosure by the US Government is
 subject to restrictions as set forth in subparagraphs (a)
 and (c) of the Commercial Computer Software - Restricted
 Rights clause in FAR 52.227-19.
  
 Gaussian, Inc.
 340 Quinnipiac St., Bldg. 40, Wallingford CT 06492
  
  
 ---------------------------------------------------------------
 Warning -- This program may not be used in any manner that
 competes with the business of Gaussian, Inc. or will provide
 assistance to any competitor of Gaussian, Inc.  The licensee
 of this program is prohibited from giving any competitor of
 Gaussian, Inc. access to this program.  By using this program,
 the user acknowledges that Gaussian, Inc. is engaged in the
 business of creating and licensing software in the field of
 computational chemistry and represents and warrants to the
 licensee that it is not a competitor of Gaussian, Inc. and that
 it will not use this program in any manner prohibited above.
 ---------------------------------------------------------------
  

 Cite this work as:
 Gaussian 09, Revision C.01,
 M. J. Frisch, G. W. Trucks, H. B. Schlegel, G. E. Scuseria, 
 M. A. Robb, J. R. Cheeseman, G. Scalmani, V. Barone, B. Mennucci, 
 G. A. Petersson, H. Nakatsuji, M. Caricato, X. Li, H. P. Hratchian, 
 A. F. Izmaylov, J. Bloino, G. Zheng, J. L. Sonnenberg, M. Hada, 
 M. Ehara, K. Toyota, R. Fukuda, J. Hasegawa, M. Ishida, T. Nakajima, 
 Y. Honda, O. Kitao, H. Nakai, T. Vreven, J. A. Montgomery, Jr., 
 J. E. Peralta, F. Ogliaro, M. Bearpark, J. J. Heyd, E. Brothers, 
 K. N. Kudin, V. N. Staroverov, T. Keith, R. Kobayashi, J. Normand, 
 K. Raghavachari, A. Rendell, J. C. Burant, S. S. Iyengar, J. Tomasi, 
 M. Cossi, N. Rega, J. M. Millam, M. Klene, J. E. Knox, J. B. Cross, 
 V. Bakken, C. Adamo, J. Jaramillo, R. Gomperts, R. E. Stratmann, 
 O. Yazyev, A. J. Austin, R. Cammi, C. Pomelli, J. W. Ochterski, 
 R. L. Martin, K. Morokuma, V. G. Zakrzewski, G. A. Voth, 
 P. Salvador, J. J. Dannenberg, S. Dapprich, A. D. Daniels, 
 O. Farkas, J. B. Foresman, J. V. Ortiz, J. Cioslowski, 
 and D. J. Fox, Gaussian, Inc., Wallingford CT, 2010.
 
 ******************************************
 Gaussian 09:  EM64L-G09RevC.01 23-Sep-2011
                 9-Sep-2022 
 ******************************************
 %nprocshared=8
 Will use up to    8 processors via shared memory.
 %mem=1600MB
 -------------------------
 #p opt freq b3lyp/cc-pvdz
 -------------------------
 1/14=-1,18=20,19=15,26=3,38=1/1,3;
 2/9=110,12=2,17=6,18=5,40=1/2;
 3/5=16,11=2,16=1,25=1,30=1,71=1,74=-5/1,2,3;
 4//1;
 5/5=2,38=5/2;
 6/7=2,8=2,9=2,10=2,28=1/1;
 7//1,2,3,16;
 1/14=-1,18=20,19=15/3(2);
 2/9=110/2;
 99//99;
 2/9=110/2;
 3/5=16,11=2,16=1,25=1,30=1,71=1,74=-5/1,2,3;
 4/5=5,16=3/1;
 5/5=2,38=5/2;
 7//1,2,3,16;
 1/14=-1,18=20,19=15/3(-5);
 2/9=110/2;
 6/7=2,8=2,9=2,10=2,19=2,28=1/1;
 99/9=1/99;
 Leave Link    1 at Fri Sep  9 14:04:14 2022, MaxMem=  209715200 cpu:       0.2
 (Enter /opt/gaussian/l101.exe)
 ---------
 Mol40.log
 ---------
 Charge =  0 Multiplicity = 1
 Symbolic Z-Matrix:
 Cl                   -3.30795   5.3369   -0.37729 
 C                    -2.1051    4.10923   0.18989 
 C                    -1.79127   4.04442   1.53037 
 C                    -0.86846   3.09402   1.94554 
 C                    -0.2777    2.2341    1.03211 
 C                    -0.60657   2.3089   -0.31783 
 C                    -1.53411   3.25913  -0.7352 
 C                     0.04663   1.41651  -1.35703 
 N                     0.3658    0.05364  -0.89815 
 C                    -0.62036  -0.88432  -0.7071 
 O                    -0.41182  -1.98052  -0.20924 
 C                    -2.02895  -0.50557  -1.14731 
 N                    -2.95125  -1.5824   -0.9663 
 N                    -3.27818  -2.37622  -2.02552 
 N                    -4.06654  -3.29125  -1.64088 
 C                    -4.29211  -3.14712  -0.28084 
 C                    -5.07987  -3.89457   0.59356 
 C                    -5.10773  -3.49968   1.90862 
 C                    -4.36297  -2.38291   2.34963 
 C                    -3.58228  -1.64209   1.49467 
 C                    -3.56405  -2.04872   0.15808 
 C                     1.72944  -0.23282  -0.60962 
 C                     2.28582  -1.51004  -0.68449 
 C                     3.63506  -1.64741  -0.4289 
 C                     4.42387  -0.54407  -0.09446 
 C                     3.77413   0.67985  -0.05054 
 N                     2.47465   0.81671  -0.30363 
 C                     5.85682  -0.66117   0.19254 
 C                     6.51541  -1.69404   0.81023 
 N                     7.82234  -1.35743   0.8523 
 N                     8.05535  -0.15256   0.29177 
 C                     6.88264   0.27843  -0.10812 
 H                    -2.25081   4.71256   2.22911 
 H                    -0.60693   3.03099   2.98371 
 H                     0.44803   1.52001   1.36187 
 H                    -1.80929   3.33864  -1.76865 
 H                    -0.58353   1.35776  -2.23407 
 H                     0.97708   1.86268  -1.66286 
 H                    -2.37303   0.36283  -0.60413 
 H                    -2.03354  -0.26557  -2.20021 
 H                    -5.6346   -4.73973   0.23916 
 H                    -5.69838  -4.04307   2.61934 
 H                    -4.4075   -2.11073   3.38636 
 H                    -3.01048  -0.80534   1.84268 
 H                     1.68789  -2.35876  -0.92175 
 H                     4.083    -2.61854  -0.51045 
 H                     4.29704   1.57794   0.20761 
 H                     6.14933  -2.60551   1.22428 
 H                     6.79302   1.21657  -0.60566 
 H                     8.57748  -1.86966   1.2315 
 
 NAtoms=     50 NQM=        0 NQMF=       0 NMMI=     50 NMMIF=      0
                NMic=       0 NMicF=      0.
                    Isotopes and Nuclear Properties:
 (Nuclear quadrupole moments (NQMom) in fm**2, nuclear magnetic moments (NMagM)
  in nuclear magnetons)

  Atom         1           2           3           4           5           6           7           8           9          10
 IAtWgt=          35          12          12          12          12          12          12          12          14          12
 AtmWgt=  34.9688527  12.0000000  12.0000000  12.0000000  12.0000000  12.0000000  12.0000000  12.0000000  14.0030740  12.0000000
 NucSpn=           3           0           0           0           0           0           0           0           2           0
 AtZEff=   0.0000000   0.0000000   0.0000000   0.0000000   0.0000000   0.0000000   0.0000000   0.0000000   0.0000000   0.0000000
 NQMom=   -8.1650000   0.0000000   0.0000000   0.0000000   0.0000000   0.0000000   0.0000000   0.0000000   2.0440000   0.0000000
 NMagM=    0.8218740   0.0000000   0.0000000   0.0000000   0.0000000   0.0000000   0.0000000   0.0000000   0.4037610   0.0000000

  Atom        11          12          13          14          15          16          17          18          19          20
 IAtWgt=          16          12          14          14          14          12          12          12          12          12
 AtmWgt=  15.9949146  12.0000000  14.0030740  14.0030740  14.0030740  12.0000000  12.0000000  12.0000000  12.0000000  12.0000000
 NucSpn=           0           0           2           2           2           0           0           0           0           0
 AtZEff=   0.0000000   0.0000000   0.0000000   0.0000000   0.0000000   0.0000000   0.0000000   0.0000000   0.0000000   0.0000000
 NQMom=    0.0000000   0.0000000   2.0440000   2.0440000   2.0440000   0.0000000   0.0000000   0.0000000   0.0000000   0.0000000
 NMagM=    0.0000000   0.0000000   0.4037610   0.4037610   0.4037610   0.0000000   0.0000000   0.0000000   0.0000000   0.0000000

  Atom        21          22          23          24          25          26          27          28          29          30
 IAtWgt=          12          12          12          12          12          12          14          12          12          14
 AtmWgt=  12.0000000  12.0000000  12.0000000  12.0000000  12.0000000  12.0000000  14.0030740  12.0000000  12.0000000  14.0030740
 NucSpn=           0           0           0           0           0           0           2           0           0           2
 AtZEff=   0.0000000   0.0000000   0.0000000   0.0000000   0.0000000   0.0000000   0.0000000   0.0000000   0.0000000   0.0000000
 NQMom=    0.0000000   0.0000000   0.0000000   0.0000000   0.0000000   0.0000000   2.0440000   0.0000000   0.0000000   2.0440000
 NMagM=    0.0000000   0.0000000   0.0000000   0.0000000   0.0000000   0.0000000   0.4037610   0.0000000   0.0000000   0.4037610

  Atom        31          32          33          34          35          36          37          38          39          40
 IAtWgt=          14          12           1           1           1           1           1           1           1           1
 AtmWgt=  14.0030740  12.0000000   1.0078250   1.0078250   1.0078250   1.0078250   1.0078250   1.0078250   1.0078250   1.0078250
 NucSpn=           2           0           1           1           1           1           1           1           1           1
 AtZEff=   0.0000000   0.0000000   0.0000000   0.0000000   0.0000000   0.0000000   0.0000000   0.0000000   0.0000000   0.0000000
 NQMom=    2.0440000   0.0000000   0.0000000   0.0000000   0.0000000   0.0000000   0.0000000   0.0000000   0.0000000   0.0000000
 NMagM=    0.4037610   0.0000000   2.7928460   2.7928460   2.7928460   2.7928460   2.7928460   2.7928460   2.7928460   2.7928460

  Atom        41          42          43          44          45          46          47          48          49          50
 IAtWgt=           1           1           1           1           1           1           1           1           1           1
 AtmWgt=   1.0078250   1.0078250   1.0078250   1.0078250   1.0078250   1.0078250   1.0078250   1.0078250   1.0078250   1.0078250
 NucSpn=           1           1           1           1           1           1           1           1           1           1
 AtZEff=   0.0000000   0.0000000   0.0000000   0.0000000   0.0000000   0.0000000   0.0000000   0.0000000   0.0000000   0.0000000
 NQMom=    0.0000000   0.0000000   0.0000000   0.0000000   0.0000000   0.0000000   0.0000000   0.0000000   0.0000000   0.0000000
 NMagM=    2.7928460   2.7928460   2.7928460   2.7928460   2.7928460   2.7928460   2.7928460   2.7928460   2.7928460   2.7928460
 Leave Link  101 at Fri Sep  9 14:04:14 2022, MaxMem=  209715200 cpu:       1.0
 (Enter /opt/gaussian/l103.exe)

 GradGradGradGradGradGradGradGradGradGradGradGradGradGradGradGradGradGrad
 Berny optimization.
 Initialization pass.
                           ----------------------------
                           !    Initial Parameters    !
                           ! (Angstroms and Degrees)  !
 --------------------------                            --------------------------
 ! Name  Definition              Value          Derivative Info.                !
 --------------------------------------------------------------------------------
 ! R1    R(1,2)                  1.8099         estimate D2E/DX2                !
 ! R2    R(2,3)                  1.3783         estimate D2E/DX2                !
 ! R3    R(2,7)                  1.38           estimate D2E/DX2                !
 ! R4    R(3,4)                  1.3882         estimate D2E/DX2                !
 ! R5    R(3,33)                 1.0704         estimate D2E/DX2                !
 ! R6    R(4,5)                  1.3867         estimate D2E/DX2                !
 ! R7    R(4,34)                 1.0725         estimate D2E/DX2                !
 ! R8    R(5,6)                  1.3914         estimate D2E/DX2                !
 ! R9    R(5,35)                 1.0702         estimate D2E/DX2                !
 ! R10   R(6,7)                  1.3919         estimate D2E/DX2                !
 ! R11   R(6,8)                  1.5176         estimate D2E/DX2                !
 ! R12   R(7,36)                 1.0724         estimate D2E/DX2                !
 ! R13   R(8,9)                  1.473          estimate D2E/DX2                !
 ! R14   R(8,37)                 1.0816         estimate D2E/DX2                !
 ! R15   R(8,38)                 1.0763         estimate D2E/DX2                !
 ! R16   R(9,10)                 1.3743         estimate D2E/DX2                !
 ! R17   R(9,22)                 1.423          estimate D2E/DX2                !
 ! R18   R(10,11)                1.2219         estimate D2E/DX2                !
 ! R19   R(10,12)                1.5236         estimate D2E/DX2                !
 ! R20   R(12,13)                1.4293         estimate D2E/DX2                !
 ! R21   R(12,39)                1.0805         estimate D2E/DX2                !
 ! R22   R(12,40)                1.0799         estimate D2E/DX2                !
 ! R23   R(13,14)                1.3634         estimate D2E/DX2                !
 ! R24   R(13,21)                1.3628         estimate D2E/DX2                !
 ! R25   R(14,15)                1.2676         estimate D2E/DX2                !
 ! R26   R(15,16)                1.3861         estimate D2E/DX2                !
 ! R27   R(16,17)                1.3942         estimate D2E/DX2                !
 ! R28   R(16,21)                1.389          estimate D2E/DX2                !
 ! R29   R(17,18)                1.3734         estimate D2E/DX2                !
 ! R30   R(17,41)                1.0713         estimate D2E/DX2                !
 ! R31   R(18,19)                1.4129         estimate D2E/DX2                !
 ! R32   R(18,42)                1.072          estimate D2E/DX2                !
 ! R33   R(19,20)                1.3745         estimate D2E/DX2                !
 ! R34   R(19,43)                1.0728         estimate D2E/DX2                !
 ! R35   R(20,21)                1.3972         estimate D2E/DX2                !
 ! R36   R(20,44)                1.0715         estimate D2E/DX2                !
 ! R37   R(22,23)                1.3952         estimate D2E/DX2                !
 ! R38   R(22,27)                1.3231         estimate D2E/DX2                !
 ! R39   R(23,24)                1.3801         estimate D2E/DX2                !
 ! R40   R(23,45)                1.065          estimate D2E/DX2                !
 ! R41   R(24,25)                1.3969         estimate D2E/DX2                !
 ! R42   R(24,46)                1.0726         estimate D2E/DX2                !
 ! R43   R(25,26)                1.3864         estimate D2E/DX2                !
 ! R44   R(25,28)                1.4661         estimate D2E/DX2                !
 ! R45   R(26,27)                1.331          estimate D2E/DX2                !
 ! R46   R(26,47)                1.0708         estimate D2E/DX2                !
 ! R47   R(28,29)                1.3719         estimate D2E/DX2                !
 ! R48   R(28,32)                1.4232         estimate D2E/DX2                !
 ! R49   R(29,30)                1.3502         estimate D2E/DX2                !
 ! R50   R(29,48)                1.0659         estimate D2E/DX2                !
 ! R51   R(30,31)                1.3491         estimate D2E/DX2                !
 ! R52   R(30,50)                0.9881         estimate D2E/DX2                !
 ! R53   R(31,32)                1.3118         estimate D2E/DX2                !
 ! R54   R(32,49)                1.0657         estimate D2E/DX2                !
 ! A1    A(1,2,3)              119.2102         estimate D2E/DX2                !
 ! A2    A(1,2,7)              118.865          estimate D2E/DX2                !
 ! A3    A(3,2,7)              121.9237         estimate D2E/DX2                !
 ! A4    A(2,3,4)              118.3216         estimate D2E/DX2                !
 ! A5    A(2,3,33)             120.5155         estimate D2E/DX2                !
 ! A6    A(4,3,33)             121.1629         estimate D2E/DX2                !
 ! A7    A(3,4,5)              120.7138         estimate D2E/DX2                !
 ! A8    A(3,4,34)             119.4615         estimate D2E/DX2                !
 ! A9    A(5,4,34)             119.8234         estimate D2E/DX2                !
 ! A10   A(4,5,6)              120.3349         estimate D2E/DX2                !
 ! A11   A(4,5,35)             119.981          estimate D2E/DX2                !
 ! A12   A(6,5,35)             119.6752         estimate D2E/DX2                !
 ! A13   A(5,6,7)              119.0194         estimate D2E/DX2                !
 ! A14   A(5,6,8)              122.0744         estimate D2E/DX2                !
 ! A15   A(7,6,8)              118.8772         estimate D2E/DX2                !
 ! A16   A(2,7,6)              119.6853         estimate D2E/DX2                !
 ! A17   A(2,7,36)             119.6135         estimate D2E/DX2                !
 ! A18   A(6,7,36)             120.7012         estimate D2E/DX2                !
 ! A19   A(6,8,9)              115.0876         estimate D2E/DX2                !
 ! A20   A(6,8,37)             109.661          estimate D2E/DX2                !
 ! A21   A(6,8,38)             108.84           estimate D2E/DX2                !
 ! A22   A(9,8,37)             109.1838         estimate D2E/DX2                !
 ! A23   A(9,8,38)             106.544          estimate D2E/DX2                !
 ! A24   A(37,8,38)            107.2055         estimate D2E/DX2                !
 ! A25   A(8,9,10)             121.2833         estimate D2E/DX2                !
 ! A26   A(8,9,22)             117.1977         estimate D2E/DX2                !
 ! A27   A(10,9,22)            121.4707         estimate D2E/DX2                !
 ! A28   A(9,10,11)            123.1244         estimate D2E/DX2                !
 ! A29   A(9,10,12)            116.9729         estimate D2E/DX2                !
 ! A30   A(11,10,12)           119.9027         estimate D2E/DX2                !
 ! A31   A(10,12,13)           111.8815         estimate D2E/DX2                !
 ! A32   A(10,12,39)           110.4225         estimate D2E/DX2                !
 ! A33   A(10,12,40)           109.9302         estimate D2E/DX2                !
 ! A34   A(13,12,39)           109.654          estimate D2E/DX2                !
 ! A35   A(13,12,40)           106.7479         estimate D2E/DX2                !
 ! A36   A(39,12,40)           108.0687         estimate D2E/DX2                !
 ! A37   A(12,13,14)           119.6681         estimate D2E/DX2                !
 ! A38   A(12,13,21)           130.7253         estimate D2E/DX2                !
 ! A39   A(14,13,21)           109.5067         estimate D2E/DX2                !
 ! A40   A(13,14,15)           109.4924         estimate D2E/DX2                !
 ! A41   A(14,15,16)           108.898          estimate D2E/DX2                !
 ! A42   A(15,16,17)           130.6595         estimate D2E/DX2                !
 ! A43   A(15,16,21)           107.8776         estimate D2E/DX2                !
 ! A44   A(17,16,21)           121.4627         estimate D2E/DX2                !
 ! A45   A(16,17,18)           117.2488         estimate D2E/DX2                !
 ! A46   A(16,17,41)           120.5345         estimate D2E/DX2                !
 ! A47   A(18,17,41)           122.2167         estimate D2E/DX2                !
 ! A48   A(17,18,19)           121.0279         estimate D2E/DX2                !
 ! A49   A(17,18,42)           120.0168         estimate D2E/DX2                !
 ! A50   A(19,18,42)           118.955          estimate D2E/DX2                !
 ! A51   A(18,19,20)           122.0896         estimate D2E/DX2                !
 ! A52   A(18,19,43)           118.7044         estimate D2E/DX2                !
 ! A53   A(20,19,43)           119.2053         estimate D2E/DX2                !
 ! A54   A(19,20,21)           116.4609         estimate D2E/DX2                !
 ! A55   A(19,20,44)           121.4629         estimate D2E/DX2                !
 ! A56   A(21,20,44)           122.072          estimate D2E/DX2                !
 ! A57   A(13,21,16)           104.2161         estimate D2E/DX2                !
 ! A58   A(13,21,20)           134.071          estimate D2E/DX2                !
 ! A59   A(16,21,20)           121.7094         estimate D2E/DX2                !
 ! A60   A(9,22,23)            123.7509         estimate D2E/DX2                !
 ! A61   A(9,22,27)            115.2753         estimate D2E/DX2                !
 ! A62   A(23,22,27)           120.9304         estimate D2E/DX2                !
 ! A63   A(22,23,24)           118.1034         estimate D2E/DX2                !
 ! A64   A(22,23,45)           121.1736         estimate D2E/DX2                !
 ! A65   A(24,23,45)           120.7199         estimate D2E/DX2                !
 ! A66   A(23,24,25)           121.1828         estimate D2E/DX2                !
 ! A67   A(23,24,46)           118.9694         estimate D2E/DX2                !
 ! A68   A(25,24,46)           119.8354         estimate D2E/DX2                !
 ! A69   A(24,25,26)           116.1178         estimate D2E/DX2                !
 ! A70   A(24,25,28)           122.3906         estimate D2E/DX2                !
 ! A71   A(26,25,28)           121.4916         estimate D2E/DX2                !
 ! A72   A(25,26,27)           122.8423         estimate D2E/DX2                !
 ! A73   A(25,26,47)           121.278          estimate D2E/DX2                !
 ! A74   A(27,26,47)           115.8733         estimate D2E/DX2                !
 ! A75   A(22,27,26)           120.8197         estimate D2E/DX2                !
 ! A76   A(25,28,29)           128.1323         estimate D2E/DX2                !
 ! A77   A(25,28,32)           127.6181         estimate D2E/DX2                !
 ! A78   A(29,28,32)           104.2496         estimate D2E/DX2                !
 ! A79   A(28,29,30)           106.9178         estimate D2E/DX2                !
 ! A80   A(28,29,48)           130.8285         estimate D2E/DX2                !
 ! A81   A(30,29,48)           122.2413         estimate D2E/DX2                !
 ! A82   A(29,30,31)           112.1394         estimate D2E/DX2                !
 ! A83   A(29,30,50)           128.4933         estimate D2E/DX2                !
 ! A84   A(31,30,50)           119.3667         estimate D2E/DX2                !
 ! A85   A(30,31,32)           105.4063         estimate D2E/DX2                !
 ! A86   A(28,32,31)           111.2868         estimate D2E/DX2                !
 ! A87   A(28,32,49)           128.2573         estimate D2E/DX2                !
 ! A88   A(31,32,49)           120.4452         estimate D2E/DX2                !
 ! D1    D(1,2,3,4)            179.8681         estimate D2E/DX2                !
 ! D2    D(1,2,3,33)            -0.1222         estimate D2E/DX2                !
 ! D3    D(7,2,3,4)              0.2367         estimate D2E/DX2                !
 ! D4    D(7,2,3,33)          -179.7535         estimate D2E/DX2                !
 ! D5    D(1,2,7,6)            179.9712         estimate D2E/DX2                !
 ! D6    D(1,2,7,36)             0.0374         estimate D2E/DX2                !
 ! D7    D(3,2,7,6)             -0.3962         estimate D2E/DX2                !
 ! D8    D(3,2,7,36)           179.67           estimate D2E/DX2                !
 ! D9    D(2,3,4,5)              0.0815         estimate D2E/DX2                !
 ! D10   D(2,3,4,34)           179.6781         estimate D2E/DX2                !
 ! D11   D(33,3,4,5)          -179.9283         estimate D2E/DX2                !
 ! D12   D(33,3,4,34)           -0.3317         estimate D2E/DX2                !
 ! D13   D(3,4,5,6)             -0.2368         estimate D2E/DX2                !
 ! D14   D(3,4,5,35)           178.6733         estimate D2E/DX2                !
 ! D15   D(34,4,5,6)          -179.832          estimate D2E/DX2                !
 ! D16   D(34,4,5,35)           -0.922          estimate D2E/DX2                !
 ! D17   D(4,5,6,7)              0.0774         estimate D2E/DX2                !
 ! D18   D(4,5,6,8)            178.097          estimate D2E/DX2                !
 ! D19   D(35,5,6,7)          -178.836          estimate D2E/DX2                !
 ! D20   D(35,5,6,8)            -0.8164         estimate D2E/DX2                !
 ! D21   D(5,6,7,2)              0.232          estimate D2E/DX2                !
 ! D22   D(5,6,7,36)          -179.8349         estimate D2E/DX2                !
 ! D23   D(8,6,7,2)           -177.8516         estimate D2E/DX2                !
 ! D24   D(8,6,7,36)             2.0815         estimate D2E/DX2                !
 ! D25   D(5,6,8,9)             35.0393         estimate D2E/DX2                !
 ! D26   D(5,6,8,37)           158.5822         estimate D2E/DX2                !
 ! D27   D(5,6,8,38)           -84.4299         estimate D2E/DX2                !
 ! D28   D(7,6,8,9)           -146.9384         estimate D2E/DX2                !
 ! D29   D(7,6,8,37)           -23.3955         estimate D2E/DX2                !
 ! D30   D(7,6,8,38)            93.5924         estimate D2E/DX2                !
 ! D31   D(6,8,9,10)            73.263          estimate D2E/DX2                !
 ! D32   D(6,8,9,22)          -104.2452         estimate D2E/DX2                !
 ! D33   D(37,8,9,10)          -50.5325         estimate D2E/DX2                !
 ! D34   D(37,8,9,22)          131.9592         estimate D2E/DX2                !
 ! D35   D(38,8,9,10)         -166.0043         estimate D2E/DX2                !
 ! D36   D(38,8,9,22)           16.4874         estimate D2E/DX2                !
 ! D37   D(8,9,10,11)         -172.8681         estimate D2E/DX2                !
 ! D38   D(8,9,10,12)            7.0769         estimate D2E/DX2                !
 ! D39   D(22,9,10,11)           4.5333         estimate D2E/DX2                !
 ! D40   D(22,9,10,12)        -175.5217         estimate D2E/DX2                !
 ! D41   D(8,9,22,23)         -153.6606         estimate D2E/DX2                !
 ! D42   D(8,9,22,27)           23.9575         estimate D2E/DX2                !
 ! D43   D(10,9,22,23)          28.8362         estimate D2E/DX2                !
 ! D44   D(10,9,22,27)        -153.5458         estimate D2E/DX2                !
 ! D45   D(9,10,12,13)         176.8405         estimate D2E/DX2                !
 ! D46   D(9,10,12,39)         -60.7271         estimate D2E/DX2                !
 ! D47   D(9,10,12,40)          58.4199         estimate D2E/DX2                !
 ! D48   D(11,10,12,13)         -3.2126         estimate D2E/DX2                !
 ! D49   D(11,10,12,39)        119.2197         estimate D2E/DX2                !
 ! D50   D(11,10,12,40)       -121.6332         estimate D2E/DX2                !
 ! D51   D(10,12,13,14)        -98.3389         estimate D2E/DX2                !
 ! D52   D(10,12,13,21)         77.6114         estimate D2E/DX2                !
 ! D53   D(39,12,13,14)        138.7914         estimate D2E/DX2                !
 ! D54   D(39,12,13,21)        -45.2584         estimate D2E/DX2                !
 ! D55   D(40,12,13,14)         21.9573         estimate D2E/DX2                !
 ! D56   D(40,12,13,21)       -162.0925         estimate D2E/DX2                !
 ! D57   D(12,13,14,15)        177.6838         estimate D2E/DX2                !
 ! D58   D(21,13,14,15)          0.9388         estimate D2E/DX2                !
 ! D59   D(12,13,21,16)       -177.2228         estimate D2E/DX2                !
 ! D60   D(12,13,21,20)          3.4807         estimate D2E/DX2                !
 ! D61   D(14,13,21,16)         -0.9554         estimate D2E/DX2                !
 ! D62   D(14,13,21,20)        179.7481         estimate D2E/DX2                !
 ! D63   D(13,14,15,16)         -0.4907         estimate D2E/DX2                !
 ! D64   D(14,15,16,17)        179.7516         estimate D2E/DX2                !
 ! D65   D(14,15,16,21)         -0.1168         estimate D2E/DX2                !
 ! D66   D(15,16,17,18)       -179.8082         estimate D2E/DX2                !
 ! D67   D(15,16,17,41)          0.2107         estimate D2E/DX2                !
 ! D68   D(21,16,17,18)          0.0449         estimate D2E/DX2                !
 ! D69   D(21,16,17,41)       -179.9362         estimate D2E/DX2                !
 ! D70   D(15,16,21,13)          0.6583         estimate D2E/DX2                !
 ! D71   D(15,16,21,20)       -179.9359         estimate D2E/DX2                !
 ! D72   D(17,16,21,13)       -179.2247         estimate D2E/DX2                !
 ! D73   D(17,16,21,20)          0.1811         estimate D2E/DX2                !
 ! D74   D(16,17,18,19)         -0.1633         estimate D2E/DX2                !
 ! D75   D(16,17,18,42)       -179.9617         estimate D2E/DX2                !
 ! D76   D(41,17,18,19)        179.8175         estimate D2E/DX2                !
 ! D77   D(41,17,18,42)          0.0191         estimate D2E/DX2                !
 ! D78   D(17,18,19,20)          0.063          estimate D2E/DX2                !
 ! D79   D(17,18,19,43)       -179.6486         estimate D2E/DX2                !
 ! D80   D(42,18,19,20)        179.8635         estimate D2E/DX2                !
 ! D81   D(42,18,19,43)          0.1519         estimate D2E/DX2                !
 ! D82   D(18,19,20,21)          0.1556         estimate D2E/DX2                !
 ! D83   D(18,19,20,44)       -179.1127         estimate D2E/DX2                !
 ! D84   D(43,19,20,21)        179.8657         estimate D2E/DX2                !
 ! D85   D(43,19,20,44)          0.5975         estimate D2E/DX2                !
 ! D86   D(19,20,21,13)        178.9237         estimate D2E/DX2                !
 ! D87   D(19,20,21,16)         -0.2747         estimate D2E/DX2                !
 ! D88   D(44,20,21,13)         -1.8129         estimate D2E/DX2                !
 ! D89   D(44,20,21,16)        178.9887         estimate D2E/DX2                !
 ! D90   D(9,22,23,24)         177.5568         estimate D2E/DX2                !
 ! D91   D(9,22,23,45)          -3.074          estimate D2E/DX2                !
 ! D92   D(27,22,23,24)          0.0679         estimate D2E/DX2                !
 ! D93   D(27,22,23,45)        179.4371         estimate D2E/DX2                !
 ! D94   D(9,22,27,26)        -178.1302         estimate D2E/DX2                !
 ! D95   D(23,22,27,26)         -0.439          estimate D2E/DX2                !
 ! D96   D(22,23,24,25)          0.4742         estimate D2E/DX2                !
 ! D97   D(22,23,24,46)       -178.2405         estimate D2E/DX2                !
 ! D98   D(45,23,24,25)       -178.898          estimate D2E/DX2                !
 ! D99   D(45,23,24,46)          2.3873         estimate D2E/DX2                !
 ! D100  D(23,24,25,26)         -0.6224         estimate D2E/DX2                !
 ! D101  D(23,24,25,28)        179.5047         estimate D2E/DX2                !
 ! D102  D(46,24,25,26)        178.0813         estimate D2E/DX2                !
 ! D103  D(46,24,25,28)         -1.7916         estimate D2E/DX2                !
 ! D104  D(24,25,26,27)          0.2558         estimate D2E/DX2                !
 ! D105  D(24,25,26,47)        179.3043         estimate D2E/DX2                !
 ! D106  D(28,25,26,27)       -179.8701         estimate D2E/DX2                !
 ! D107  D(28,25,26,47)         -0.8216         estimate D2E/DX2                !
 ! D108  D(24,25,28,29)        -34.6276         estimate D2E/DX2                !
 ! D109  D(24,25,28,32)        145.4484         estimate D2E/DX2                !
 ! D110  D(26,25,28,29)        145.5063         estimate D2E/DX2                !
 ! D111  D(26,25,28,32)        -34.4177         estimate D2E/DX2                !
 ! D112  D(25,26,27,22)          0.2716         estimate D2E/DX2                !
 ! D113  D(47,26,27,22)       -178.8246         estimate D2E/DX2                !
 ! D114  D(25,28,29,30)       -179.9874         estimate D2E/DX2                !
 ! D115  D(25,28,29,48)         -1.2773         estimate D2E/DX2                !
 ! D116  D(32,28,29,30)         -0.0495         estimate D2E/DX2                !
 ! D117  D(32,28,29,48)        178.6606         estimate D2E/DX2                !
 ! D118  D(25,28,32,31)       -179.9695         estimate D2E/DX2                !
 ! D119  D(25,28,32,49)         -1.171          estimate D2E/DX2                !
 ! D120  D(29,28,32,31)          0.0922         estimate D2E/DX2                !
 ! D121  D(29,28,32,49)        178.8907         estimate D2E/DX2                !
 ! D122  D(28,29,30,31)         -0.0054         estimate D2E/DX2                !
 ! D123  D(28,29,30,50)        179.7157         estimate D2E/DX2                !
 ! D124  D(48,29,30,31)       -178.8514         estimate D2E/DX2                !
 ! D125  D(48,29,30,50)          0.8697         estimate D2E/DX2                !
 ! D126  D(29,30,31,32)          0.0626         estimate D2E/DX2                !
 ! D127  D(50,30,31,32)       -179.6869         estimate D2E/DX2                !
 ! D128  D(30,31,32,28)         -0.0946         estimate D2E/DX2                !
 ! D129  D(30,31,32,49)       -179.0003         estimate D2E/DX2                !
 --------------------------------------------------------------------------------
 Trust Radius=3.00D-01 FncErr=1.00D-07 GrdErr=1.00D-06
 Number of steps in this run=    281 maximum allowed number of steps=    300.
 GradGradGradGradGradGradGradGradGradGradGradGradGradGradGradGradGradGrad

 Leave Link  103 at Fri Sep  9 14:04:14 2022, MaxMem=  209715200 cpu:       0.1
 (Enter /opt/gaussian/l202.exe)
                          Input orientation:                          
 ---------------------------------------------------------------------
 Center     Atomic      Atomic             Coordinates (Angstroms)
 Number     Number       Type             X           Y           Z
 ---------------------------------------------------------------------
      1         17           0       -3.307950    5.336900   -0.377290
      2          6           0       -2.105100    4.109230    0.189890
      3          6           0       -1.791270    4.044420    1.530370
      4          6           0       -0.868460    3.094020    1.945540
      5          6           0       -0.277700    2.234100    1.032110
      6          6           0       -0.606570    2.308900   -0.317830
      7          6           0       -1.534110    3.259130   -0.735200
      8          6           0        0.046630    1.416510   -1.357030
      9          7           0        0.365800    0.053640   -0.898150
     10          6           0       -0.620360   -0.884320   -0.707100
     11          8           0       -0.411820   -1.980520   -0.209240
     12          6           0       -2.028950   -0.505570   -1.147310
     13          7           0       -2.951250   -1.582400   -0.966300
     14          7           0       -3.278180   -2.376220   -2.025520
     15          7           0       -4.066540   -3.291250   -1.640880
     16          6           0       -4.292110   -3.147120   -0.280840
     17          6           0       -5.079870   -3.894570    0.593560
     18          6           0       -5.107730   -3.499680    1.908620
     19          6           0       -4.362970   -2.382910    2.349630
     20          6           0       -3.582280   -1.642090    1.494670
     21          6           0       -3.564050   -2.048720    0.158080
     22          6           0        1.729440   -0.232820   -0.609620
     23          6           0        2.285820   -1.510040   -0.684490
     24          6           0        3.635060   -1.647410   -0.428900
     25          6           0        4.423870   -0.544070   -0.094460
     26          6           0        3.774130    0.679850   -0.050540
     27          7           0        2.474650    0.816710   -0.303630
     28          6           0        5.856820   -0.661170    0.192540
     29          6           0        6.515410   -1.694040    0.810230
     30          7           0        7.822340   -1.357430    0.852300
     31          7           0        8.055350   -0.152560    0.291770
     32          6           0        6.882640    0.278430   -0.108120
     33          1           0       -2.250810    4.712560    2.229110
     34          1           0       -0.606930    3.030990    2.983710
     35          1           0        0.448030    1.520010    1.361870
     36          1           0       -1.809290    3.338640   -1.768650
     37          1           0       -0.583530    1.357760   -2.234070
     38          1           0        0.977080    1.862680   -1.662860
     39          1           0       -2.373030    0.362830   -0.604130
     40          1           0       -2.033540   -0.265570   -2.200210
     41          1           0       -5.634600   -4.739730    0.239160
     42          1           0       -5.698380   -4.043070    2.619340
     43          1           0       -4.407500   -2.110730    3.386360
     44          1           0       -3.010480   -0.805340    1.842680
     45          1           0        1.687890   -2.358760   -0.921750
     46          1           0        4.083000   -2.618540   -0.510450
     47          1           0        4.297040    1.577940    0.207610
     48          1           0        6.149330   -2.605510    1.224280
     49          1           0        6.793020    1.216570   -0.605660
     50          1           0        8.577480   -1.869660    1.231500
 ---------------------------------------------------------------------
                    Distance matrix (angstroms):
                    1          2          3          4          5
     1  Cl   0.000000
     2  C    1.809894   0.000000
     3  C    2.758621   1.378251   0.000000
     4  C    4.046871   2.375339   1.388238   0.000000
     5  C    4.560284   2.750425   2.411725   1.386656   0.000000
     6  C    4.058297   2.396781   2.798462   2.409947   1.391434
     7  C    2.755311   1.380033   2.411559   2.767078   2.398466
     8  C    5.251910   3.778048   4.315190   3.815547   2.545905
     9  N    6.456049   4.872062   5.145579   4.342106   2.982348
    10  C    6.784946   5.286264   5.538030   4.788031   3.587034
    11  O    7.871496   6.333369   6.420983   5.531957   4.395675
    12  C    6.030193   4.805235   5.284777   4.885643   3.914402
    13  N    6.953480   5.869191   6.264185   5.889459   5.070225
    14  N    7.887317   6.953073   7.488650   7.176322   6.293412
    15  N    8.753119   7.871853   8.309376   7.991358   7.213160
    16  C    8.541456   7.593366   7.826425   7.458551   6.840823
    17  C    9.449989   8.548276   8.644077   8.270684   7.798318
    18  C    9.303211   8.358548   8.249571   7.838983   7.548092
    19  C    8.254976   7.204883   6.971040   6.509351   6.304131
    20  C    7.230892   6.079654   5.961995   5.477120   5.114593
    21  C    7.409426   6.328499   6.492479   6.075277   5.468690
    22  C    7.513392   5.847761   5.938833   4.934145   3.579048
    23  C    8.846763   7.184770   7.237423   6.169595   4.851488
    24  C    9.848281   8.152990   8.104365   6.957070   5.701786
    25  C    9.718376   8.022562   7.894446   6.738402   5.576033
    26  C    8.482378   6.810565   6.692779   5.600553   4.472712
    27  N    7.340028   5.662010   5.655063   4.628314   3.371739
    28  C   10.967888   9.281643   9.078857   7.899611   6.835188
    29  C   12.138481  10.410377  10.121732   8.873330   7.850214
    30  N   13.046429  11.352410  11.048134   9.825507   8.862396
    31  N   12.637500  11.018529  10.775189   9.638964   8.699654
    32  C   11.380189   9.774626   9.597085   8.498507   7.509676
    33  H    2.881088   2.131585   1.070432   2.147318   3.386552
    34  H    4.889688   3.348514   2.131173   1.072459   2.133581
    35  H    5.630339   3.820480   3.378684   2.133383   1.070210
    36  H    2.859180   2.125369   3.373719   3.839298   3.377874
    37  H    5.167558   3.970056   4.779936   4.534857   3.395502
    38  H    5.664307   4.240224   4.756098   4.235890   2.995879
    39  H    5.066251   3.838980   4.295188   4.027896   3.251052
    40  H    6.027838   4.985637   5.705430   5.461822   4.447383
    41  H   10.360105   9.527008   9.674694   9.327136   8.829465
    42  H   10.133005   9.234386   9.047589   8.644084   8.444284
    43  H    8.416725   7.362497   6.940838   6.456794   6.440131
    44  H    6.537879   5.263499   5.010407   4.450150   4.166930
    45  H    9.191193   7.580067   7.688834   6.670014   5.364278
    46  H   10.859691   9.167658   9.114112   7.948722   6.703977
    47  H    8.503397   6.884413   6.700801   5.656968   4.694528
    48  H   12.453395  10.690805  10.361872   9.069412   8.047700
    49  H   10.911410   9.390257   9.287055   8.290459   7.328898
    50  H   13.992361  12.286155  11.940546  10.694567   9.761906
                    6          7          8          9         10
     6  C    0.000000
     7  C    1.391929   0.000000
     8  C    1.517553   2.506124   0.000000
     9  N    2.523583   3.729796   1.473043   0.000000
    10  C    3.216889   4.243101   2.482157   1.374329   0.000000
    11  O    4.295212   5.384246   3.614887   2.284096   1.221887
    12  C    3.260743   3.819380   2.836619   2.471765   1.523602
    13  N    4.589145   5.049961   4.258335   3.699202   2.446947
    14  N    5.657213   6.038533   5.087833   4.522585   3.320844
    15  N    6.714427   7.081026   6.257934   5.602283   4.305974
    16  C    6.584279   6.989495   6.388237   5.685249   4.334018
    17  C    7.702213   8.094037   7.635010   6.889767   5.535391
    18  C    7.678354   8.089626   7.835868   7.103772   5.815375
    19  C    6.575634   7.025044   6.900688   6.232665   5.059298
    20  C    5.267858   5.761014   5.536805   4.918173   3.767622
    21  C    5.287914   5.752554   5.228804   4.580312   3.281718
    22  C    3.464452   4.781239   2.471995   1.422963   2.440392
    23  C    4.804650   6.110599   3.745795   2.485402   2.972864
    24  C    5.801392   7.133602   4.808936   3.715081   4.332240
    25  C    5.787457   7.097352   4.959656   4.179845   5.092677
    26  C    4.681429   5.941284   4.017940   3.567533   4.710546
    27  N    3.423558   4.714003   2.713797   2.320125   3.554628
    28  C    7.131424   8.417559   6.362093   5.643745   6.543165
    29  C    8.247342   9.576900   7.497843   6.617450   7.340106
    30  N    9.265943  10.553480   8.546201   7.788144   8.598532
    31  N    9.025478  10.229958   8.325870   7.783804   8.763627
    32  C    7.762413   8.950949   7.041735   6.568400   7.616152
    33  H    3.868851   3.378350   5.385404   6.191279   6.527232
    34  H    3.379583   3.839532   4.677148   4.987951   5.380698
    35  H    2.134460   3.369142   2.750318   2.695309   3.347073
    36  H    2.147505   1.072411   2.703415   4.034850   4.513738
    37  H    2.139433   2.601042   1.081551   2.094430   2.712917
    38  H    2.125127   3.019388   1.076261   2.056957   3.318328
    39  H    2.643773   3.018198   2.744422   2.771865   2.153564
    40  H    3.493922   3.849571   2.804898   2.748470   2.146930
    41  H    8.676088   9.041303   8.527807   7.763676   6.395483
    42  H    8.654538   9.050757   8.866999   8.119732   6.843186
    43  H    6.906607   7.353844   7.401381   6.769484   5.709897
    44  H    4.488327   5.034387   4.951836   4.432749   3.495753
    45  H    5.236059   6.478948   4.139549   2.751028   2.747374
    46  H    6.805059   8.133231   5.769801   4.594391   5.016750
    47  H    4.985557   6.141466   4.532123   4.358996   5.574966
    48  H    8.495394   9.862495   7.751307   6.710068   7.247167
    49  H    7.485317   8.574959   6.791046   6.538128   7.705987
    50  H   10.208210  11.507243   9.501305   8.698631   9.451419
                   11         12         13         14         15
    11  O    0.000000
    12  C    2.381294   0.000000
    13  N    2.679616   1.429323   0.000000
    14  N    3.416353   2.414779   1.363444   0.000000
    15  N    4.138186   3.486459   2.149209   1.267572   0.000000
    16  C    4.052497   3.584752   2.171661   2.160150   1.386133
    17  C    5.108695   4.880990   3.508606   3.522933   2.526570
    18  C    5.370731   5.270891   4.073271   4.481838   3.704925
    19  C    4.724544   4.604416   3.691769   4.507633   4.103306
    20  C    3.615199   3.268726   2.541286   3.608762   3.575739
    21  C    3.174292   2.538087   1.362794   2.226452   2.243353
    22  C    2.792804   3.806442   4.884408   5.628072   6.634069
    23  C    2.779294   4.454257   5.245146   5.788499   6.666323
    24  C    4.066503   5.822450   6.608518   7.132548   7.967794
    25  C    5.045836   6.538261   7.498709   8.149070   9.056792
    26  C    4.962351   6.023609   7.154518   7.935691   8.931681
    27  N    4.020586   4.768924   5.969527   6.801085   7.839052
    28  C    6.418564   8.000299   8.931611   9.555596  10.428414
    29  C    7.007703   8.845932   9.632558  10.218672  10.978920
    30  N    8.325653  10.088212  10.928319  11.512659  12.300450
    31  N    8.676717  10.192579  11.170158  11.779788  12.669914
    32  C    7.636899   9.006165  10.045126  10.675479  11.617939
    33  H    7.356953   6.219189   7.094208   8.331156   9.073846
    34  H    5.945438   5.620918   6.510129   7.840018   8.563087
    35  H    3.932104   4.066250   5.157560   6.367076   7.248867
    36  H    5.716480   3.900290   5.115122   5.906204   7.004780
    37  H    3.908137   2.596591   3.982195   4.609473   5.839223
    38  H    4.337308   3.861427   5.271200   6.017228   7.211212
    39  H    3.081164   1.080534   2.061413   3.215904   4.158741
    40  H    3.087878   1.079916   2.024541   2.456520   3.687910
    41  H    5.923828   5.731590   4.315349   4.033320   2.844549
    42  H    6.340559   6.337687   5.143776   5.496406   4.623593
    43  H    5.376872   5.365464   4.620113   5.534826   5.175232
    44  H    3.513468   3.161219   2.915081   4.183575   4.407970
    45  H    2.249337   4.159338   4.703864   5.087285   5.873683
    46  H    4.549858   6.498166   7.124750   7.519383   8.255023
    47  H    5.916905   6.796688   7.993968   8.832112   9.852685
    48  H    6.744945   8.770316   9.416260   9.974554  10.632186
    49  H    7.892291   9.004793  10.144708  10.786715  11.803481
    50  H    9.104699  10.955174  11.739866  12.305343  13.043877
                   16         17         18         19         20
    16  C    0.000000
    17  C    1.394210   0.000000
    18  C    2.362894   1.373353   0.000000
    19  C    2.740148   2.425457   1.412916   0.000000
    20  C    2.433395   2.851042   2.439056   1.374499   0.000000
    21  C    1.388958   2.427862   2.748204   2.356448   1.397195
    22  C    6.697784   7.824497   7.985036   7.106160   5.884594
    23  C    6.790591   7.846833   8.083778   7.360312   6.261052
    24  C    8.069143   9.057878   9.237493   8.498804   7.469280
    25  C    9.098292  10.100510  10.178377   9.303949   8.235862
    26  C    8.931011   9.986666  10.009706   9.019629   7.867391
    27  N    7.842290   8.948289   9.000987   8.001900   6.779822
    28  C   10.459676  11.411699  11.455279  10.585912   9.578849
    29  C   10.959214  11.804228  11.813728  11.008335  10.120993
    30  N   12.298248  13.151846  13.148831  12.319715  11.426243
    31  N   12.718295  13.661176  13.677869  12.783737  11.794071
    32  C   11.689280  12.688890  12.732255  11.814695  10.759734
    33  H    8.499490   9.206590   8.700896   7.404150   6.534049
    34  H    7.899803   8.583903   8.003916   6.619683   5.736517
    35  H    6.851972   7.775967   7.507509   6.273291   5.124443
    36  H    7.102328   8.282274   8.435914   7.497843   6.212924
    37  H    6.153261   7.469909   7.824640   7.020476   5.647575
    38  H    7.400840   8.655865   8.862014   7.914622   6.560577
    39  H    4.013369   5.185258   5.358309   4.497071   3.144352
    40  H    4.133818   5.500447   6.065690   5.532668   4.236218
    41  H    2.146878   1.071270   2.145323   3.409652   3.922206
    42  H    3.345350   2.123297   1.072037   2.147602   3.392266
    43  H    3.812581   3.381405   2.145512   1.072788   2.116389
    44  H    3.411136   3.922501   3.415007   2.138914   1.071549
    45  H    6.065697   7.103341   7.449372   6.878620   5.841866
    46  H    8.394914   9.316935   9.544518   8.920201   7.983137
    47  H    9.815206  10.863874  10.822447   9.760756   8.608647
    48  H   10.563257  11.320531  11.313234  10.574706   9.782920
    49  H   11.917525  12.981810  13.045784  12.089090  10.964952
    50  H   13.020961  13.821376  13.798566  12.998803  12.164736
                   21         22         23         24         25
    21  C    0.000000
    22  C    5.648707   0.000000
    23  C    5.934735   1.395154   0.000000
    24  C    7.234140   2.380150   1.380089   0.000000
    25  C    8.132319   2.760837   2.419192   1.396936   0.000000
    26  C    7.831826   2.307877   2.722605   2.361914   1.386388
    27  N    6.699982   1.323057   2.365265   2.726560   2.386406
    28  C    9.522567   4.226371   3.773831   2.508999   1.466092
    29  C   10.106761   5.201600   4.489708   3.135926   2.552535
    30  N   11.428460   6.365955   5.747875   4.388494   3.620429
    31  N   11.773859   6.390312   6.006939   4.721536   3.672887
    32  C   10.706065   5.202725   4.966043   3.789266   2.592729
    33  H    7.192265   6.953960   8.233519   9.064089   8.808092
    34  H    6.521671   5.387309   6.514956   7.178288   6.896748
    35  H    5.502884   2.932780   4.092220   4.837000   4.710481
    36  H    5.984573   5.159582   6.438558   7.503104   7.531974
    37  H    5.119569   3.243241   4.342654   5.485088   5.767924
    38  H    6.263923   2.463023   3.747699   4.572554   4.486946
    39  H    2.795544   4.145490   5.021851   6.337895   6.876051
    40  H    3.329207   4.085470   4.743731   6.097544   6.797786
    41  H    3.396364   8.675353   8.603318   9.794659  10.903563
    42  H    3.819764   8.950793   9.004387  10.106634  11.048423
    43  H    3.337221   7.560187   7.857047   8.913677   9.620999
    44  H    2.165713   5.367345   5.910498   7.073356   7.687024
    45  H    5.370757   2.149133   1.064959   2.130819   3.385719
    46  H    7.697337   3.352721   2.118707   1.072564   2.143051
    47  H    8.657474   3.246427   3.791631   3.353542   2.147151
    48  H    9.787571   5.341187   4.446366   3.157929   2.994298
    49  H   10.886428   5.266934   5.268346   4.266888   2.995672
    50  H   12.190203   7.277680   6.586754   5.218605   4.557174
                   26         27         28         29         30
    26  C    0.000000
    27  N    1.330952   0.000000
    28  C    2.488980   3.724163   0.000000
    29  C    3.727049   4.885928   1.371897   0.000000
    30  N    4.620999   5.887346   2.187083   1.350238   0.000000
    31  N    4.374806   5.695454   2.258775   2.239727   1.349148
    32  C    3.134851   4.445036   1.423219   2.206550   2.116951
    33  H    7.599964   6.627397   9.937719  10.950085  11.840977
    34  H    5.824793   5.020535   7.950015   8.819164   9.739288
    35  H    3.709948   2.715826   5.948100   6.888216   7.932198
    36  H    6.418383   5.182524   8.866453  10.063753  11.031353
    37  H    4.921033   3.656747   7.172351   8.305191   9.357168
    38  H    3.438336   2.276900   5.798637   7.031325   7.971996
    39  H    6.180173   4.878146   8.331488   9.232307  10.441554
    40  H    6.264498   5.009204   8.254667   9.175392  10.375372
    41  H   10.861859   9.845231  12.193833  12.538943  13.889029
    42  H   10.916166   9.947846  12.282070  12.568512  13.897660
    43  H    9.302617   8.339659  10.847026  11.230318  12.512310
    44  H    7.198681   6.109365   9.020685   9.622802  10.891999
    45  H    3.787421   3.329365   4.637179   5.171707   6.463853
    46  H    3.344592   3.798751   2.733483   2.918135   4.174943
    47  H    1.070814   2.040084   2.728874   3.998771   4.632468
    48  H    4.249745   5.248750   2.220475   1.065941   2.120150
    49  H    3.116075   4.347347   2.244883   3.248609   3.132191
    50  H    5.587110   6.842349   3.153074   2.111976   0.988134
                   31         32         33         34         35
    31  N    0.000000
    32  C    1.311836   0.000000
    33  H   11.560260  10.418448   0.000000
    34  H    9.613357   8.557433   2.469704   0.000000
    35  H    7.862183   6.716145   4.269452   2.454866   0.000000
    36  H   10.665127   9.363327   4.250257   4.911745   4.266505
    37  H    9.126400   7.837622   5.827047   5.479551   3.744493
    38  H    7.614701   6.308938   5.804181   5.046251   3.089710
    39  H   10.479474   9.269335   5.192527   4.807368   3.628030
    40  H   10.392711   9.174478   6.666923   6.306786   4.694135
    41  H   14.438131  13.490138  10.235024   9.653710   8.800182
    42  H   14.481669  13.579266   9.418019   8.723414   8.384954
    43  H   12.989748  12.057642   7.248988   6.406539   6.391948
    44  H   11.193035  10.141696   5.583337   4.668665   4.195202
    45  H    6.847225   5.882363   8.685899   7.040470   4.668729
    46  H    4.743857   4.048739  10.068136   8.131530   5.817747
    47  H    4.138431   2.910969   7.535691   5.819537   4.018775
    48  H    3.243370   3.260390  11.185982   8.972891   7.038726
    49  H    2.067214   1.065685  10.101917   8.422289   6.649974
    50  H    2.025869   3.046532  12.711125  10.556514   8.808792
                   36         37         38         39         40
    36  H    0.000000
    37  H    2.375498   0.000000
    38  H    3.154918   1.736873   0.000000
    39  H    3.244897   2.617040   3.820170   0.000000
    40  H    3.636875   2.176896   3.725859   1.748603   0.000000
    41  H    9.161024   8.295153   9.535398   6.114335   6.239893
    42  H    9.427042   8.881793   9.888220   6.392235   7.136429
    43  H    7.938542   7.631671   8.383097   5.116794   6.344294
    44  H    5.626467   5.214305   5.942035   2.785290   4.194130
    45  H    6.738537   4.549072   4.344543   4.898878   4.457011
    46  H    8.472906   6.368542   5.572802   7.111798   6.767852
    47  H    6.655294   5.461707   3.821239   6.828268   7.019428
    48  H   10.374497   8.543951   7.419735   9.207863   9.173975
    49  H    8.936188   7.555471   5.946452   9.205724   9.091067
    50  H   12.000512  10.312639   8.948394  11.325512  11.266920
                   41         42         43         44         45
    41  H    0.000000
    42  H    2.480859   0.000000
    43  H    4.280454   2.447167   0.000000
    44  H    4.993667   4.279124   2.457368   0.000000
    45  H    7.786886   8.362607   7.468274   5.668321   0.000000
    46  H    9.974623  10.368233   9.355832   7.690408   2.444014
    47  H   11.770787  11.718388   9.973954   7.858328   4.855999
    48  H   12.016088  12.015865  10.787310   9.355488   4.956892
    49  H   13.807135  13.931960  12.347421  10.304907   6.240613
    50  H   14.532903  14.506895  13.164773  11.652774   7.234788
                   46         47         48         49         50
    46  H    0.000000
    47  H    4.262847   0.000000
    48  H    2.697995   4.686774   0.000000
    49  H    4.696950   2.649889   4.286177   0.000000
    50  H    4.878069   5.590748   2.537211   4.010520   0.000000
 Stoichiometry    C23H18ClN7O
 Framework group  C1[X(C23H18ClN7O)]
 Deg. of freedom   144
 Full point group                 C1      NOp   1
 Largest Abelian subgroup         C1      NOp   1
 Largest concise Abelian subgroup C1      NOp   1
                         Standard orientation:                         
 ---------------------------------------------------------------------
 Center     Atomic      Atomic             Coordinates (Angstroms)
 Number     Number       Type             X           Y           Z
 ---------------------------------------------------------------------
      1         17           0       -3.307950    5.336900   -0.377290
      2          6           0       -2.105100    4.109230    0.189890
      3          6           0       -1.791270    4.044420    1.530370
      4          6           0       -0.868460    3.094020    1.945540
      5          6           0       -0.277700    2.234100    1.032110
      6          6           0       -0.606570    2.308900   -0.317830
      7          6           0       -1.534110    3.259130   -0.735200
      8          6           0        0.046630    1.416510   -1.357030
      9          7           0        0.365800    0.053640   -0.898150
     10          6           0       -0.620360   -0.884320   -0.707100
     11          8           0       -0.411820   -1.980520   -0.209240
     12          6           0       -2.028950   -0.505570   -1.147310
     13          7           0       -2.951250   -1.582400   -0.966300
     14          7           0       -3.278180   -2.376220   -2.025520
     15          7           0       -4.066540   -3.291250   -1.640880
     16          6           0       -4.292110   -3.147120   -0.280840
     17          6           0       -5.079870   -3.894570    0.593560
     18          6           0       -5.107730   -3.499680    1.908620
     19          6           0       -4.362970   -2.382910    2.349630
     20          6           0       -3.582280   -1.642090    1.494670
     21          6           0       -3.564050   -2.048720    0.158080
     22          6           0        1.729440   -0.232820   -0.609620
     23          6           0        2.285820   -1.510040   -0.684490
     24          6           0        3.635060   -1.647410   -0.428900
     25          6           0        4.423870   -0.544070   -0.094460
     26          6           0        3.774130    0.679850   -0.050540
     27          7           0        2.474650    0.816710   -0.303630
     28          6           0        5.856820   -0.661170    0.192540
     29          6           0        6.515410   -1.694040    0.810230
     30          7           0        7.822340   -1.357430    0.852300
     31          7           0        8.055350   -0.152560    0.291770
     32          6           0        6.882640    0.278430   -0.108120
     33          1           0       -2.250810    4.712560    2.229110
     34          1           0       -0.606930    3.030990    2.983710
     35          1           0        0.448030    1.520010    1.361870
     36          1           0       -1.809290    3.338640   -1.768650
     37          1           0       -0.583530    1.357760   -2.234070
     38          1           0        0.977080    1.862680   -1.662860
     39          1           0       -2.373030    0.362830   -0.604130
     40          1           0       -2.033540   -0.265570   -2.200210
     41          1           0       -5.634600   -4.739730    0.239160
     42          1           0       -5.698380   -4.043070    2.619340
     43          1           0       -4.407500   -2.110730    3.386360
     44          1           0       -3.010480   -0.805340    1.842680
     45          1           0        1.687890   -2.358760   -0.921750
     46          1           0        4.083000   -2.618540   -0.510450
     47          1           0        4.297040    1.577940    0.207610
     48          1           0        6.149330   -2.605510    1.224280
     49          1           0        6.793020    1.216570   -0.605660
     50          1           0        8.577480   -1.869660    1.231500
 ---------------------------------------------------------------------
 Rotational constants (GHZ):      0.1448092      0.0695124      0.0517542
 Leave Link  202 at Fri Sep  9 14:04:14 2022, MaxMem=  209715200 cpu:       0.0
 (Enter /opt/gaussian/l301.exe)
 Standard basis: CC-pVDZ (5D, 7F)
 Ernie: Thresh=  0.10000D-02 Tol=  0.10000D-05 Strict=F.
 Ernie:  72 primitive shells out of 822 were deleted.
 There are   542 symmetry adapted basis functions of A   symmetry.
 Integral buffers will be    131072 words long.
 Raffenetti 2 integral format.
 Two-electron integral symmetry is turned on.
   542 basis functions,  1220 primitive gaussians,   574 cartesian basis functions
   115 alpha electrons      115 beta electrons
       nuclear repulsion energy      3060.3829894399 Hartrees.
 IExCor=  402 DFT=T Ex+Corr=B3LYP ExCW=0 ScaHFX=  0.200000
 ScaDFX=  0.800000  0.720000  1.000000  0.810000 ScalE2=  1.000000  1.000000
 IRadAn=      0 IRanWt=     -1 IRanGd=            0 ICorTp=0
 NAtoms=   50 NActive=   50 NUniq=   50 SFac= 1.00D+00 NAtFMM=   60 NAOKFM=F Big=F
 Leave Link  301 at Fri Sep  9 14:04:14 2022, MaxMem=  209715200 cpu:       0.3
 (Enter /opt/gaussian/l302.exe)
 NPDir=0 NMtPBC=     1 NCelOv=     1 NCel=       1 NClECP=     1 NCelD=      1
         NCelK=      1 NCelE2=     1 NClLst=     1 CellRange=     0.0.
 One-electron integrals computed using PRISM.
 NBasis=   542 RedAO= T  NBF=   542
 NBsUse=   542 1.00D-06 NBFU=   542
 Precomputing XC quadrature grid using
 IXCGrd= 2 IRadAn=           0 IRanWt=          -1 IRanGd=           0 AccXCQ= 0.00D+00.
 NRdTot=    3221 NPtTot=      411552 NUsed=      434762 NTot=      434794
 NSgBfM=   550   550   550   550   550 NAtAll=    50    50.
 Leave Link  302 at Fri Sep  9 14:04:15 2022, MaxMem=  209715200 cpu:       8.1
 (Enter /opt/gaussian/l303.exe)
 DipDrv:  MaxL=1.
 Leave Link  303 at Fri Sep  9 14:04:15 2022, MaxMem=  209715200 cpu:       1.2
 (Enter /opt/gaussian/l401.exe)
 Harris functional with IExCor=  402 diagonalized for initial guess.
 ExpMin= 1.22D-01 ExpMax= 1.28D+05 ExpMxC= 1.24D+03 IAcc=2 IRadAn=         4 AccDes= 0.00D+00
 HarFok:  IExCor=  402 AccDes= 0.00D+00 IRadAn=         4 IDoV= 1
 ScaDFX=  1.000000  1.000000  1.000000  1.000000
 FoFCou: FMM=F IPFlag=           0 FMFlag=      100000 FMFlg1=           0
         NFxFlg=           0 DoJE=T BraDBF=F KetDBF=T FulRan=T
         Omega=  0.000000  0.000000  1.000000  0.000000  0.000000 ICntrl=     500 IOpCl=  0
         NMat0=    1 NMatS0=    1 NMatT0=    0 NMatD0=    1 NMtDS0=    0 NMtDT0=    0
         I1Cent=           4 NGrid=           0.
 Petite list used in FoFCou.
 Harris En= -1805.73979366516    
 Initial guess orbital symmetries:
       Occupied  (A) (A) (A) (A) (A) (A) (A) (A) (A) (A) (A) (A)
                 (A) (A) (A) (A) (A) (A) (A) (A) (A) (A) (A) (A)
                 (A) (A) (A) (A) (A) (A) (A) (A) (A) (A) (A) (A)
                 (A) (A) (A) (A) (A) (A) (A) (A) (A) (A) (A) (A)
                 (A) (A) (A) (A) (A) (A) (A) (A) (A) (A) (A) (A)
                 (A) (A) (A) (A) (A) (A) (A) (A) (A) (A) (A) (A)
                 (A) (A) (A) (A) (A) (A) (A) (A) (A) (A) (A) (A)
                 (A) (A) (A) (A) (A) (A) (A) (A) (A) (A) (A) (A)
                 (A) (A) (A) (A) (A) (A) (A) (A) (A) (A) (A) (A)
                 (A) (A) (A) (A) (A) (A) (A)
       Virtual   (A) (A) (A) (A) (A) (A) (A) (A) (A) (A) (A) (A)
                 (A) (A) (A) (A) (A) (A) (A) (A) (A) (A) (A) (A)
                 (A) (A) (A) (A) (A) (A) (A) (A) (A) (A) (A) (A)
                 (A) (A) (A) (A) (A) (A) (A) (A) (A) (A) (A) (A)
                 (A) (A) (A) (A) (A) (A) (A) (A) (A) (A) (A) (A)
                 (A) (A) (A) (A) (A) (A) (A) (A) (A) (A) (A) (A)
                 (A) (A) (A) (A) (A) (A) (A) (A) (A) (A) (A) (A)
                 (A) (A) (A) (A) (A) (A) (A) (A) (A) (A) (A) (A)
                 (A) (A) (A) (A) (A) (A) (A) (A) (A) (A) (A) (A)
                 (A) (A) (A) (A) (A) (A) (A) (A) (A) (A) (A) (A)
                 (A) (A) (A) (A) (A) (A) (A) (A) (A) (A) (A) (A)
                 (A) (A) (A) (A) (A) (A) (A) (A) (A) (A) (A) (A)
                 (A) (A) (A) (A) (A) (A) (A) (A) (A) (A) (A) (A)
                 (A) (A) (A) (A) (A) (A) (A) (A) (A) (A) (A) (A)
                 (A) (A) (A) (A) (A) (A) (A) (A) (A) (A) (A) (A)
                 (A) (A) (A) (A) (A) (A) (A) (A) (A) (A) (A) (A)
                 (A) (A) (A) (A) (A) (A) (A) (A) (A) (A) (A) (A)
                 (A) (A) (A) (A) (A) (A) (A) (A) (A) (A) (A) (A)
                 (A) (A) (A) (A) (A) (A) (A) (A) (A) (A) (A) (A)
                 (A) (A) (A) (A) (A) (A) (A) (A) (A) (A) (A) (A)
                 (A) (A) (A) (A) (A) (A) (A) (A) (A) (A) (A) (A)
                 (A) (A) (A) (A) (A) (A) (A) (A) (A) (A) (A) (A)
                 (A) (A) (A) (A) (A) (A) (A) (A) (A) (A) (A) (A)
                 (A) (A) (A) (A) (A) (A) (A) (A) (A) (A) (A) (A)
                 (A) (A) (A) (A) (A) (A) (A) (A) (A) (A) (A) (A)
                 (A) (A) (A) (A) (A) (A) (A) (A) (A) (A) (A) (A)
                 (A) (A) (A) (A) (A) (A) (A) (A) (A) (A) (A) (A)
                 (A) (A) (A) (A) (A) (A) (A) (A) (A) (A) (A) (A)
                 (A) (A) (A) (A) (A) (A) (A) (A) (A) (A) (A) (A)
                 (A) (A) (A) (A) (A) (A) (A) (A) (A) (A) (A) (A)
                 (A) (A) (A) (A) (A) (A) (A) (A) (A) (A) (A) (A)
                 (A) (A) (A) (A) (A) (A) (A) (A) (A) (A) (A) (A)
                 (A) (A) (A) (A) (A) (A) (A) (A) (A) (A) (A) (A)
                 (A) (A) (A) (A) (A) (A) (A) (A) (A) (A) (A) (A)
                 (A) (A) (A) (A) (A) (A) (A) (A) (A) (A) (A) (A)
                 (A) (A) (A) (A) (A) (A) (A)
 The electronic state of the initial guess is 1-A.
 Leave Link  401 at Fri Sep  9 14:04:19 2022, MaxMem=  209715200 cpu:      24.0
 (Enter /opt/gaussian/l502.exe)
 Closed shell SCF:
 Requested convergence on RMS density matrix=1.00D-08 within 128 cycles.
 Requested convergence on MAX density matrix=1.00D-06.
 Requested convergence on             energy=1.00D-06.
 No special actions if energy rises.
 Using DIIS extrapolation, IDIIS=  1040.
 Integral symmetry usage will be decided dynamically.
       434299 words used for storage of precomputed grid.
 IEnd=     1449799 IEndB=     1449799 NGot=   209715200 MDV=   208612092
 LenX=   208612092 LenY=   208282042
 Fock matrices will be formed incrementally for  20 cycles.
 Integral accuracy reduced to 1.0D-05 until final iterations.

 Cycle   1  Pass 0  IDiag  1:
 FoFCou: FMM=F IPFlag=           0 FMFlag=      100000 FMFlg1=           0
         NFxFlg=           0 DoJE=F BraDBF=F KetDBF=F FulRan=T
         Omega=  0.000000  0.000000  1.000000  0.000000  0.000000 ICntrl=       0 IOpCl=  0
         NMat0=    1 NMatS0=    1 NMatT0=    0 NMatD0=    1 NMtDS0=    0 NMtDT0=    0
         I1Cent=           0 NGrid=           0.
 Symmetry not used in FoFCou.
 E= -1805.43700604067    
 DIIS: error= 1.69D-02 at cycle   1 NSaved=   1.
 NSaved= 1 IEnMin= 1 EnMin= -1805.43700604067     IErMin= 1 ErrMin= 1.69D-02
 ErrMax= 1.69D-02 EMaxC= 1.00D-01 BMatC= 5.45D-01 BMatP= 5.45D-01
 IDIUse=3 WtCom= 8.31D-01 WtEn= 1.69D-01
 Coeff-Com:  0.100D+01
 Coeff-En:   0.100D+01
 Coeff:      0.100D+01
 Gap=     0.371 Goal=   None    Shift=    0.000
 GapD=    0.371 DampG=1.000 DampE=0.500 DampFc=0.5000 IDamp=-1.
 Damping current iteration by 5.00D-01
 RMSDP=3.96D-03 MaxDP=2.10D-01              OVMax= 2.83D-01

 Cycle   2  Pass 0  IDiag  1:
 RMSU=  1.38D-03    CP:  9.80D-01
 E= -1805.58923639017     Delta-E=       -0.152230349500 Rises=F Damp=T
 DIIS: error= 9.13D-03 at cycle   2 NSaved=   2.
 NSaved= 2 IEnMin= 2 EnMin= -1805.58923639017     IErMin= 2 ErrMin= 9.13D-03
 ErrMax= 9.13D-03 EMaxC= 1.00D-01 BMatC= 1.09D-01 BMatP= 5.45D-01
 IDIUse=3 WtCom= 9.09D-01 WtEn= 9.13D-02
 Coeff-Com:  0.236D+00 0.764D+00
 Coeff-En:   0.351D+00 0.649D+00
 Coeff:      0.246D+00 0.754D+00
 Gap=     0.252 Goal=   None    Shift=    0.000
 RMSDP=1.38D-03 MaxDP=7.28D-02 DE=-1.52D-01 OVMax= 3.14D-01

 Cycle   3  Pass 0  IDiag  1:
 RMSU=  9.37D-04    CP:  9.66D-01  8.27D-01
 E= -1805.93167733158     Delta-E=       -0.342440941404 Rises=F Damp=F
 DIIS: error= 8.89D-03 at cycle   3 NSaved=   3.
 NSaved= 3 IEnMin= 3 EnMin= -1805.93167733158     IErMin= 3 ErrMin= 8.89D-03
 ErrMax= 8.89D-03 EMaxC= 1.00D-01 BMatC= 1.03D-01 BMatP= 1.09D-01
 IDIUse=3 WtCom= 9.11D-01 WtEn= 8.89D-02
 Coeff-Com:  0.579D-01 0.482D+00 0.460D+00
 Coeff-En:   0.000D+00 0.000D+00 0.100D+01
 Coeff:      0.528D-01 0.439D+00 0.508D+00
 Gap=     0.191 Goal=   None    Shift=    0.000
 RMSDP=7.97D-04 MaxDP=6.14D-02 DE=-3.42D-01 OVMax= 7.26D-02

 Cycle   4  Pass 0  IDiag  1:
 RMSU=  3.86D-04    CP:  9.69D-01  9.12D-01  5.81D-01
 E= -1806.01213983396     Delta-E=       -0.080462502388 Rises=F Damp=F
 DIIS: error= 3.26D-03 at cycle   4 NSaved=   4.
 NSaved= 4 IEnMin= 4 EnMin= -1806.01213983396     IErMin= 4 ErrMin= 3.26D-03
 ErrMax= 3.26D-03 EMaxC= 1.00D-01 BMatC= 1.73D-02 BMatP= 1.03D-01
 IDIUse=3 WtCom= 9.67D-01 WtEn= 3.26D-02
 Coeff-Com:  0.111D-01 0.137D+00 0.312D+00 0.539D+00
 Coeff-En:   0.000D+00 0.000D+00 0.166D+00 0.834D+00
 Coeff:      0.108D-01 0.133D+00 0.308D+00 0.549D+00
 Gap=     0.187 Goal=   None    Shift=    0.000
 RMSDP=3.01D-04 MaxDP=1.87D-02 DE=-8.05D-02 OVMax= 2.92D-02

 Cycle   5  Pass 0  IDiag  1:
 RMSU=  1.26D-04    CP:  9.68D-01  8.84D-01  6.76D-01  6.33D-01
 E= -1806.02639175237     Delta-E=       -0.014251918403 Rises=F Damp=F
 DIIS: error= 1.05D-03 at cycle   5 NSaved=   5.
 NSaved= 5 IEnMin= 5 EnMin= -1806.02639175237     IErMin= 5 ErrMin= 1.05D-03
 ErrMax= 1.05D-03 EMaxC= 1.00D-01 BMatC= 1.52D-03 BMatP= 1.73D-02
 IDIUse=3 WtCom= 9.90D-01 WtEn= 1.05D-02
 Coeff-Com:  0.901D-03 0.291D-01 0.133D+00 0.332D+00 0.505D+00
 Coeff-En:   0.000D+00 0.000D+00 0.000D+00 0.426D-01 0.957D+00
 Coeff:      0.892D-03 0.288D-01 0.132D+00 0.329D+00 0.509D+00
 Gap=     0.185 Goal=   None    Shift=    0.000
 RMSDP=1.04D-04 MaxDP=4.22D-03 DE=-1.43D-02 OVMax= 1.36D-02

 Cycle   6  Pass 0  IDiag  1:
 RMSU=  4.02D-05    CP:  9.68D-01  8.87D-01  6.78D-01  6.92D-01  5.49D-01
 E= -1806.02782011149     Delta-E=       -0.001428359124 Rises=F Damp=F
 DIIS: error= 4.12D-04 at cycle   6 NSaved=   6.
 NSaved= 6 IEnMin= 6 EnMin= -1806.02782011149     IErMin= 6 ErrMin= 4.12D-04
 ErrMax= 4.12D-04 EMaxC= 1.00D-01 BMatC= 1.77D-04 BMatP= 1.52D-03
 IDIUse=3 WtCom= 9.96D-01 WtEn= 4.12D-03
 Coeff-Com: -0.538D-03-0.633D-04 0.397D-01 0.126D+00 0.306D+00 0.529D+00
 Coeff-En:   0.000D+00 0.000D+00 0.000D+00 0.000D+00 0.868D-01 0.913D+00
 Coeff:     -0.536D-03-0.631D-04 0.396D-01 0.125D+00 0.305D+00 0.530D+00
 Gap=     0.186 Goal=   None    Shift=    0.000
 RMSDP=3.27D-05 MaxDP=1.45D-03 DE=-1.43D-03 OVMax= 3.91D-03

 Cycle   7  Pass 0  IDiag  1:
 RMSU=  1.36D-05    CP:  9.68D-01  8.87D-01  6.81D-01  6.90D-01  6.13D-01
                    CP:  5.83D-01
 E= -1806.02799872005     Delta-E=       -0.000178608554 Rises=F Damp=F
 DIIS: error= 1.03D-04 at cycle   7 NSaved=   7.
 NSaved= 7 IEnMin= 7 EnMin= -1806.02799872005     IErMin= 7 ErrMin= 1.03D-04
 ErrMax= 1.03D-04 EMaxC= 1.00D-01 BMatC= 1.57D-05 BMatP= 1.77D-04
 IDIUse=3 WtCom= 9.99D-01 WtEn= 1.03D-03
 Coeff-Com: -0.237D-03-0.285D-02 0.100D-01 0.392D-01 0.124D+00 0.303D+00
 Coeff-Com:  0.527D+00
 Coeff-En:   0.000D+00 0.000D+00 0.000D+00 0.000D+00 0.000D+00 0.158D-01
 Coeff-En:   0.984D+00
 Coeff:     -0.237D-03-0.284D-02 0.100D-01 0.391D-01 0.124D+00 0.303D+00
 Coeff:      0.527D+00
 Gap=     0.186 Goal=   None    Shift=    0.000
 RMSDP=8.98D-06 MaxDP=4.72D-04 DE=-1.79D-04 OVMax= 1.10D-03

 Initial convergence to 1.0D-05 achieved.  Increase integral accuracy.
 Cycle   8  Pass 1  IDiag  1:
 E= -1806.02809263882     Delta-E=       -0.000093918771 Rises=F Damp=F
 DIIS: error= 2.79D-04 at cycle   1 NSaved=   1.
 NSaved= 1 IEnMin= 1 EnMin= -1806.02809263882     IErMin= 1 ErrMin= 2.79D-04
 ErrMax= 2.79D-04 EMaxC= 1.00D-01 BMatC= 1.23D-05 BMatP= 1.23D-05
 IDIUse=3 WtCom= 9.97D-01 WtEn= 2.79D-03
 Coeff-Com:  0.100D+01
 Coeff-En:   0.100D+01
 Coeff:      0.100D+01
 Gap=     0.186 Goal=   None    Shift=    0.000
 RMSDP=8.98D-06 MaxDP=4.72D-04 DE=-9.39D-05 OVMax= 7.70D-04

 Cycle   9  Pass 1  IDiag  1:
 RMSU=  9.11D-05    CP:  1.00D+00
 E= -1806.02810127590     Delta-E=       -0.000008637086 Rises=F Damp=F
 DIIS: error= 4.98D-05 at cycle   2 NSaved=   2.
 NSaved= 2 IEnMin= 2 EnMin= -1806.02810127590     IErMin= 2 ErrMin= 4.98D-05
 ErrMax= 4.98D-05 EMaxC= 1.00D-01 BMatC= 3.69D-06 BMatP= 1.23D-05
 IDIUse=1 WtCom= 1.00D+00 WtEn= 0.00D+00
 Coeff-Com:  0.280D+00 0.720D+00
 Coeff:      0.280D+00 0.720D+00
 Gap=     0.186 Goal=   None    Shift=    0.000
 RMSDP=8.21D-06 MaxDP=3.75D-04 DE=-8.64D-06 OVMax= 1.07D-03

 Cycle  10  Pass 1  IDiag  1:
 RMSU=  5.77D-06    CP:  1.00D+00  1.01D+00
 E= -1806.02809955368     Delta-E=        0.000001722219 Rises=F Damp=F
 DIIS: error= 5.89D-05 at cycle   3 NSaved=   3.
 NSaved= 3 IEnMin= 2 EnMin= -1806.02810127590     IErMin= 2 ErrMin= 4.98D-05
 ErrMax= 5.89D-05 EMaxC= 1.00D-01 BMatC= 5.37D-06 BMatP= 3.69D-06
 IDIUse=1 WtCom= 1.00D+00 WtEn= 0.00D+00
 Coeff-Com:  0.233D-02 0.546D+00 0.451D+00
 Coeff:      0.233D-02 0.546D+00 0.451D+00
 Gap=     0.186 Goal=   None    Shift=    0.000
 RMSDP=4.67D-06 MaxDP=2.57D-04 DE= 1.72D-06 OVMax= 6.17D-04

 Cycle  11  Pass 1  IDiag  1:
 RMSU=  8.43D-07    CP:  1.00D+00  1.01D+00  4.50D-01
 E= -1806.02810495734     Delta-E=       -0.000005403659 Rises=F Damp=F
 DIIS: error= 8.81D-06 at cycle   4 NSaved=   4.
 NSaved= 4 IEnMin= 4 EnMin= -1806.02810495734     IErMin= 4 ErrMin= 8.81D-06
 ErrMax= 8.81D-06 EMaxC= 1.00D-01 BMatC= 1.48D-07 BMatP= 3.69D-06
 IDIUse=1 WtCom= 1.00D+00 WtEn= 0.00D+00
 Coeff-Com: -0.383D-02 0.351D+00 0.301D+00 0.352D+00
 Coeff:     -0.383D-02 0.351D+00 0.301D+00 0.352D+00
 Gap=     0.186 Goal=   None    Shift=    0.000
 RMSDP=7.58D-07 MaxDP=4.44D-05 DE=-5.40D-06 OVMax= 8.43D-05

 Cycle  12  Pass 1  IDiag  1:
 RMSU=  2.05D-07    CP:  1.00D+00  1.01D+00  4.63D-01  4.20D-01
 E= -1806.02810509300     Delta-E=       -0.000000135657 Rises=F Damp=F
 DIIS: error= 1.14D-06 at cycle   5 NSaved=   5.
 NSaved= 5 IEnMin= 5 EnMin= -1806.02810509300     IErMin= 5 ErrMin= 1.14D-06
 ErrMax= 1.14D-06 EMaxC= 1.00D-01 BMatC= 2.79D-09 BMatP= 1.48D-07
 IDIUse=1 WtCom= 1.00D+00 WtEn= 0.00D+00
 Coeff-Com: -0.234D-02 0.186D+00 0.160D+00 0.206D+00 0.451D+00
 Coeff:     -0.234D-02 0.186D+00 0.160D+00 0.206D+00 0.451D+00
 Gap=     0.186 Goal=   None    Shift=    0.000
 RMSDP=1.19D-07 MaxDP=7.88D-06 DE=-1.36D-07 OVMax= 1.29D-05

 Cycle  13  Pass 1  IDiag  1:
 RMSU=  7.10D-08    CP:  1.00D+00  1.01D+00  4.63D-01  4.37D-01  7.94D-01
 E= -1806.02810509545     Delta-E=       -0.000000002448 Rises=F Damp=F
 DIIS: error= 3.36D-07 at cycle   6 NSaved=   6.
 NSaved= 6 IEnMin= 6 EnMin= -1806.02810509545     IErMin= 6 ErrMin= 3.36D-07
 ErrMax= 3.36D-07 EMaxC= 1.00D-01 BMatC= 2.46D-10 BMatP= 2.79D-09
 IDIUse=1 WtCom= 1.00D+00 WtEn= 0.00D+00
 Coeff-Com: -0.905D-03 0.666D-01 0.574D-01 0.782D-01 0.263D+00 0.536D+00
 Coeff:     -0.905D-03 0.666D-01 0.574D-01 0.782D-01 0.263D+00 0.536D+00
 Gap=     0.186 Goal=   None    Shift=    0.000
 RMSDP=3.39D-08 MaxDP=2.19D-06 DE=-2.45D-09 OVMax= 3.48D-06

 Cycle  14  Pass 1  IDiag  1:
 RMSU=  1.88D-08    CP:  1.00D+00  1.01D+00  4.63D-01  4.38D-01  8.23D-01
                    CP:  8.11D-01
 E= -1806.02810509563     Delta-E=       -0.000000000186 Rises=F Damp=F
 DIIS: error= 1.02D-07 at cycle   7 NSaved=   7.
 NSaved= 7 IEnMin= 7 EnMin= -1806.02810509563     IErMin= 7 ErrMin= 1.02D-07
 ErrMax= 1.02D-07 EMaxC= 1.00D-01 BMatC= 2.43D-11 BMatP= 2.46D-10
 IDIUse=1 WtCom= 1.00D+00 WtEn= 0.00D+00
 Coeff-Com: -0.177D-03 0.112D-01 0.966D-02 0.149D-01 0.803D-01 0.290D+00
 Coeff-Com:  0.594D+00
 Coeff:     -0.177D-03 0.112D-01 0.966D-02 0.149D-01 0.803D-01 0.290D+00
 Coeff:      0.594D+00
 Gap=     0.186 Goal=   None    Shift=    0.000
 RMSDP=1.26D-08 MaxDP=7.27D-07 DE=-1.86D-10 OVMax= 1.40D-06

 Cycle  15  Pass 1  IDiag  1:
 RMSU=  6.48D-09    CP:  1.00D+00  1.01D+00  4.63D-01  4.38D-01  8.34D-01
                    CP:  8.42D-01  7.36D-01
 E= -1806.02810509564     Delta-E=       -0.000000000005 Rises=F Damp=F
 DIIS: error= 6.12D-08 at cycle   8 NSaved=   8.
 NSaved= 8 IEnMin= 8 EnMin= -1806.02810509564     IErMin= 8 ErrMin= 6.12D-08
 ErrMax= 6.12D-08 EMaxC= 1.00D-01 BMatC= 4.87D-12 BMatP= 2.43D-11
 IDIUse=1 WtCom= 1.00D+00 WtEn= 0.00D+00
 Coeff-Com:  0.176D-04-0.244D-02-0.209D-02-0.161D-02 0.115D-01 0.105D+00
 Coeff-Com:  0.365D+00 0.525D+00
 Coeff:      0.176D-04-0.244D-02-0.209D-02-0.161D-02 0.115D-01 0.105D+00
 Coeff:      0.365D+00 0.525D+00
 Gap=     0.186 Goal=   None    Shift=    0.000
 RMSDP=5.18D-09 MaxDP=2.34D-07 DE=-4.55D-12 OVMax= 8.61D-07

 SCF Done:  E(RB3LYP) =  -1806.02810510     A.U. after   15 cycles
             Convg  =    0.5183D-08             -V/T =  2.0047
 KE= 1.797545681509D+03 PE=-1.034413228882D+04 EE= 3.680175512772D+03
 Leave Link  502 at Fri Sep  9 14:15:50 2022, MaxMem=  209715200 cpu:    5429.2
 (Enter /opt/gaussian/l601.exe)
 Copying SCF densities to generalized density rwf, IOpCl= 0 IROHF=0.

 **********************************************************************

            Population analysis using the SCF density.

 **********************************************************************

 Orbital symmetries:
       Occupied  (A) (A) (A) (A) (A) (A) (A) (A) (A) (A) (A) (A)
                 (A) (A) (A) (A) (A) (A) (A) (A) (A) (A) (A) (A)
                 (A) (A) (A) (A) (A) (A) (A) (A) (A) (A) (A) (A)
                 (A) (A) (A) (A) (A) (A) (A) (A) (A) (A) (A) (A)
                 (A) (A) (A) (A) (A) (A) (A) (A) (A) (A) (A) (A)
                 (A) (A) (A) (A) (A) (A) (A) (A) (A) (A) (A) (A)
                 (A) (A) (A) (A) (A) (A) (A) (A) (A) (A) (A) (A)
                 (A) (A) (A) (A) (A) (A) (A) (A) (A) (A) (A) (A)
                 (A) (A) (A) (A) (A) (A) (A) (A) (A) (A) (A) (A)
                 (A) (A) (A) (A) (A) (A) (A)
       Virtual   (A) (A) (A) (A) (A) (A) (A) (A) (A) (A) (A) (A)
                 (A) (A) (A) (A) (A) (A) (A) (A) (A) (A) (A) (A)
                 (A) (A) (A) (A) (A) (A) (A) (A) (A) (A) (A) (A)
                 (A) (A) (A) (A) (A) (A) (A) (A) (A) (A) (A) (A)
                 (A) (A) (A) (A) (A) (A) (A) (A) (A) (A) (A) (A)
                 (A) (A) (A) (A) (A) (A) (A) (A) (A) (A) (A) (A)
                 (A) (A) (A) (A) (A) (A) (A) (A) (A) (A) (A) (A)
                 (A) (A) (A) (A) (A) (A) (A) (A) (A) (A) (A) (A)
                 (A) (A) (A) (A) (A) (A) (A) (A) (A) (A) (A) (A)
                 (A) (A) (A) (A) (A) (A) (A) (A) (A) (A) (A) (A)
                 (A) (A) (A) (A) (A) (A) (A) (A) (A) (A) (A) (A)
                 (A) (A) (A) (A) (A) (A) (A) (A) (A) (A) (A) (A)
                 (A) (A) (A) (A) (A) (A) (A) (A) (A) (A) (A) (A)
                 (A) (A) (A) (A) (A) (A) (A) (A) (A) (A) (A) (A)
                 (A) (A) (A) (A) (A) (A) (A) (A) (A) (A) (A) (A)
                 (A) (A) (A) (A) (A) (A) (A) (A) (A) (A) (A) (A)
                 (A) (A) (A) (A) (A) (A) (A) (A) (A) (A) (A) (A)
[...]
 -0.00000523,-0.00000525,-0.00000553,0.00000182,0.00000918,-0.00000085,
 -0.00000149,-0.00000046,-0.00000162,-0.00000194,0.00000189,0.00000007,
 0.00000015,0.00000227,0.00000175,-0.00000213,-0.00000617,-0.00004520,0
 .00000752,0.00001350,-0.00095229,-0.00106405,-0.00016174,0.12521042,0.
 27154787,-0.00001398,0.00001299,-0.00000516,0.00002492,-0.00002077,-0.
 00000482,-0.00000090,-0.00000754,0.00000409,0.00001737,0.00000158,0.00
 003422,0.00000712,0.00001513,-0.00007830,0.00002132,-0.00006437,-0.000
 04845,-0.00001227,0.00003337,0.00001595,-0.00011343,0.00006807,-0.0002
 2962,-0.00005869,-0.00033085,0.00056358,-0.00003975,0.00006282,0.00003
 981,-0.00003062,-0.00003782,0.00001842,0.00003229,-0.00004743,-0.00004
 878,-0.00003960,-0.00001793,-0.00001563,0.00001066,0.00002259,0.000026
 46,-0.00001608,-0.00002209,0.00000597,-0.00000218,-0.00000302,-0.00000
 809,0.00000020,0.00000063,0.00000190,-0.00000182,-0.00000208,-0.000001
 58,0.00000230,0.00000368,-0.00000145,-0.00000011,0.00000084,0.00000671
 ,0.00000814,0.00000456,-0.00002371,-0.00271374,-0.00053200,0.00988644,
 -0.00029698,0.00041686,-0.00048149,-0.00114929,0.00033132,0.00633792,-
 0.00045942,0.00202587,0.00701129,-0.01984854,-0.03128053,-0.04554172,-
 0.00429623,-0.00463872,-0.00583775,0.00134789,-0.00007499,-0.00234578,
 -0.00034044,0.00029850,-0.00024049,0.00018046,-0.00004531,0.00003810,-
 0.00016560,0.00018383,-0.00023970,0.00016678,-0.00057095,0.00013674,0.
 00000252,-0.00000228,0.00000267,0.00000637,0.00000114,-0.00000524,-0.0
 0003286,-0.00000066,0.00008964,-0.00000031,-0.00000684,0.00000186,-0.0
 0006785,-0.00001636,0.00003265,0.00003784,-0.00011154,0.00013114,0.000
 01166,-0.00000250,0.00000344,-0.00000851,0.00000123,0.00000747,-0.0000
 0072,-0.00000090,-0.00000017,-0.00000066,-0.00000084,0.00000101,0.0000
 0071,0.00000025,0.00000039,0.00000089,-0.00000184,-0.00000194,0.000236
 75,-0.00006137,-0.00166661,0.00007864,0.00022897,-0.00034734,0.0271675
 6,0.03391352,0.03233197,0.00001159,-0.00001066,0.00000424,-0.00001361,
 0.00001247,-0.00000602,0.00000456,-0.00000472,0.00000133,0.00000072,0.
 00000049,0.00000539,-0.00000462,0.00000322,-0.00000805,-0.00000259,-0.
 00000307,0.00000959,0.00000329,-0.00000563,-0.00000493,0.00000099,0.00
 002795,-0.00001754,0.00005020,-0.00003335,-0.00000726,-0.00004390,0.00
 002176,-0.00001866,0.00005055,-0.00002487,0.00001455,-0.00000682,-0.00
 001393,0.00000653,0.00001213,0.00000876,0.00000670,-0.00000769,-0.0000
 1377,-0.00001402,0.00001062,0.00001139,-0.00000373,0.00000029,0.000001
 22,0.00000408,-0.00000024,-0.00000121,-0.00000173,0.00000114,-0.000000
 01,0.00000213,-0.00000080,-0.00000345,0.00000241,0.00000217,-0.0000020
 9,-0.00000395,-0.00000563,0.00000019,0.00001054,-0.00010651,-0.0000708
 9,0.00001068,-0.00014684,-0.00012862,0.00007518,-0.00014255,0.00018804
 ,-0.00000990,0.00075396,-0.00069236,0.00055918,-0.00026329,0.00021047,
 0.00006867,0.00016780,-0.00002954,0.00001764,0.01213118,0.01114233,-0.
 00305877,-0.08355998,-0.07660876,0.02410842,-0.00301696,-0.03050402,0.
 01331072,-0.00528644,-0.00122842,-0.00162265,-0.00317624,0.00372360,-0
 .00268181,0.00000108,-0.00000080,-0.00000031,-0.00000061,0.00000148,-0
 .00000031,-0.00000267,0.00000169,0.00000598,-0.00000014,0.00000109,0.0
 0000053,0.00000646,-0.00000300,0.00000157,-0.00000775,0.00000285,-0.00
 000872,0.00000436,0.00000204,0.00000015,0.00000299,0.00000020,-0.00000
 132,0.00000016,0.00000098,0.00000038,0.00000021,0.00000119,-0.00000096
 ,-0.00000170,0.00000033,0.00000012,-0.00000181,0.00000361,0.00000136,-
 0.00003017,0.00000807,-0.00002975,-0.00050700,0.00002066,-0.00062781,0
 .00002183,-0.00005986,-0.00001338,0.08157646,-0.00001000,0.00000906,-0
 .00000433,0.00001112,-0.00001013,0.00000575,-0.00000370,0.00000339,-0.
 00000263,-0.00000067,-0.00000011,-0.00000167,0.00000568,-0.00000480,0.
 00000518,0.00000106,0.00000483,-0.00000603,-0.00000309,0.00000405,0.00
 000206,-0.00000351,-0.00002295,0.00001703,-0.00008682,0.00001176,-0.00
 000066,0.00005203,0.00002712,0.00000480,-0.00003740,-0.00001177,-0.000
 00236,0.00000675,0.00001165,-0.00000290,-0.00001099,-0.00000842,-0.000
 00678,0.00000868,0.00001214,0.00001238,-0.00000929,-0.00001184,0.00000
 327,-0.00000065,-0.00000073,-0.00000394,-0.00000007,-0.00000014,0.0000
 0155,-0.00000074,-0.00000121,-0.00000185,0.00000147,0.00000259,-0.0000
 0090,-0.00000007,0.00000208,0.00000414,0.00000381,0.00000018,-0.000009
 56,0.00009834,0.00016720,0.00003659,0.00018594,0.00015266,-0.00005115,
 -0.00001393,-0.00028242,-0.00032064,-0.00094228,-0.00004731,-0.0010074
 8,0.00045448,-0.00028368,0.00009997,-0.00023005,-0.00009001,-0.0000599
 1,-0.00975090,-0.00563503,0.00136269,-0.08466571,-0.29140053,0.1029217
 8,0.00200330,-0.00220072,-0.00040479,0.00026331,0.00210486,0.00196418,
 0.00074614,-0.00210294,0.00282742,-0.00000069,0.00000063,0.00000049,0.
 00000141,-0.00000196,-0.00000078,0.00000260,-0.00000113,-0.00000166,-0
 .00000042,-0.00000048,-0.00000085,-0.00000588,0.00000275,-0.00000206,0
 .00000780,-0.00000425,0.00000655,-0.00000268,-0.00000157,-0.00000034,-
 0.00000198,0.00000030,0.00000162,-0.00000075,-0.00000046,-0.00000032,-
 0.00000063,-0.00000054,0.00000081,0.00000106,0.00000034,-0.00000032,0.
 00000086,-0.00000231,-0.00000082,0.00002105,0.00000300,-0.00000099,-0.
 00016486,0.00049711,0.00015387,-0.00001157,0.00004970,0.00001250,0.093
 11284,0.29958440,0.00000210,-0.00000285,-0.00000109,-0.00000285,0.0000
 0347,-0.00000010,0.00000242,-0.00000448,-0.00000453,0.00000007,0.00000
 126,0.00000832,0.00000465,-0.00000554,-0.00000913,-0.00000736,0.000004
 55,0.00001439,0.00000090,-0.00000481,-0.00000854,0.00001606,0.00003716
 ,0.00001151,0.00001833,-0.00008323,0.00002416,-0.00004234,0.00000547,-
 0.00000402,0.00003374,-0.00001645,-0.00001186,-0.00000709,-0.00000895,
 0.00000900,0.00000895,0.00000543,-0.00000008,0.00000407,-0.00000297,-0
 .00001391,0.00000377,0.00000237,-0.00000080,0.00000132,0.00000248,0.00
 000085,-0.00000203,-0.00000241,0.00000281,-0.00000007,-0.00000050,-0.0
 0000379,0.00000070,0.00000111,0.00000175,0.00000167,0.00000194,-0.0000
 0034,-0.00000923,-0.00000441,0.00001305,0.00004603,0.00030516,-0.00001
 195,0.00019723,-0.00049562,-0.00008459,-0.00029316,0.00076605,-0.00003
 456,0.00030296,-0.00090633,-0.00182475,0.00020583,-0.00008211,0.000046
 89,-0.00020827,-0.00018609,-0.00001391,0.00655852,0.00412125,0.0003456
 8,0.02796313,0.10521128,-0.06604503,-0.00135456,-0.00635366,-0.0013002
 4,-0.00224801,0.00205562,0.00511763,-0.00125057,0.00323528,0.00269514,
 0.00000135,-0.00000060,0.00000026,0.00000183,-0.00000208,-0.00000386,-
 0.00000094,0.00000286,0.00001148,-0.00000184,0.00000186,-0.00000083,0.
 00000385,-0.00001083,0.00000265,-0.00000122,0.00000040,-0.00000410,0.0
 0000504,0.00000197,0.00000038,0.00000108,0.00000102,-0.00000014,-0.000
 00043,0.00000031,0.00000026,0.00000086,0.00000075,-0.00000044,0.000001
 30,-0.00000013,-0.00000231,-0.00000077,-0.00000076,0.00000273,-0.00003
 930,0.00001243,0.00000386,-0.00064327,-0.00031826,-0.00000570,0.000032
 78,-0.00007926,-0.00000620,-0.03011441,-0.10724875,0.06165813,0.000016
 37,-0.00001448,0.00000540,-0.00002090,0.00001825,-0.00000800,0.0000059
 3,-0.00000546,0.00000114,0.00000182,0.00000379,0.00000825,0.00000018,0
 .00000398,-0.00001010,-0.00000489,0.00000743,0.00001102,0.00000584,-0.
 00000669,-0.00000797,-0.00000751,0.00001916,-0.00000231,0.00012552,0.0
 0004087,0.00001313,-0.00007839,-0.00009143,0.00002095,0.00002934,0.000
 04832,-0.00001173,-0.00001375,-0.00001830,0.00000147,0.00001934,0.0000
 1560,0.00000772,-0.00000964,-0.00001659,-0.00002380,0.00001419,0.00001
 681,-0.00000496,0.00000198,0.00000258,0.00000539,-0.00000108,-0.000001
 36,-0.00000065,0.00000122,0.00000144,0.00000008,-0.00000163,-0.0000023
 4,0.00000203,0.00000064,-0.00000072,-0.00000545,-0.00000914,-0.0000031
 1,0.00002042,-0.00007001,0.00025270,-0.00003221,0.00021558,-0.00008442
 ,0.00004555,-0.00033958,-0.00014350,-0.00024487,0.00115567,0.00082847,
 0.00025176,-0.00037379,-0.00066875,-0.00001013,-0.00004430,0.00028151,
 -0.00008695,0.00853958,-0.01589030,0.00833443,-0.00492008,-0.00353390,
 -0.00008921,-0.00551559,0.00431766,-0.00381295,0.00124631,0.02772793,-
 0.01054854,-0.05615185,0.00993724,-0.00914652,0.00000092,-0.00000153,-
 0.00000022,-0.00000209,-0.00000053,-0.00000020,-0.00000701,-0.00000455
 ,0.00001150,-0.00000205,0.00000089,0.00000071,0.00000775,-0.00000341,0
 .00000307,-0.00001940,-0.00000089,-0.00001678,0.00000475,0.00000200,0.
 00000210,0.00000104,-0.00000040,-0.00000351,0.00000069,0.00000083,0.00
 000039,0.00000101,0.00000100,-0.00000111,-0.00000029,-0.00000037,-0.00
 000096,-0.00000084,0.00000121,0.00000280,-0.00002010,0.00000025,0.0000
 1668,0.00005200,0.00008728,0.00002700,-0.00116703,0.00035007,0.0003869
 3,0.00115219,-0.00071409,0.00035149,0.05536896,0.00000371,-0.00000383,
 0.00000064,-0.00000467,0.00000439,-0.00000082,0.00000156,-0.00000293,-
 0.00000168,0.00000058,0.00000016,0.00000366,-0.00000039,-0.00000029,-0
 .00000532,-0.00000366,0.00000561,0.00000605,0.00000210,-0.00000285,-0.
 00000308,0.00000043,0.00000124,0.00000081,0.00000176,0.00000965,0.,-0.
 00001733,-0.00000753,0.00001156,0.00001051,0.00000401,0.00000129,-0.00
 000291,-0.00000529,-0.00000206,0.00000538,0.00000443,0.00000056,-0.000
 00052,-0.00000286,-0.00000707,0.00000288,0.00000332,-0.00000100,0.0000
 0085,0.00000105,0.00000090,-0.00000082,-0.00000073,0.00000067,-0.00000
 004,0.00000017,-0.00000105,-0.00000010,0.00000013,0.00000037,0.0000002
 3,0.00000038,-0.00000091,-0.00000325,-0.00000167,0.00000622,-0.0000172
 5,0.00029700,0.00005266,0.00024651,-0.00012594,0.00002731,-0.00057221,
 -0.00016416,-0.00008256,0.00132321,-0.00022189,-0.00036946,-0.00016633
 ,-0.00065107,-0.00032447,-0.00000230,0.00013653,-0.00012414,0.00599164
 ,-0.00664775,0.00456579,-0.00225123,-0.00120943,0.00175090,0.00073116,
 0.00258254,0.00213203,0.00184389,-0.00724685,0.00017749,0.01661101,-0.
 29662891,0.11922961,0.00000103,-0.00000040,-0.00000016,0.00000030,-0.0
 0000013,-0.00000158,-0.00000187,-0.00000047,0.00000605,-0.00000093,0.0
 0000066,0.00000008,0.00000098,0.00000038,0.00000046,-0.00000705,0.0000
 0254,-0.00000564,0.00000192,0.00000055,0.00000084,-0.00000187,0.000000
 40,-0.00000100,0.00000019,0.00000015,0.00000020,0.00000052,0.00000028,
 -0.00000036,0.00000030,-0.00000019,-0.00000068,-0.00000017,-0.00000020
 ,0.00000095,-0.00001941,0.00000333,-0.00000589,0.00002299,0.00005665,0
 .00001983,0.00034932,0.00062302,0.00020565,0.00047876,-0.00014676,0.00
 050263,-0.02416103,0.30909136,-0.00000818,0.00000616,-0.00000493,0.000
 00915,-0.00000696,0.00000530,-0.00000125,-0.00000196,-0.00000525,-0.00
 000320,-0.00000183,0.00000242,0.00000425,-0.00001123,-0.00000107,-0.00
 000519,0.00000334,0.00000778,-0.00000164,0.00000005,-0.00000330,0.0000
 0745,0.00001382,0.00000391,-0.00000537,-0.00005494,0.00001143,0.000001
 21,0.00002066,0.00000291,-0.00000296,-0.00001076,-0.00000008,0.0000014
 3,-0.00000019,-0.00000040,-0.00000409,-0.00000389,-0.00000398,0.000005
 95,0.00000570,0.00000378,-0.00000443,-0.00000600,0.00000150,-0.0000000
 7,0.00000012,-0.00000225,-0.00000060,-0.00000073,0.00000160,-0.0000004
 5,-0.00000103,-0.00000191,0.00000127,0.00000120,-0.00000037,0.00000119
 ,0.00000126,0.00000248,-0.00000061,-0.00000074,-0.00000264,-0.00000838
 ,0.00019809,-0.00000672,0.00013372,-0.00011871,0.00004961,-0.00013977,
 -0.00014793,-0.00007303,0.00069809,-0.00046688,-0.00136592,0.00048289,
 0.00085473,0.00015263,-0.00037107,-0.00034677,-0.00023451,-0.00210498,
 0.00016483,0.00079809,-0.00074451,0.00142572,0.00312092,-0.00221466,0.
 00310848,0.00537004,0.00119941,0.00403058,-0.00890976,-0.01221257,0.11
 904573,-0.08437798,0.00000131,0.00000082,0.00000011,0.00000445,-0.0000
 0003,-0.00000505,0.00000586,0.00000854,0.00000073,-0.00000178,0.000001
 09,-0.00000136,-0.00000491,-0.00000412,-0.00000053,0.00000674,-0.00000
 295,0.00001442,0.00000285,0.00000099,-0.00000034,-0.00000185,0.0000008
 0,0.00000173,-0.00000045,-0.00000015,-0.00000002,-0.00000023,-0.000000
 02,0.00000020,0.00000044,0.00000047,-0.00000061,-0.00000032,-0.0000003
 4,0.00000003,0.00000662,-0.00000656,0.00000930,-0.00002690,-0.00004250
 ,-0.00001742,0.00016988,-0.00039990,0.00040202,-0.00014973,0.00030598,
 0.00077407,0.01533023,-0.12858533,0.08248632,0.00002561,-0.00002310,0.
 00000891,-0.00003146,0.00002853,-0.00001324,0.00000989,-0.00000911,0.0
 0000298,0.00000094,0.00000375,0.00000915,-0.00000462,0.00000316,-0.000
 01378,-0.00000816,0.00000228,0.00001915,0.00000860,-0.00001205,-0.0000
 1090,0.00000046,0.00007075,-0.00000847,0.00025568,0.00000327,0.0000091
 0,-0.00013584,-0.00014005,0.00000578,0.00005731,0.00006237,-0.00001739
 ,-0.00002388,-0.00003017,0.00001179,0.00003102,0.00002345,0.00001493,-
 0.00001557,-0.00002908,-0.00003734,0.00002402,0.00002702,-0.00000818,0
 .00000235,0.00000397,0.00000919,-0.00000149,-0.00000282,-0.00000203,0.
 00000229,0.00000127,0.00000177,-0.00000206,-0.00000525,0.00000348,0.00
 000242,-0.00000238,-0.00000885,-0.00001498,-0.00000335,0.00003081,-0.0
 0014695,0.00013121,-0.00000836,0.00007083,-0.00009777,0.00003834,0.000
 04916,0.00008866,0.00007195,0.00007430,0.00112314,-0.00072787,-0.00024
 611,-0.00035853,-0.00016927,-0.00000823,0.00012970,0.00012528,-0.00490
 377,-0.00430125,0.00043493,-0.00753622,0.02012455,-0.00861852,-0.30479
 240,0.15401826,-0.11769677,0.01193979,-0.00284138,0.00542996,0.0027284
 0,-0.00402123,0.00130772,0.00000156,-0.00000192,-0.00000076,-0.0000028
 2,0.00000094,-0.00000018,-0.00000544,0.00000080,0.00001108,-0.00000204
 ,0.00000234,0.00000114,0.00001465,-0.00001293,0.00000681,-0.00001650,0
 .00000180,-0.00001546,0.00000989,0.00000509,0.00000136,0.00000534,-0.0
 0000051,-0.00000345,0.00000073,0.00000186,0.00000081,0.00000109,0.0000
 0212,-0.00000207,-0.00000187,-0.00000005,-0.00000087,-0.00000246,0.000
 00428,0.00000399,-0.00000799,-0.00000067,0.00000036,0.00000941,-0.0000
 2746,-0.00002891,-0.00002265,0.00009286,-0.00002538,0.00036968,-0.0003
 1623,0.00045570,0.00081213,-0.00039847,-0.00005424,0.30142596,-0.00002
 385,0.00002115,-0.00000835,0.00002817,-0.00002556,0.00001271,-0.000010
 17,0.00000979,-0.00000189,-0.00000212,-0.00000382,-0.00001004,0.000004
 62,-0.00000462,0.00001723,0.00001009,-0.00000459,-0.00002314,-0.000007
 96,0.00001134,0.00001183,-0.00000519,-0.00007810,0.00000545,-0.0003484
 1,-0.00003412,-0.00002161,0.00016883,0.00022409,-0.00002566,-0.0000572
 2,-0.00011490,0.00003678,0.00002809,0.00003435,-0.00001131,-0.00003656
 ,-0.00002786,-0.00001709,0.00001997,0.00003203,0.00004443,-0.00002648,
 -0.00003346,0.00000938,-0.00000363,-0.00000416,-0.00001061,0.00000190,
 0.00000179,0.00000182,-0.00000190,-0.00000352,-0.00000085,0.00000369,0
 .00000476,-0.00000340,-0.00000066,0.00000164,0.00001070,0.00001685,0.0
 0000574,-0.00003777,0.00027309,-0.00001548,0.00003914,-0.00004924,0.00
 002784,-0.00003577,0.00001375,0.00009673,0.00000814,0.00021900,0.00113
 438,0.00044821,-0.00036407,-0.00016277,-0.00003066,-0.00020262,0.00010
 063,-0.00015290,-0.00441000,0.00085708,0.00027728,-0.00656872,0.010281
 73,-0.00870292,0.14887368,-0.16276785,0.09320685,0.02778740,-0.0149613
 9,0.00587544,-0.00386597,-0.00722315,0.00434335,-0.00000123,0.00000223
 ,0.00000056,0.00000274,0.00000038,0.00000057,0.00000705,-0.00000058,-0
 .00001551,0.00000187,-0.00000194,-0.00000134,-0.00001989,0.00001429,-0
 .00000747,0.00001895,-0.00000600,0.00002320,-0.00001047,-0.00000536,-0
 .00000249,-0.00000641,0.00000164,0.00000483,-0.00000194,-0.00000128,-0
 .00000080,-0.00000233,-0.00000147,0.00000210,0.00000047,0.00000113,0.0
 0000136,0.00000144,-0.00000284,-0.00000503,-0.00000901,0.00000694,-0.0
 0000516,0.00001787,-0.00000722,0.00002858,0.00000207,0.00001844,0.0000
 5563,0.00045532,-0.00037764,-0.00046302,0.00140084,0.00024220,0.001023
 29,-0.16332169,0.17273736,0.00001406,-0.00001351,0.00000231,-0.0000165
 6,0.00001588,-0.00000718,0.00000806,-0.00001043,-0.00000352,0.00000073
 ,0.00000459,0.00001616,0.00000269,-0.00000535,-0.00002047,-0.00001215,
 0.00000670,0.00002656,0.00000332,-0.00001009,-0.00001506,-0.00000745,0
 .00009120,0.00000256,0.00035003,0.00002117,0.00006340,-0.00016544,-0.0
 0021706,0.00003485,0.00004112,0.00010953,-0.00004672,-0.00002516,-0.00
 003128,0.00001138,0.00002917,0.00002026,0.00000886,-0.00000652,-0.0000
 2005,-0.00003879,0.00001804,0.00002060,-0.00000598,0.00000339,0.000004
 76,0.00000670,-0.00000289,-0.00000330,0.00000195,0.00000110,0.00000125
 ,-0.00000368,-0.00000103,-0.00000159,0.00000410,0.00000240,0.00000084,
 -0.00000625,-0.00001923,-0.00000796,0.00003425,-0.00015028,0.00010710,
 -0.00004145,0.00007754,-0.00012713,-0.00004695,0.00009191,-0.00002664,
 -0.00002422,-0.00050923,0.00078794,0.00166180,-0.00008536,-0.00001889,
 0.00002613,0.00000222,0.00006497,-0.00025063,0.00060702,0.00033715,0.0
 0334718,0.00265101,-0.00399246,-0.00510402,-0.11524234,0.09421576,-0.0
 6344213,-0.00759916,0.00039970,-0.01364445,0.00112123,0.00403226,0.002
 86231,0.00000259,-0.00000199,0.00000030,0.00000094,-0.00000192,-0.0000
 0513,-0.00000312,0.00000617,0.00001960,-0.00000328,0.00000305,-0.00000
 033,0.00000691,-0.00001865,0.00000668,-0.00000771,-0.00000244,-0.00000
 588,0.00001360,0.00000527,0.00000166,0.00000571,0.00000128,-0.00000277
 ,0.00000054,0.00000105,0.00000069,0.00000204,0.00000174,-0.00000147,0.
 00000091,-0.00000048,-0.00000323,-0.00000201,0.00000120,0.00000586,-0.
 00000354,-0.00000256,0.00000358,-0.00003154,-0.00000979,0.00005484,-0.
 00000534,-0.00005679,0.00004816,0.00017768,-0.00060611,-0.00134819,-0.
 00079250,0.00081908,0.00179612,0.11945584,-0.09589403,0.07402047\\-0.0
 0000082,0.00000361,0.00000164,0.00001436,-0.00001162,0.00000484,-0.000
 00604,0.00000694,0.00000026,0.00000207,-0.00000220,0.00000003,-0.00000
 100,-0.00000060,-0.00000298,0.00000524,-0.00000159,0.00000877,-0.00000
 816,0.00001088,-0.00000279,0.00000109,0.00000228,-0.00000165,0.0000082
 2,-0.00000234,0.00000799,-0.00000429,0.00000790,-0.00000758,0.00000198
 ,-0.00000473,0.00000220,0.00000840,-0.00000118,0.00000229,-0.00000836,
 -0.00000416,-0.00002132,0.00001099,0.00002000,0.00001787,-0.00001250,-
 0.00001329,-0.00000405,0.00000462,0.00000669,-0.00000939,-0.00000149,0
 .00000211,0.00000448,-0.00000238,-0.00000122,-0.00000872,0.00000331,0.
 00000480,-0.00000360,-0.00000389,-0.00000054,0.00000085,-0.00000117,-0
 .00000277,0.00000557,-0.00000905,-0.00000052,-0.00000294,-0.00000483,0
 .00000326,-0.00000010,0.00000580,0.00000426,0.00000052,-0.00000091,-0.
 00000979,0.00000036,-0.00000870,0.00000173,-0.00000039,0.00000472,0.00
 000180,0.00000095,0.00000088,-0.00000328,0.00000366,-0.00000312,-0.000
 00452,-0.00000842,-0.00000157,0.00000656,0.00000637,0.00000226,-0.0000
 0882,-0.00001006,0.00000015,-0.00000090,0.00000558,0.00000141,0.000000
 17,0.00000363,0.00000213,-0.00000145,0.00000437,0.00000290,-0.00000232
 ,0.00000202,0.00000154,0.00000107,0.00000041,-0.00000050,0.00000150,-0
 .00000030,0.00000362,0.00000137,0.00000093,-0.00000095,0.00000315,0.00
 000212,-0.00000118,0.00000103,-0.00000237,-0.00000329,-0.00000031,-0.0
 0000327,-0.00000270,-0.00000065,-0.00000026,-0.00000113,-0.00000027,0.
 00000119,0.00000171,0.00000177,0.00000035,-0.00000104,-0.00000448,-0.0
 0000147,-0.00000108,-0.00000390,-0.00000153,0.00000281,0.00000123,0.00
 000103,-0.00000353,-0.00000478,-0.00000093,0.00000098,0.00000188,0.000
 00053,0.00000250,-0.00000378,0.00000334\\\@


 THERE IS AN OLD, OLD RECIPE IN MAINE FOR STEWING COOT. PLACE THE
 BIRD IN A KETTLE OF WATER WITH A RED BUILDING BRICK FREE OF MORTAR AND
 BLEMISHES. PARBOIL THE COOT AND BRICK TOGETHER FOR THREE HOURS.
 POUR OFF THE WATER, REFILL THE KETTLE, AND AGAIN PARBOIL FOR THREE HOURS.
 ONCE AGAIN POUR OFF THE WATER, FOR THE LAST TIME ADD FRESH WATER,
 AND LET THE COOT AND BRICK SIMMER TOGETHER OVERNIGHT. IN THE MORNING,
 THROW AWAY THE COOT AND EAT THE BRICK.
 Job cpu time:  0 days 21 hours 56 minutes 26.3 seconds.
 File lengths (MBytes):  RWF=   1674 Int=      0 D2E=      0 Chk=     24 Scr=      1
 Normal termination of Gaussian 09 at Fri Sep  9 20:50:50 2022.
